LAMMPS (29 Sep 2021 - Update 3)
OMP_NUM_THREADS environment is not set. Defaulting to 1 thread. (src/comm.cpp:98)
  using 1 OpenMP thread(s) per MPI task
Reading data file ...
  orthogonal box = (0.0000000 0.0000000 0.0000000) to (16.534670 17.767358 74.594796)
  1 by 2 by 8 MPI processor grid
  reading atoms ...
  864 atoms
Finding 1-2 1-3 1-4 neighbors ...
  special bond factors lj:    0        0        0       
  special bond factors coul:  0        0        0       
     0 = max # of 1-2 neighbors
     0 = max # of 1-3 neighbors
     0 = max # of 1-4 neighbors
     1 = max # of special neighbors
  special bonds CPU = 0.009 seconds
  read_data CPU = 0.030 seconds
Neighbor list info ...
  update every 1 steps, delay 10 steps, check yes
  max neighbors/atom: 2000, page size: 100000
  master list distance cutoff = 6.22
  ghost atom cutoff = 6.22
  binsize = 3.11, bins = 6 6 24
  1 neighbor lists, perpetual/occasional/extra = 1 0 0
  (1) pair quip, perpetual
      attributes: full, newton on
      pair build: full/bin
      stencil: full/bin/3d
      bin: standard
Setting up Verlet run ...
  Unit style    : metal
  Current step  : 0
  Time step     : 0.001
Per MPI rank memory allocation (min/avg/max) = 8.894 | 8.906 | 8.915 Mbytes
Step Temp PotEng TotEng Press Volume c_msd[4] 
       0            0   -8413.4292   -8413.4292   -12531.916    21914.265            0 
      10    63.367096   -8420.5059   -8413.4372   -13062.757    21914.265 0.00028900792 
      20    162.23389   -8431.5423   -8413.4448   -13580.932    21914.265 0.0035442006 
      30    203.76318   -8436.1707   -8413.4406   -13263.999    21914.265  0.011998633 
      40     225.5427      -8438.6   -8413.4404   -13091.981    21914.265  0.023619499 
      50    238.39464   -8440.0352   -8413.4419   -13192.953    21914.265  0.036411648 
      60    237.91747   -8439.9798   -8413.4397    -13151.82    21914.265  0.049420327 
      70    242.25882   -8440.4649   -8413.4405   -12986.142    21914.265  0.062561747 
      80    243.33226   -8440.5825   -8413.4384   -12841.846    21914.265  0.075987004 
      90     256.1439    -8442.014   -8413.4408   -12985.089    21914.265  0.088683986 
     100    260.92723   -8442.5467   -8413.4399   -13129.532    21914.265   0.10092572 
     110    263.36735   -8442.8185   -8413.4395   -13314.209    21914.265   0.11296329 
     120    267.45703   -8443.2754   -8413.4402   -13403.997    21914.265   0.12509928 
     130    267.20277   -8443.2463   -8413.4395   -13198.457    21914.265   0.13819283 
     140    269.21359   -8443.4705   -8413.4393   -12839.711    21914.265   0.15259322 
     150     276.3754   -8444.2699   -8413.4398   -12564.061    21914.265   0.16775295 
     160    282.09052   -8444.9077   -8413.4401   -12400.914    21914.265   0.18315323 
     170    283.74907   -8445.0928   -8413.4402     -12430.3    21914.265    0.1989762 
     180    279.57367   -8444.6271   -8413.4402   -12727.353    21914.265   0.21536827 
     190    272.01519   -8443.7829   -8413.4391   -12943.608    21914.265   0.23180139 
     200    272.98877   -8443.8921   -8413.4397   -13066.814    21914.265    0.2476891 
     210    278.28656   -8444.4833     -8413.44   -13119.162    21914.265   0.26290373 
     220    281.61115   -8444.8543   -8413.4402    -13052.65    21914.265   0.27743582 
     230    283.45537   -8445.0589    -8413.439   -12948.839    21914.265   0.29133107 
     240    292.81696   -8446.1046   -8413.4404   -13016.029    21914.265    0.3048675 
     250    295.20203   -8446.3705   -8413.4402   -13077.887    21914.265   0.31931215 
     260    290.46684   -8445.8415   -8413.4394   -13040.528    21914.265   0.33532684 
     270    290.61991    -8445.858   -8413.4389   -13235.455    21914.265   0.35239777 
     280    301.25443   -8447.0456   -8413.4402   -13515.282    21914.265   0.36952956 
     290    308.28623   -8447.8304   -8413.4406   -13611.572    21914.265   0.38667041 
     300    309.20907   -8447.9319   -8413.4392   -13455.868    21914.265    0.4041006 
     310     314.5316   -8448.5273   -8413.4408   -13198.597    21914.265   0.42152557 
     320    312.09261   -8448.2546   -8413.4402   -12968.083    21914.265   0.43866959 
     330    305.84421   -8447.5573   -8413.4399   -12657.381    21914.265   0.45536472 
     340    303.20988   -8447.2632   -8413.4397   -12498.026    21914.265   0.47172581 
     350    307.13857   -8447.7018     -8413.44   -12492.368    21914.265   0.48754232 
     360    312.15901   -8448.2619   -8413.4401   -12369.505    21914.265   0.50223919 
     370     318.6847   -8448.9898     -8413.44   -12195.898    21914.265   0.51545083 
     380    326.66636   -8449.8808   -8413.4407   -12030.164    21914.265   0.52751087 
     390    328.67292   -8450.1043   -8413.4403   -11786.931    21914.265   0.53983918 
     400    329.42172   -8450.1875     -8413.44   -11529.418    21914.265   0.55338123 
     410    329.12824   -8450.1558   -8413.4411   -11363.621    21914.265   0.56856317 
     420    321.17839   -8449.2675   -8413.4396   -11329.503    21914.265   0.58578319 
     430    319.73313   -8449.1067     -8413.44   -11645.546    21914.265   0.60460993 
     440    321.87014   -8449.3455   -8413.4404   -12168.872    21914.265   0.62482739 
     450    321.69175   -8449.3257   -8413.4405   -12517.526    21914.265   0.64605131 
     460    321.58625   -8449.3131   -8413.4397   -12738.117    21914.265   0.66602281 
     470    327.73765   -8450.0009   -8413.4413    -13118.13    21914.265   0.68222539 
     480    325.78012   -8449.7811   -8413.4399   -13518.975    21914.265   0.69547134 
     490    325.26696   -8449.7242   -8413.4402   -13912.333    21914.265   0.70709849 
     500    326.02809   -8449.8096   -8413.4407    -14245.82    21914.265    0.7181905 
     510     321.8067   -8449.3384   -8413.4404   -14358.421    21914.265   0.73031831 
     520    314.82643   -8448.5595   -8413.4401   -14393.561    21914.265   0.74493886 
     530    311.55922   -8448.1945   -8413.4396    -14504.26    21914.265   0.76206346 
     540    316.52181   -8448.7487   -8413.4402   -14692.451    21914.265   0.78048733 
     550    323.45997   -8449.5224     -8413.44   -14675.954    21914.265   0.79880458 
     560    332.20295   -8450.4987   -8413.4409    -14432.97    21914.265   0.81596428 
     570    332.37528   -8450.5179   -8413.4409   -14008.452    21914.265   0.83234674 
     580    324.44532    -8449.632   -8413.4397   -13682.622    21914.265   0.84880328 
     590    322.54654   -8449.4211   -8413.4405   -13611.186    21914.265   0.86493346 
     600    320.03229     -8449.14   -8413.4399   -13618.158    21914.265   0.88136827 
     610     322.0694   -8449.3667   -8413.4393   -13770.866    21914.265   0.89972436 
     620    332.97088   -8450.5844    -8413.441   -14040.679    21914.265   0.91979176 
     630    336.52886   -8450.9806   -8413.4403   -14106.634    21914.265    0.9400978 
     640    340.63169   -8451.4378   -8413.4399   -14084.373    21914.265   0.95883362 
     650     349.6267   -8452.4431   -8413.4417   -14126.089    21914.265   0.97518253 
     660     345.3101   -8451.9607   -8413.4408    -13925.09    21914.265   0.98949595 
     670    335.30236   -8450.8431   -8413.4396   -13541.064    21914.265    1.0025057 
     680    335.35657   -8450.8495     -8413.44   -13120.509    21914.265    1.0157598 
     690    342.86707   -8451.6878   -8413.4405   -12807.122    21914.265    1.0306556 
     700    350.61517   -8452.5527    -8413.441   -12613.893    21914.265    1.0481195 
     710    351.61871   -8452.6647   -8413.4411    -12558.63    21914.265     1.067876 
     720    346.37378   -8452.0785     -8413.44   -12478.274    21914.265    1.0873947 
     730    347.79156   -8452.2373   -8413.4406   -12593.955    21914.265    1.1041491 
     740    351.02442    -8452.599   -8413.4417   -12781.856    21914.265    1.1188548 
     750    344.89782   -8451.9145   -8413.4406   -12888.282    21914.265     1.133643 
     760      340.342   -8451.4064   -8413.4407   -13050.736    21914.265    1.1491825 
     770    340.04955   -8451.3737   -8413.4407   -13326.749    21914.265    1.1643304 
     780      345.357   -8451.9656   -8413.4405   -13558.373    21914.265    1.1777023 
     790    357.12317   -8453.2788   -8413.4411   -13831.043    21914.265    1.1886997 
     800    366.64045   -8454.3407   -8413.4414   -14129.874    21914.265    1.1976392 
     810    368.68447   -8454.5688   -8413.4415   -14063.484    21914.265    1.2056605 
     820    366.60174   -8454.3361   -8413.4411   -13908.726    21914.265    1.2141717 
     830    365.85586   -8454.2531   -8413.4413   -13853.131    21914.265    1.2243585 
     840     368.4524   -8454.5423   -8413.4409   -13972.673    21914.265    1.2365636 
     850    371.87492   -8454.9262    -8413.443    -14131.16    21914.265    1.2503596 
     860     358.1746   -8453.3954   -8413.4405     -13818.7    21914.265    1.2649975 
     870    354.45705   -8452.9806   -8413.4404   -13465.958    21914.265     1.278191 
     880    366.65296   -8454.3425   -8413.4418   -13399.092    21914.265    1.2880847 
     890    376.93995   -8455.4909   -8413.4426    -13274.53    21914.265    1.2959326 
     900    375.96913   -8455.3817   -8413.4418   -13062.805    21914.265    1.3041818 
     910    374.01489   -8455.1632   -8413.4413   -12824.206    21914.265    1.3130528 
     920    378.94842   -8455.7136   -8413.4414   -12747.174    21914.265    1.3222121 
     930    388.54983   -8456.7859   -8413.4426   -12880.601    21914.265    1.3329508 
     940    389.80019   -8456.9258    -8413.443   -12981.003    21914.265    1.3457299 
     950    382.52604   -8456.1127   -8413.4413   -12918.004    21914.265    1.3587946 
     960    381.75271   -8456.0275   -8413.4424   -13120.356    21914.265    1.3710856 
     970    380.20365    -8455.854   -8413.4417   -13297.868    21914.265    1.3835601 
     980    384.06597   -8456.2848   -8413.4416    -13360.21    21914.265    1.3967998 
     990    391.39252    -8457.104   -8413.4436    -13319.56    21914.265    1.4114384 
    1000    385.55287   -8456.4508   -8413.4418   -13032.957    21914.265    1.4285977 
    1010    381.98963   -8456.0536   -8413.4421   -12900.345    21914.265    1.4480597 
    1020    382.08452   -8456.0644   -8413.4423   -12891.786    21914.265    1.4678099 
    1030    380.66666   -8455.9065   -8413.4425   -12820.478    21914.265    1.4859085 
    1040    378.02017   -8455.6107    -8413.442   -12814.774    21914.265    1.5012686 
    1050    381.70997   -8456.0224   -8413.4421   -12925.622    21914.265    1.5119118 
    1060    391.42566   -8457.1073   -8413.4432    -13146.33    21914.265    1.5173209 
    1070    396.24192   -8457.6441   -8413.4428   -13102.084    21914.265    1.5196151 
    1080    397.63032   -8457.7993    -8413.443   -12889.784    21914.265    1.5211703 
    1090    396.12759   -8457.6308   -8413.4422   -12537.537    21914.265    1.5231683 
    1100    400.33119   -8458.1002   -8413.4426   -12299.668    21914.265    1.5256834 
    1110    407.17314   -8458.8635   -8413.4428   -12099.612    21914.265    1.5296348 
    1120    413.19804   -8459.5369    -8413.444   -11926.861    21914.265    1.5369315 
    1130    409.94165   -8459.1721   -8413.4425   -11927.354    21914.265    1.5487344 
    1140    411.69689   -8459.3679   -8413.4425   -12274.932    21914.265    1.5644715 
    1150    417.92932   -8460.0654   -8413.4448   -12599.199    21914.265    1.5822789 
    1160    409.45399   -8459.1175   -8413.4423   -12608.558    21914.265    1.6004412 
    1170    405.75202   -8458.7057   -8413.4435   -12496.116    21914.265    1.6169469 
    1180    399.97271   -8458.0606    -8413.443   -12466.412    21914.265    1.6317671 
    1190    393.04741   -8457.2883   -8413.4433   -12618.331    21914.265    1.6460138 
    1200    381.93867   -8456.0489   -8413.4431   -12576.103    21914.265    1.6602667 
    1210    376.72969   -8455.4667   -8413.4419   -12745.258    21914.265    1.6726433 
    1220     387.4652   -8456.6661   -8413.4437   -13270.317    21914.265    1.6819979 
    1230    392.11995   -8457.1848   -8413.4433   -13698.725    21914.265    1.6894908 
    1240    392.35374   -8457.2109   -8413.4432   -14054.078    21914.265    1.6958816 
    1250    387.63167   -8456.6848   -8413.4439   -14383.659    21914.265    1.7022745 
    1260    377.01437   -8455.4984   -8413.4419   -14780.957    21914.265    1.7098627 
    1270    380.16106   -8455.8505   -8413.4429    -15291.91    21914.265    1.7186286 
    1280    386.65141    -8456.575   -8413.4435   -15684.863    21914.265    1.7280931 
    1290    386.45138   -8456.5524   -8413.4431   -15669.118    21914.265    1.7377267 
    1300    384.49318   -8456.3333   -8413.4425   -15192.167    21914.265    1.7465203 
    1310    389.16883   -8456.8559   -8413.4435   -14748.802    21914.265    1.7543822 
    1320    395.91985   -8457.6092   -8413.4437   -14540.669    21914.265    1.7626209 
    1330    402.24128   -8458.3144   -8413.4438   -14482.176    21914.265    1.7719127 
    1340    406.72312   -8458.8138   -8413.4433   -14593.779    21914.265    1.7822942 
    1350    413.88937   -8459.6138   -8413.4438   -14633.206    21914.265    1.7929881 
    1360    418.26368   -8460.1021   -8413.4441   -14272.723    21914.265    1.8043383 
    1370    412.53709   -8459.4628   -8413.4437   -13640.472    21914.265    1.8173742 
    1380    404.03017    -8458.513   -8413.4428   -13053.663    21914.265    1.8314414 
    1390    402.11865   -8458.3013   -8413.4444   -12796.252    21914.265    1.8446224 
    1400    396.75786   -8457.7017   -8413.4428   -12890.081    21914.265    1.8555613 
    1410     401.1626   -8458.1945   -8413.4442   -13251.623    21914.265    1.8625402 
    1420    405.53922    -8458.683   -8413.4445   -13540.901    21914.265    1.8651673 
    1430    404.12534   -8458.5245   -8413.4437   -13662.885    21914.265    1.8648977 
    1440    405.72045   -8458.7027    -8413.444   -13771.634    21914.265    1.8643414 
    1450    406.67484   -8458.8092    -8413.444   -13873.149    21914.265    1.8661066 
    1460    406.94702   -8458.8395   -8413.4439   -13898.845    21914.265    1.8707341 
    1470    405.99802   -8458.7335   -8413.4438    -13583.81    21914.265    1.8783175 
    1480    405.25435   -8458.6503   -8413.4436   -13097.342    21914.265    1.8881067 
    1490    408.19865    -8458.979   -8413.4439   -12662.726    21914.265    1.8977467 
    1500    414.56579   -8459.6887   -8413.4433   -12296.863    21914.265    1.9065246 
    1510    429.03716   -8461.3044   -8413.4447   -11735.577    21914.265    1.9156573 
    1520    435.43303   -8462.0188   -8413.4456   -11140.275    21914.265    1.9269758 
    1530    420.46896   -8460.3486   -8413.4446     -10759.3    21914.265    1.9420002 
    1540    404.55727   -8458.5707   -8413.4417   -10562.297    21914.265    1.9594173 
    1550     414.5371   -8459.6878   -8413.4456   -10873.945    21914.265    1.9756145 
    1560    415.64167   -8459.8093   -8413.4438    -11180.84    21914.265    1.9896674 
    1570    417.51903   -8460.0192   -8413.4444   -11574.862    21914.265      2.00287 
    1580    420.71133   -8460.3754   -8413.4444   -12084.028    21914.265    2.0173903 
    1590    422.23753   -8460.5459   -8413.4446   -12650.323    21914.265    2.0354221 
    1600    420.26548   -8460.3254   -8413.4441   -13157.964    21914.265    2.0567995 
    1610    418.97614   -8460.1816   -8413.4442   -13379.664    21914.265    2.0784503 
    1620    422.99101    -8460.629   -8413.4437   -13476.483    21914.265    2.0978277 
    1630    431.41255   -8461.5707    -8413.446   -13473.665    21914.265     2.115193 
    1640    426.28653   -8460.9963   -8413.4434   -13430.412    21914.265    2.1338075 
    1650    431.13487   -8461.5387    -8413.445   -13658.596    21914.265       2.1559 
    1660    436.17822   -8462.1019   -8413.4456   -13638.641    21914.265    2.1797337 
    1670    428.12023   -8461.2022   -8413.4447   -13252.346    21914.265    2.2035441 
    1680    422.66155   -8460.5919   -8413.4434   -13022.696    21914.265    2.2262152 
    1690    430.34848   -8461.4521    -8413.446   -12966.155    21914.265    2.2464937 
    1700    426.21611   -8460.9896   -8413.4446   -12849.343    21914.265    2.2649593 
    1710    421.63281   -8460.4781   -8413.4443    -12902.06    21914.265    2.2822078 
    1720    425.52952   -8460.9136   -8413.4451   -13254.993    21914.265    2.2992296 
    1730    433.21398   -8461.7705   -8413.4448   -13760.925    21914.265    2.3170264 
    1740    441.86781   -8462.7372   -8413.4461   -14050.542    21914.265    2.3352522 
    1750    438.27813    -8462.336   -8413.4454   -13921.401    21914.265    2.3528289 
    1760    429.17186   -8461.3192   -8413.4444   -13408.002    21914.265    2.3694072 
    1770    428.81898   -8461.2807   -8413.4453    -12917.73    21914.265    2.3858611 
    1780    433.34916   -8461.7857    -8413.445   -12638.931    21914.265    2.4026666 
    1790     441.0669   -8462.6474   -8413.4457   -12705.172    21914.265     2.419074 
    1800    447.24535   -8463.3359    -8413.445   -12842.309    21914.265    2.4345236 
    1810    451.04914   -8463.7611   -8413.4459   -13058.485    21914.265    2.4502124 
    1820    445.08252   -8463.0941   -8413.4445   -13035.825    21914.265    2.4671851 
    1830    441.70858   -8462.7187   -8413.4454   -12922.342    21914.265    2.4853863 
    1840    432.65555   -8461.7082   -8413.4449   -13058.866    21914.265    2.5046773 
    1850    428.24526   -8461.2146   -8413.4432   -13494.155    21914.265    2.5239509 
    1860    442.70809   -8462.8312   -8413.4464     -14052.9    21914.265    2.5417036 
    1870    445.34398   -8463.1238   -8413.4451   -14177.248    21914.265    2.5577578 
    1880    449.56383   -8463.5931   -8413.4436   -14088.107    21914.265    2.5732932 
    1890    469.70151   -8465.8424   -8413.4465   -13965.821    21914.265    2.5900107 
    1900    475.61979   -8466.5029   -8413.4468   -13338.709    21914.265    2.6092547 
    1910    460.77113   -8464.8444   -8413.4447   -12266.897    21914.265    2.6300063 
    1920    453.29076   -8464.0097   -8413.4444   -11600.031    21914.265    2.6488623 
    1930    455.01355   -8464.2038   -8413.4464   -11532.276    21914.265     2.664581 
    1940    446.57627   -8463.2611   -8413.4448   -11610.068    21914.265    2.6787843 
    1950    442.24787   -8462.7779   -8413.4445    -12067.88    21914.265     2.691974 
    1960    445.34565   -8463.1243   -8413.4453   -12574.104    21914.265    2.7033659 
    1970     445.3849   -8463.1293   -8413.4459   -12683.518    21914.265    2.7130116 
    1980    438.45896   -8462.3558    -8413.445   -12521.804    21914.265    2.7223802 
    1990    435.82997    -8462.062   -8413.4445   -12590.151    21914.265    2.7312795 
    2000    445.20858   -8463.1089   -8413.4452   -13039.215    21914.265    2.7384799 
Loop time of 1313.65 on 16 procs for 2000 steps with 864 atoms

Performance: 0.132 ns/day, 182.451 hours/ns, 1.522 timesteps/s
97.1% CPU use with 16 MPI tasks x 1 OpenMP threads

MPI task timing breakdown:
Section |  min time  |  avg time  |  max time  |%varavg| %total
---------------------------------------------------------------
Pair    | 479.71     | 769.76     | 1249.4     | 804.9 | 58.60
Bond    | 0.0001719  | 0.00041726 | 0.00093961 |   0.0 |  0.00
Neigh   | 0.017027   | 0.02917    | 0.053286   |   6.4 |  0.00
Comm    | 40.393     | 487.56     | 742.16     | 953.0 | 37.11
Output  | 16.71      | 37.909     | 59.218     | 258.7 |  2.89
Modify  | 0.0093875  | 0.010673   | 0.012875   |   0.9 |  0.00
Other   |            | 18.38      |            |       |  1.40

Nlocal:        54.0000 ave          84 max          36 min
Histogram: 3 3 4 0 0 2 1 0 1 2
Nghost:        477.750 ave         592 max         348 min
Histogram: 2 0 2 1 3 3 1 0 0 4
Neighs:         0.00000 ave           0 max           0 min
Histogram: 16 0 0 0 0 0 0 0 0 0
FullNghs:      2234.12 ave        4892 max        1038 min
Histogram: 5 5 0 0 2 0 2 0 0 2

Total # of neighbors = 35746
Ave neighs/atom = 41.372685
Ave special neighs/atom = 0.0000000
Neighbor list builds = 199
Dangerous builds = 198
Setting up Verlet run ...
  Unit style    : metal
  Current step  : 2000
  Time step     : 0.001
Per MPI rank memory allocation (min/avg/max) = 8.894 | 8.907 | 8.916 Mbytes
Step Temp PotEng TotEng Press Volume c_msd[4] 
    2000          300   -8463.1089   -8429.6435   -13828.729    21914.265    2.7384799 
    2010    323.91282   -8466.1681   -8430.0351   -13901.139    21886.339    2.7343295 
    2020    357.35697   -8471.0348   -8431.1711   -12918.902     21803.31    2.7245608 
    2030    376.57335   -8474.8739   -8432.8666   -10627.156    21670.799    2.7123767 
    2040    384.26669   -8477.6174   -8434.7519   -7202.7375    21501.785    2.7002532 
    2050    390.84887   -8480.0615   -8436.4617   -3565.8962     21315.53    2.6901972 
    2060    392.75929   -8481.5599    -8437.747   -32.883016    21132.683    2.6837425 
    2070    387.39252   -8481.7134   -8438.4991    2843.4504    20970.715    2.6798578 
    2080    394.86792    -8482.947   -8438.8988    4371.5452    20840.193    2.6756039 
    2090    406.17472   -8484.5755   -8439.2661    4419.4145    20743.193     2.670451 
    2100    412.97807   -8485.8749   -8439.8066    3146.6449    20674.877    2.6662599 
    2110    415.84425   -8486.9601    -8440.572    1507.1362    20626.588    2.6644063 
    2120    412.67698   -8487.5326   -8441.4979     29.37266     20589.71    2.6649063 
    2130     413.3447   -8488.6271   -8442.5179   -1483.2735    20557.281    2.6680714 
    2140    411.19544   -8489.4745    -8443.605   -2803.0799    20523.374    2.6750158 
    2150    404.63933   -8489.8706   -8444.7324   -3322.6122    20483.524    2.6857797 
    2160    400.91823   -8490.5937   -8445.8706    -3092.459    20436.143    2.6986701 
    2170    395.18749   -8491.0813   -8446.9976    -2428.128     20382.21    2.7112936 
    2180    390.73104   -8491.6734   -8448.0868    -1410.427    20324.173     2.722807 
    2190    393.45489   -8493.0252   -8449.1347   -217.83079    20265.452    2.7348206 
    2200    397.73871   -8494.5423   -8450.1739    933.69038     20209.83    2.7482294 
    2210    396.60052   -8495.4704    -8451.229    1834.3487    20160.686    2.7622979 
    2220    385.68787   -8495.3034   -8452.2793     2489.899    20120.443    2.7758497 
    2230    383.19847   -8496.0529   -8453.3066    2793.8257    20090.574    2.7876324 
    2240    388.22518    -8497.648   -8454.3409    2912.7937     20071.48    2.7970926 
    2250    385.77756   -8498.4306   -8455.3966    2840.2588    20062.887    2.8051773 
    2260    376.72335   -8498.4659   -8456.4419      2480.55    20063.983    2.8125049 
    2270    381.03013   -8499.9794   -8457.4749    1576.7611    20073.049    2.8174762 
    2280    389.98182   -8502.0451    -8458.542    341.19127    20086.756    2.8199663 
    2290    379.26388   -8501.9318   -8459.6243   -477.50508    20101.078     2.822514 
    2300     369.1784   -8501.8518   -8460.6694   -1021.2351    20113.248    2.8268404 
    2310    366.90957   -8502.6107   -8461.6814   -1487.2103    20121.486    2.8334649 
    2320    359.01847   -8502.7148   -8462.6657   -1617.3027    20124.551     2.843256 
    2330     348.7222   -8502.4982   -8463.5978   -1741.0666    20122.118     2.855384 
    2340    354.17677   -8504.0086   -8464.4996   -1795.4246    20114.014    2.8676607 
    2350    356.67145      -8505.2   -8465.4128   -1377.9212    20100.472    2.8798924 
    2360     345.4023   -8504.8292   -8466.2991   -520.57773    20083.158    2.8922705 
    2370     342.8136    -8505.376   -8467.1346    311.08817    20064.914    2.9028964 
    2380    347.37077   -8506.7015   -8467.9518    1019.7969    20048.489    2.9103326 
    2390    343.96621   -8507.1389    -8468.769     1741.982    20036.169    2.9157139 
    2400    336.33584   -8507.0924   -8469.5736    2244.5431    20030.057    2.9215798 
    2410    334.19152   -8507.6488   -8470.3692    2339.5146    20031.479    2.9292515 
    2420    333.98998    -8508.424   -8471.1669    1881.5556    20040.355    2.9380462 
    2430    328.82678   -8508.6324   -8471.9513    1306.1145    20055.064    2.9481218 
    2440     326.9703   -8509.1704   -8472.6964    163.45045    20073.273    2.9611108 
    2450    335.89633   -8510.8926   -8473.4229   -1323.9683    20091.156    2.9771876 
    2460    342.17398    -8512.341   -8474.1709   -2577.2805    20103.949    2.9950608 
    2470    338.49004   -8512.7016   -8474.9425   -3155.8688     20107.86    3.0135731 
    2480    328.01967   -8512.2953   -8475.7042   -3070.8777    20101.349    3.0313372 
    2490    319.16073   -8512.0355   -8476.4326   -2652.1047    20085.049     3.046625 
    2500    319.30881   -8512.7517   -8477.1324   -2122.2644     20060.73    3.0588095 
    2510    324.95477   -8514.0743   -8477.8251   -1376.5952    20030.586    3.0688823 
    2520    318.33731   -8514.0092   -8478.4982    -393.2733     19997.37    3.0787051 
    2530    303.72392   -8512.9812   -8479.1004    606.11717    19964.407    3.0901058 
    2540    302.48632   -8513.3654   -8479.6226    1353.1648    19934.899    3.1033966 
    2550    308.96398   -8514.5699   -8480.1045    2058.3721     19911.17    3.1169334 
    2560    312.52761   -8515.4431   -8480.5802    2807.1663    19895.223    3.1297306 
    2570    315.70586   -8516.2947   -8481.0773    3413.2598    19889.066    3.1419717 
    2580     317.4855   -8517.0261   -8481.6101    3603.9846    19894.147    3.1533106 
    2590    322.04343   -8518.1096   -8482.1852    3207.7484    19910.554     3.163186 
    2600    323.62694   -8518.8987   -8482.7976    2432.0801    19936.598    3.1731727 
    2610    315.03788   -8518.5559    -8483.413     1532.564    19969.466    3.1860767 
    2620    309.27938   -8518.4897   -8483.9891    175.59635    20005.843    3.2033349 
    2630    315.75083   -8519.7427   -8484.5203   -1291.9798    20041.248    3.2236503 
    2640    322.44185   -8521.0101   -8485.0413   -2433.0869    20070.995    3.2437083 
    2650    317.29165   -8520.9633   -8485.5689   -3059.3429    20091.567    3.2620453 
    2660     309.3549   -8520.6029   -8486.0939   -3053.7418    20101.321    3.2809446 
    2670    310.92659   -8521.3039   -8486.6196   -2731.2159     20100.63    3.3033359 
    2680    315.34711     -8522.34   -8487.1626   -2081.6335    20091.053    3.3291515 
    2690    315.83938   -8522.9522   -8487.7198   -1412.2212    20075.043    3.3554262 
    2700    313.29113   -8523.2258   -8488.2777   -1116.0862    20054.949    3.3805143 
    2710    310.10634   -8523.4177   -8488.8249   -713.05104    20032.117    3.4044469 
    2720    303.46354   -8523.2002   -8489.3484   -170.47624     20007.97     3.426722 
    2730    299.96803   -8523.2989    -8489.837    504.66655    19984.387    3.4469801 
    2740    305.87153   -8524.4252   -8490.3047    853.36446    19963.417    3.4661753 
    2750    306.34389   -8524.9347   -8490.7616    793.47447    19946.059    3.4866972 
    2760    303.18776   -8525.0201    -8491.199    517.83485    19932.026    3.5102121 
    2770    303.28188   -8525.4506    -8491.619    131.65717    19920.275    3.5365954 
    2780    298.52377   -8525.3285   -8492.0277   -195.53803    19909.505    3.5642738 
    2790    293.45319     -8525.16   -8492.4249   -531.96743    19898.595    3.5902387 
    2800     298.3526   -8526.0886    -8492.807   -987.57744     19886.42    3.6116748 
    2810    310.44047   -8527.8219   -8493.1918   -1313.6813    19871.641    3.6274829 
    2820    310.81811   -8528.2688   -8493.5965   -941.24504    19853.532    3.6384543 
    2830    299.97507   -8527.4628   -8494.0001    40.739983    19833.442    3.6482212 
    2840    300.95678   -8527.9525   -8494.3803    920.27929    19814.428    3.6616263 
    2850     305.7464   -8528.8469   -8494.7405    1479.6022     19799.25     3.680851 
    2860    307.59495   -8529.4003   -8495.0876    1672.5557    19789.475    3.7047126 
    2870    306.60405   -8529.6311   -8495.4289     1700.317    19785.506    3.7306014 
    2880    295.64014   -8528.7327   -8495.7536    1569.6428    19787.152    3.7562312 
    2890    293.15718   -8528.7543   -8496.0521    1055.6548    19793.641    3.7801017 
    2900    297.79803   -8529.5579   -8496.3381    365.32395    19803.123    3.8022263 
    2910    290.36606   -8529.0048    -8496.614    25.008966    19813.418    3.8235263 
    2920    291.67747   -8529.4137   -8496.8766   -362.83289    19823.284    3.8444309 
    2930    301.54043   -8530.7777   -8497.1404   -904.06051    19831.439    3.8653681 
    2940    296.43632   -8530.4757   -8497.4078    -1060.711    19836.424    3.8875615 
    2950    288.02265    -8529.787   -8497.6577    -892.6242    19837.863    3.9110185 
    2960    288.22969    -8530.027   -8497.8745   -516.09579    19836.423    3.9346847 
    2970    292.55096      -8530.7   -8498.0655   -103.80968    19833.409    3.9582035 
    2980    297.00064   -8531.3795   -8498.2486    318.59527    19830.215    3.9832959 
    2990    296.69903   -8531.5247   -8498.4274     812.9024    19828.252    4.0122742 
    3000    295.09274    -8531.508   -8498.5899    1340.2854    19829.025    4.0446299 
    3010    293.54071   -8531.4702   -8498.7253    1810.8649     19834.06    4.0770614 
    3020    301.16474   -8532.4393   -8498.8439    2051.5072    19844.648    4.1066636 
    3030    310.87701   -8533.6565   -8498.9777    1872.7681    19861.239     4.133156 
    3040    302.41877   -8532.8766   -8499.1413     1498.591    19883.055    4.1587955 
    3050    283.44367   -8530.9206    -8499.302    841.78342    19908.632    4.1866699 
    3060    275.68354   -8530.1688   -8499.4159   -239.45344    19935.603    4.2185079 
    3070    274.40946   -8530.0691   -8499.4583   -1230.3321    19960.539    4.2529788 
    3080    279.18545   -8530.5806   -8499.4371   -1724.1568    19980.428    4.2860591 
    3090    287.07968   -8531.3972    -8499.373   -1743.0575    19993.882    4.3133255 
    3100    293.62396   -8532.0419   -8499.2877   -1495.7573    20001.091    4.3323368 
    3110    296.46023   -8532.2658   -8499.1952   -1179.9284    20003.096    4.3439745 
    3120    294.80063   -8531.9835   -8499.0981   -900.26495    20001.143    4.3509366 
    3130    299.17884   -8532.3681   -8498.9942    -717.2532    19996.313    4.3554795 
    3140    301.49047   -8532.5174   -8498.8857   -624.66608     19989.33       4.3586 
    3150     305.0844   -8532.8152   -8498.7825    -559.0014    19980.609    4.3583642 
    3160    308.30532   -8533.0855   -8498.6936   -382.79042    19970.486     4.353442 
    3170    302.43564   -8532.3559   -8498.6188   -175.43718    19959.566    4.3453226 
    3180    309.53641   -8533.0846   -8498.5553    -341.1319    19948.433    4.3360835 
    3190    319.04525    -8534.105    -8498.515   -565.24558    19936.657    4.3278536 
    3200    314.58175   -8533.6068   -8498.5148   -436.99592    19923.646    4.3210254 
    3210    310.64675   -8533.2008   -8498.5477   -236.04531    19909.753    4.3138141 
    3220    308.35696   -8533.0002   -8498.6025    82.219114    19895.683    4.3032293 
    3230    305.27088   -8532.7268   -8498.6734    514.77871    19882.482    4.2878699 
    3240    308.01809    -8533.119   -8498.7591    749.30441    19871.417    4.2690585 
    3250    313.44151   -8533.8305   -8498.8656    672.42349    19863.134    4.2497505 
    3260     318.7669   -8534.5627   -8499.0038    373.54155     19857.29    4.2341792 
    3270    321.27387   -8535.0189   -8499.1803    142.89489    19852.909    4.2255994 
    3280     321.3137   -8535.2433   -8499.4002    74.880256    19849.236    4.2252386 
    3290    323.86114   -8535.8021   -8499.6749    73.273712    19845.963    4.2319774 
    3300     322.6656   -8536.0041   -8500.0102    140.80198    19843.064    4.2420006 
    3310    317.26513   -8535.7811   -8500.3897    86.771676     19840.71    4.2519849 
    3320    321.04562   -8536.6172   -8500.8041    -352.2247    19838.629    4.2622363 
    3330    322.75587   -8537.2649    -8501.261   -1102.6654    19835.386    4.2761223 
    3340    314.37265   -8536.8134   -8501.7447   -1687.1796    19828.743    4.2967138 
    3350    309.22511   -8536.7222   -8502.2276   -2007.4112    19816.985     4.322651 
    3360    311.58253   -8537.4606   -8502.7031   -2057.6077    19799.264    4.3483926 
    3370    314.46914   -8538.2582   -8503.1787   -1477.6999    19775.781    4.3693704 
    3380    312.13749   -8538.4613   -8503.6419   -370.18062    19748.625    4.3867867 
    3390    312.97939   -8538.9896   -8504.0762    756.91708    19721.372    4.4039691 
    3400    318.18651   -8539.9932   -8504.4991    1464.5816    19697.502     4.422135 
    3410     318.9217   -8540.5117   -8504.9355    1779.4397    19679.144    4.4404598 
    3420    311.30314   -8540.1146   -8505.3883    1952.7646     19667.14    4.4580729 
    3430    301.03709   -8539.4123   -8505.8311    1977.9034    19661.772    4.4767402 
    3440    304.77626   -8540.2534   -8506.2551    1523.7244    19662.735    4.5000395 
    3450    312.83255   -8541.5757   -8506.6787    1062.8483    19668.513    4.5301067 
    3460    307.19877   -8541.3637   -8507.0952    798.24535    19677.505    4.5657634 
    3470    305.64806   -8541.5941   -8507.4986    357.94293    19688.642    4.6036876 
    3480    303.59822   -8541.7535   -8507.8866   -300.95935    19700.436    4.6412439 
    3490    303.42921   -8542.1041   -8508.2562   -1048.1345    19710.797    4.6759893 
    3500    307.25686   -8542.8923   -8508.6173   -1770.7196    19717.416     4.705085 
    3510    306.95329   -8543.2239   -8508.9828   -2121.8797    19718.238    4.7258648 
    3520    302.88263   -8543.1392   -8509.3522    -2236.563    19712.314     4.738289 
    3530    301.52624   -8543.3519   -8509.7162   -2168.2711    19699.542    4.7461737 
    3540    307.44314   -8544.3794   -8510.0836   -2104.0262    19680.317    4.7533085 
    3550    307.82069   -8544.7935   -8510.4556     -1540.45    19655.298    4.7604992 
    3560    306.37791   -8544.9935   -8510.8166   -759.07814    19626.439    4.7665758 
    3570    309.09366   -8545.6477   -8511.1679    15.349096     19596.29     4.770538 
    3580    304.21319   -8545.4405   -8511.5051    916.02311    19567.395    4.7727166 
    3590    302.01613   -8545.5168   -8511.8264    1569.8712    19542.458    4.7752492 
    3600    308.17946   -8546.5315   -8512.1537    1807.4401    19523.319    4.7829592 
    3610    312.65923   -8547.3832   -8512.5056    1898.9653    19510.569    4.8016718 
    3620    310.29359   -8547.4911   -8512.8774     1936.321    19504.226    4.8339524 
    3630    305.81428   -8547.3615   -8513.2475    1837.2876    19504.156     4.876861 
    3640     307.6176   -8547.9227   -8513.6075    1375.3965    19509.726    4.9240677 
    3650    307.72949   -8548.2915   -8513.9638    859.26541    19519.372    4.9705268 
    3660    307.58619   -8548.6271   -8514.3154     291.6279    19531.333    5.0127458 
    3670    311.93189   -8549.4687   -8514.6722   -12.331567    19543.841    5.0493885 
    3680     308.6098   -8549.4649    -8515.039    183.26089    19556.002    5.0828034 
    3690     306.1147   -8549.5514   -8515.4038    179.51638    19568.256     5.115995 
    3700    309.50062   -8550.2912    -8515.766    -536.7938    19580.451    5.1492906 
    3710    306.15693   -8550.2746   -8516.1223   -1756.8489    19590.392    5.1801837 
    3720    307.65049    -8550.795   -8516.4761   -3046.3643    19594.408    5.2063889 
    3730    316.03085   -8552.1143   -8516.8605     -3860.69    19588.779    5.2279056 
    3740    322.47669   -8553.2851   -8517.3124    -3466.817     19571.53    5.2477785 
    3750    324.82367   -8554.0592   -8517.8247   -2145.5999    19544.268    5.2712097 
    3760    315.61569   -8553.5501   -8518.3427   -445.83406    19511.421     5.301074 
    3770    308.57301   -8553.2259   -8518.8041    712.67044    19478.295    5.3360005 
    3780    314.27251    -8554.293   -8519.2355    1100.4066    19448.503    5.3745473 
    3790    313.46739   -8554.6276   -8519.6599    1348.6499    19423.316     5.416405 
    3800    317.61947   -8555.5148   -8520.0839    1625.6555     19403.36    5.4620758 
    3810    327.19738   -8557.0333   -8520.5339    1923.3503    19389.273    5.5134146 
    3820    329.02323    -8557.727   -8521.0239    1967.1835     19381.64    5.5712593 
    3830    323.50841   -8557.6283   -8521.5405     1678.774    19380.302    5.6352047 
    3840    318.69074   -8557.6055   -8522.0551    1124.9507    19384.134    5.7039486 
    3850    320.47378   -8558.3078   -8522.5585    401.44649    19391.199    5.7760642 
    3860    316.44241   -8558.3487   -8523.0491   -147.23911    19399.228    5.8499527 
    3870    303.18935   -8557.3234   -8523.5022   -412.35192    19406.561    5.9230729 
    3880    303.54597   -8557.7734   -8523.9124   -899.61937    19412.244    5.9934448 
    3890    309.21075   -8558.7919    -8524.299   -1648.1688    19414.825    6.0577673 
    3900    308.71649   -8559.1145   -8524.6768   -2289.7162    19412.225    6.1094647 
    3910     307.9829   -8559.4127   -8525.0567   -2519.6228    19402.801    6.1428696 
    3920    305.05424   -8559.4745   -8525.4453   -2382.7874    19386.105    6.1564139 
    3930    299.68813   -8559.2544   -8525.8238   -1568.4579    19363.017     6.153111 
    3940    306.75932   -8560.4022   -8526.1827    -677.2744    19336.157    6.1394303 
    3950    313.12981   -8561.4659   -8526.5358    339.24329    19308.469    6.1239519 
    3960    308.42718   -8561.2855     -8526.88     1381.954    19283.032    6.1143339 
    3970    302.92108    -8560.997   -8527.2057    2299.2432     19262.91    6.1144924 
    3980    308.74511   -8561.9676   -8527.5266    2580.9101    19250.474    6.1252513 
    3990     314.8012   -8562.9852   -8527.8686    2391.1712    19246.289    6.1449959 
    4000    316.98608   -8563.5996   -8528.2393    2008.1964    19249.499    6.1716425 
    4010    316.86881   -8563.9825   -8528.6353     1275.228     19258.58    6.2021841 
    4020    314.44983   -8564.1187   -8529.0414    276.62022    19271.113    6.2333251 
    4030    310.07865   -8564.0316   -8529.4419   -837.55446     19283.96    6.2649079 
    4040    306.12088   -8563.9749   -8529.8266   -1733.8895    19293.832    6.2977936 
    4050    308.20595    -8564.584   -8530.2031   -2262.7129    19298.126    6.3314181 
    4060    315.17955   -8565.7526   -8530.5939   -2490.4711    19295.381    6.3649871 
    4070    319.34213   -8566.6375   -8531.0144   -2125.1607    19285.293    6.3994162 
    4080    324.45559   -8567.6614   -8531.4679   -1446.8892    19269.181    6.4356948 
    4090    326.23142    -8568.343   -8531.9514   -933.93546    19249.239    6.4738316 
    4100    329.25475   -8569.1878    -8532.459   -695.95015    19227.177    6.5135932 
    4110    332.22741   -8570.0503   -8532.9898   -672.17645    19203.791    6.5545396 
    4120    330.28642   -8570.3713   -8533.5274   -500.84547    19179.334    6.5953511 
    4130    332.43342   -8571.1416   -8534.0582   -318.28449    19154.352     6.631798 
    4140    338.18137   -8572.3204   -8534.5957   -244.63622    19129.393    6.6585622 
    4150    346.04797   -8573.7763   -8535.1742   -285.72066    19104.681    6.6742422 
    4160     344.3891   -8574.2163   -8535.7991    -221.6248    19080.139    6.6823625 
    4170    339.82382   -8574.3467   -8536.4389   -283.41758    19055.881    6.6869217 
    4180    342.05711   -8575.2432   -8537.0863   -407.73604    19031.729    6.6886765 
    4190    339.25375   -8575.5788   -8537.7345   -124.41458    19007.449    6.6869802 
    4200    338.94238   -8576.1772   -8538.3677    523.04075    18983.876    6.6822947 
    4210    342.29626   -8577.1802   -8538.9966    1116.2779    18962.773    6.6764586 
    4220    339.51435    -8577.499   -8539.6257     1399.412    18945.738    6.6717356 
    4230    342.24454   -8578.4386   -8540.2607    1071.6924    18933.333    6.6707551 
    4240    344.34391   -8579.3244   -8540.9123    407.19511     18924.48    6.6763539 
    4250    342.25907   -8579.7498   -8541.5703   -160.15621    18917.194    6.6896653 
    4260     339.1184   -8580.0567   -8542.2275   -542.76672    18909.763    6.7085069 
    4270    334.72164   -8580.2111   -8542.8724   -684.12082    18901.087    6.7290545 
    4280    337.31859   -8581.1362   -8543.5078   -869.80772    18890.694    6.7500229 
    4290    343.94498    -8582.527   -8544.1594   -1069.4631    18878.132    6.7734699 
    4300     345.7255   -8583.4056   -8544.8394    -1186.053    18862.917    6.8014535 
    4310    346.31413   -8584.1749   -8545.5431   -838.54916    18844.925    6.8322221 
    4320    344.49121   -8584.6841   -8546.2556   -279.71247     18825.19    6.8638985 
    4330    338.49817   -8584.7146   -8546.9546    132.87226     18805.32    6.8963174 
    4340    335.05686   -8585.0043   -8547.6282   -25.183848    18786.395    6.9309702 
    4350    339.31265    -8586.147   -8548.2961   -662.35087    18767.953    6.9675421 
    4360    339.85634   -8586.8833   -8548.9718   -1211.2898    18748.303    7.0019391 
    4370    342.03939   -8587.8091   -8549.6541   -1534.4242    18725.917     7.030073 
    4380    347.52792   -8589.1266   -8550.3594   -1488.8425    18700.017    7.0510086 
    4390     346.9406   -8589.7872   -8551.0855   -911.91458     18670.93    7.0663246 
    4400    350.30862   -8590.8928   -8551.8153   -313.71242    18640.298     7.078577 
    4410    361.70447   -8592.9217    -8552.573    302.83667    18609.958    7.0904677 
    4420     366.7206   -8594.2863   -8553.3781    921.09674    18581.644    7.1054386 
    4430     361.0874   -8594.4883   -8554.2084    1503.4891    18557.034     7.126934 
    4440     355.7619   -8594.7169   -8555.0312     1642.096    18537.512    7.1568454 
    4450    355.30125   -8595.4857   -8555.8513    1074.7853    18523.156    7.1942845 
    4460    348.11393   -8595.4905   -8556.6579    529.03315    18512.388    7.2357134 
    4470    346.80131   -8596.1252    -8557.439   -307.26964    18503.412    7.2770924 
    4480    352.69696   -8597.5647   -8558.2208   -1056.8238    18493.919    7.3155849 
    4490    360.94378   -8599.3015   -8559.0377   -1176.6363    18481.949    7.3516489 
    4500     359.8434   -8600.0388   -8559.8977   -840.41397      18467.2    7.3893977 
    4510    351.44142   -8599.9636   -8560.7598   -252.83205    18450.721    7.4324114 
    4520    354.18106    -8601.117   -8561.6076    15.081501    18434.068    7.4806463 
    4530    360.54203   -8602.6937   -8562.4747    75.553731    18418.046    7.5329625 
    4540    352.62068   -8602.6804   -8563.3451    331.93461    18402.931     7.589168 
    4550    340.85598   -8602.1956   -8564.1726     252.2436    18389.219    7.6492322 
    4560    337.48313   -8602.5862   -8564.9394   -306.12467    18376.597    7.7121116 
    4570    343.40824   -8603.9927    -8565.685   -884.95776    18363.604    7.7747761 
    4580    344.09001   -8604.8159   -8566.4321   -1110.8957    18348.772    7.8326753 
    4590    344.97937   -8605.6723   -8567.1894   -890.55434    18331.587    7.8809708 
    4600    352.97591   -8607.3348   -8567.9598    -525.6634    18312.684    7.9168023 
    4610    368.61295   -8609.9072   -8568.7878   -214.75134    18293.075    7.9399418 
    4620    359.88323   -8609.8109   -8569.6654    313.13478    18273.727    7.9538506 
    4630     347.5582   -8609.2945   -8570.5239    739.55594     18255.98    7.9637624 
    4640    348.84129   -8610.2734   -8571.3597    907.71424    18240.885    7.9740227 
    4650    346.53861     -8610.84   -8572.1831    780.78807    18228.784    7.9873671 
    4660    344.37631   -8611.4101   -8572.9945    433.39769    18219.233    8.0035989 
    4670    335.89838   -8611.2526   -8573.7827    290.94371    18211.304    8.0219242 
    4680    329.85007   -8611.3214   -8574.5261     323.0125    18204.507     8.042876 
    4690    340.24714     -8613.21   -8575.2549    196.66715    18198.794    8.0686174 
    4700    353.35895    -8615.441   -8576.0232    84.208543    18193.816    8.1012674 
    4710    354.23429   -8616.3564    -8576.841    462.97721    18189.357    8.1417965 
    4720    347.79856   -8616.4761   -8577.6786    1203.2447     18186.41    8.1906576 
    4730    342.84219   -8616.7536   -8578.5091    1618.1991    18186.762    8.2485211 
    4740    342.19133   -8617.5071   -8579.3352    1582.9589    18191.411    8.3162837 
    4750    340.88401   -8618.1776   -8580.1515    1331.8921    18200.159    8.3941555 
    4760    340.99359   -8618.9959   -8580.9575     799.7985    18212.192    8.4825023 
    4770    348.12828   -8620.6104   -8581.7762   -170.78534    18225.897    8.5807432 
    4780    352.10108   -8621.9201   -8582.6427   -929.97409    18238.701    8.6846793 
    4790    344.94571   -8622.0227   -8583.5435   -1198.2188    18248.633    8.7924036 
    4800    338.56443   -8622.1953    -8584.428   -1563.2063    18254.897    8.9043611 
    4810    335.39654   -8622.6954   -8585.2814   -1875.4932     18256.65    9.0185872 
    4820    325.59264   -8622.4025   -8586.0822   -2008.2779     18253.27    9.1340861 
    4830    322.42761   -8622.7985   -8586.8312    -2584.856     18244.42    9.2506798 
    4840    323.96425     -8623.68   -8587.5413   -3114.3293    18228.932    9.3651348 
    4850    333.11121   -8625.4026   -8588.2436    -3210.199    18205.776    9.4689968 
    4860    342.81176   -8627.2116   -8588.9705   -2336.6194      18175.3    9.5524587 
    4870    338.09702    -8627.425   -8589.7098   -716.59155    18140.265    9.6134964 
    4880    324.54909   -8626.6011   -8590.3971    1140.3232    18105.232    9.6583404 
    4890    332.25015   -8628.0935   -8591.0305    2299.5432    18075.011    9.6946032 
    4900     357.7201   -8631.6229   -8591.7187    2393.3325    18052.304    9.7242136 
    4910    363.22535    -8633.045   -8592.5267    2463.2293    18037.161    9.7444966 
    4920    352.42679   -8632.7081   -8593.3943     2386.296    18029.346    9.7547217 
    4930    355.84338   -8633.9798    -8594.285    1680.0304    18028.126    9.7582939 
    4940    362.85323    -8635.681   -8595.2041    1001.0457    18031.422    9.7593064 
    4950     361.9904   -8636.5241   -8596.1436    518.73823    18037.227    9.7611879 
    4960    351.86171   -8636.3162   -8597.0655    229.19236    18044.168    9.7664823 
    4970    349.86163   -8636.9852   -8597.9576   -183.20894    18051.336    9.7749132 
    4980    344.46029   -8637.2539   -8598.8289    -279.4784    18057.752    9.7862342 
    4990    337.37242    -8637.304   -8599.6696   -171.62662    18063.161    9.8015681 
    5000    329.93417    -8637.285   -8600.4803   -134.11513     18067.82     9.821642 
Loop time of 1955.4 on 16 procs for 3000 steps with 864 atoms

Performance: 0.133 ns/day, 181.055 hours/ns, 1.534 timesteps/s
96.0% CPU use with 16 MPI tasks x 1 OpenMP threads

MPI task timing breakdown:
Section |  min time  |  avg time  |  max time  |%varavg| %total
---------------------------------------------------------------
Pair    | 762.25     | 1225       | 1938.6     |1061.7 | 62.65
Bond    | 0.000211   | 0.00068542 | 0.0023873  |   0.0 |  0.00
Neigh   | 0.026733   | 0.047616   | 0.083856   |   8.5 |  0.00
Comm    | 1.4221     | 508.87     | 1062.8     |1288.6 | 26.02
Output  | 0.19592    | 0.20048    | 0.26774    |   3.9 |  0.01
Modify  | 1.1283     | 221.29     | 731.16     |1549.1 | 11.32
Other   |            | 0.01402    |            |       |  0.00

Nlocal:        54.0000 ave          81 max          34 min
Histogram: 3 3 2 1 1 1 0 1 2 2
Nghost:        533.750 ave         697 max         377 min
Histogram: 2 2 0 2 2 2 0 4 0 2
Neighs:         0.00000 ave           0 max           0 min
Histogram: 16 0 0 0 0 0 0 0 0 0
FullNghs:      2752.62 ave        5394 max        1153 min
Histogram: 5 2 2 1 0 1 1 0 2 2

Total # of neighbors = 44042
Ave neighs/atom = 50.974537
Ave special neighs/atom = 0.0000000
Neighbor list builds = 300
Dangerous builds = 300
Setting up Verlet run ...
  Unit style    : metal
  Current step  : 5000
  Time step     : 0.001
Per MPI rank memory allocation (min/avg/max) = 8.899 | 8.910 | 8.924 Mbytes
Step Temp PotEng TotEng Press Volume c_msd[4] 
    5000    329.93417    -8637.285   -8600.4803   -134.11513     18067.82     9.821642 
    5010    327.30377   -8637.0281   -8600.5169    171.73283    18067.807    9.8551035 
    5020    337.17261   -8638.2448   -8600.6326    99.532665    18068.148    9.8916698 
    5030    347.09722   -8639.5689   -8600.8497    92.370074    18068.772     9.926943 
    5040    345.05868   -8639.6744   -8601.1825    368.04768    18069.745    9.9578788 
    5050    342.92732   -8639.8692   -8601.6151    566.88204    18071.713    9.9845692 
    5060    335.60248   -8639.5382   -8602.1012    834.22295    18075.286    10.007122 
    5070    340.76333   -8640.6051   -8602.5924    445.10334    18080.975    10.022824 
    5080    351.00396   -8642.2218   -8603.0667   -222.87044    18087.815    10.028387 
    5090    348.38487   -8642.3697   -8603.5068    -484.3898    18094.169    10.023473 
    5100    348.37825   -8642.7684   -8603.9063   -899.31279    18099.155     10.01245 
    5110    353.87805   -8643.7715   -8604.2959   -1398.5409    18101.664    10.002289 
    5120    347.79867   -8643.5051   -8604.7076   -1812.4369    18100.389    9.9987772 
    5130    340.06432   -8643.0822   -8605.1475   -2285.1093    18094.116    10.002674 
    5140    338.95458    -8643.433   -8605.6221   -2313.4319    18081.726    10.011752 
    5150    335.84435   -8643.5906   -8606.1267   -1849.1701    18063.136     10.02335 
    5160    336.87364   -8644.2144   -8606.6357   -936.34035    18039.652    10.035941 
    5170    348.46383   -8646.0278   -8607.1561    -66.47477    18013.657    10.052467 
    5180    353.32391   -8647.1184   -8607.7046    908.66131    17987.609    10.076076 
    5190    339.86967   -8646.1611   -8608.2482    1959.0288     17964.17    10.107675 
    5200    325.30286   -8645.0298   -8608.7418    2676.8704    17946.075    10.146382 
    5210    329.91951   -8646.0045   -8609.2015    2707.7475    17935.122    10.187802 
    5220    335.19943    -8647.061    -8609.669    2385.4527    17931.451    10.225334 
    5230    338.98873   -8647.9835   -8610.1688    1974.5641    17934.197     10.25479 
    5240    340.60359    -8648.705   -8610.7102    1414.4525    17942.214    10.276309 
    5250    326.84922   -8647.7183   -8611.2578    915.17164    17954.068    10.289954 
    5260    322.33824   -8647.7285   -8611.7712   -103.65328    17968.207    10.296097 
    5270    327.65899   -8648.8115   -8612.2606    -1244.572    17982.004    10.294613 
    5280    331.83086   -8649.7623   -8612.7461    -1819.811    17992.544    10.283385 
    5290    338.92541    -8651.064   -8613.2564   -1868.4284    17998.233    10.263317 
    5300    323.14303    -8649.814   -8613.7669   -1006.9857    17999.083    10.239155 
    5310    317.43071   -8649.6489    -8614.239   -154.20646    17997.201    10.215465 
    5320    333.22269   -8651.8801   -8614.7086   -354.21427    17994.654    10.193486 
    5330    335.62515   -8652.6531   -8615.2136   -400.93903    17991.226    10.172826 
    5340    329.49413   -8652.4904   -8615.7348    18.927366    17986.856    10.154097 
    5350    340.46261   -8654.2565   -8616.2774    92.709959    17982.458    10.140579 
    5360    340.92943   -8654.8883   -8616.8571    29.545441    17978.276    10.137768 
    5370    323.08852   -8653.4656   -8617.4246    473.09685    17974.313     10.14793 
    5380    320.00917    -8653.641   -8617.9435    610.72704    17971.558    10.169811 
    5390     321.4486   -8654.2949   -8618.4368    382.68858    17970.406    10.200412 
    5400    308.56033   -8653.3185   -8618.8981    43.327942    17970.301    10.237763 
    5410    312.90048   -8654.2459   -8619.3414   -721.41315    17970.185    10.282111 
    5420      317.587    -8655.219   -8619.7917   -716.48468    17968.312    10.335928 
    5430    321.25586    -8656.082   -8620.2454    11.210022    17964.697    10.403926 
    5440     330.9491   -8657.6259    -8620.708    618.98832    17961.142    10.485634 
    5450    331.80687   -8658.2058   -8621.1923    620.95554      17959.1    10.574063 
    5460    326.92949   -8658.1568   -8621.6874    357.78434     17958.68    10.661288 
    5470    326.46557   -8658.6122   -8622.1944     233.9515    17959.262    10.743853 
    5480    319.65095    -8658.363   -8622.7054    311.30806      17960.5    10.825433 
    5490    316.73231   -8658.5268   -8623.1948    595.87609    17962.634    10.908522 
    5500    320.25429    -8659.383   -8623.6581     782.8868    17966.347     10.99246 
    5510    320.63125   -8659.8776   -8624.1107    752.05019    17972.078    11.076802 
    5520     312.4217   -8659.3949   -8624.5438    795.06638    17979.834    11.160563 
    5530    320.00811   -8660.6696   -8624.9722    171.98952    17989.487    11.242529 
    5540     324.1081   -8661.5692   -8625.4145   -919.45586    17999.393      11.3168 
    5550    319.66912    -8661.523   -8625.8634   -1688.5118    18006.779    11.379331 
    5560    326.86911   -8662.7827     -8626.32   -1907.6091    18009.653     11.42876 
    5570    331.89951   -8663.8312   -8626.8073   -1624.6781     18007.45    11.466639 
    5580    320.93313   -8663.1052   -8627.3046   -853.36711    18000.988    11.497107 
    5590    318.81702   -8663.3545     -8627.79   -10.395331    17992.297    11.521776 
    5600     319.2193   -8663.8723   -8628.2629    506.49848    17983.607    11.538873 
    5610    321.28116   -8664.5705   -8628.7311     721.5426    17976.269    11.547008 
    5620    320.42395   -8664.9405   -8629.1967    1359.6534    17971.056    11.547954 
    5630    320.12454   -8665.3671   -8629.6567    1847.0927    17969.529    11.547065 
    5640    330.52426   -8667.0063   -8630.1358    1505.2086    17972.787    11.550764 
    5650    328.77474   -8667.3205   -8630.6451    881.89334    17980.038      11.5629 
    5660      315.565   -8666.3482   -8631.1464   -158.24113    17989.517    11.583777 
    5670    320.14671   -8667.3348   -8631.6219   -1663.5202    17998.397    11.608132 
    5680     325.5237   -8668.4153   -8632.1026   -2603.0839    18002.843    11.629659 
    5690    319.01782   -8668.1763   -8632.5894   -2148.4528    18000.553    11.647463 
    5700    324.03937   -8669.2299   -8633.0828   -1255.5765    17992.568    11.666684 
    5710    323.97506    -8669.725   -8633.5851    -437.0649     17981.25    11.693921 
    5720    319.67122   -8669.7386   -8634.0788     368.5967     17968.89    11.730435 
    5730    318.20943   -8670.0443   -8634.5476    717.35817    17957.534    11.771417 
    5740    321.96486   -8670.9194   -8635.0038    738.02276    17948.139    11.810584 
    5750    324.15756   -8671.6218   -8635.4615    875.04472     17940.88    11.845048 
    5760    329.09129   -8672.6493   -8635.9387    879.93458    17936.034    11.870674 
    5770    327.75293   -8673.0075   -8636.4462    912.94818    17933.636    11.883271 
    5780    321.78474   -8672.8547   -8636.9591    760.12462    17933.665     11.88577 
    5790    325.90438   -8673.8298   -8637.4747    259.15724    17935.626    11.883771 
    5800    322.86298   -8674.0088   -8637.9929   -79.258989    17938.282    11.875911 
    5810    320.85398   -8674.2984   -8638.5067   -516.32368    17940.665    11.855207 
    5820    323.58412   -8675.1245   -8639.0282   -1115.5777    17941.597    11.816906 
    5830    322.77021   -8675.5643   -8639.5588   -1399.7179    17939.594    11.761721 
    5840    318.69273   -8675.6366    -8640.086   -1168.0407    17933.978    11.692095 
    5850    314.72144    -8675.699   -8640.5913   -742.52853    17925.331    11.609936 
    5860    313.66467   -8676.0632   -8641.0734   -225.51455     17914.86    11.521088 
    5870    312.91726   -8676.4482   -8641.5418     246.3779    17903.938    11.431323 
    5880    311.59561   -8676.7477   -8641.9887    482.98438    17893.767    11.341514 
    5890    319.29205   -8678.0303   -8642.4128    546.02388    17885.014    11.253507 
    5900    320.01589   -8678.5097   -8642.8114    682.13826     17877.88    11.173951 
    5910    328.58483   -8679.8519   -8643.1977    701.45162    17872.628    11.114197 
    5920    331.91717   -8680.6479    -8643.622    491.24913    17869.253    11.081697 
    5930    322.62421   -8680.0865   -8644.0973    344.24111     17867.25    11.076619 
    5940    318.19645   -8680.1035   -8644.6082    278.32803    17866.231    11.095351 
    5950    309.49265   -8679.6347   -8645.1103    171.14101    17865.971    11.131242 
    5960    311.76288   -8680.3475   -8645.5699   -158.14848    17866.141    11.175458 
    5970    319.40467   -8681.6291    -8645.999   -624.29809    17865.886    11.220414 
    5980    324.08527   -8682.5843   -8646.4321   -1159.9437     17863.98    11.261535 
    5990     323.2124   -8682.9422   -8646.8874   -1690.0975    17859.035    11.293574 
    6000    319.75996    -8683.032   -8647.3623   -1895.2354    17849.803     11.31064 
    6010    325.35132   -8684.1486   -8647.8552   -2062.6685    17835.744    11.309911 
    6020    334.15556   -8685.6635   -8648.3879   -1888.0449    17816.599    11.292743 
    6030    328.94575    -8685.634   -8648.9396   -1072.9355    17793.022     11.26557 
    6040    329.56257   -8686.2467   -8649.4835    49.427264     17767.17    11.235691 
    6050    323.99697   -8686.1453    -8650.003    1367.6888    17742.037    11.208578 
    6060    320.13751   -8686.2056   -8650.4938    2460.8088    17720.982     11.18641 
    6070    317.56021    -8686.402   -8650.9776    2823.9242    17706.627    11.168855 
    6080    315.37947   -8686.6367   -8651.4557     2130.713    17699.639    11.154801 
    6090    322.58768   -8687.9218   -8651.9367     1091.597    17698.259    11.142677 
    6100     330.6542   -8689.3171   -8652.4321    520.12693    17699.862    11.131297 
    6110    330.68971   -8689.8464   -8652.9574    482.91802    17702.876    11.121424 
    6120    313.94514   -8688.4957   -8653.4747    906.15791    17707.196    11.115826 
    6130    311.55217   -8688.7111    -8653.957    812.80262    17713.635    11.116893 
    6140    315.64123    -8689.624   -8654.4138    337.17814    17721.988    11.125788 
    6150     309.5146   -8689.3733   -8654.8465   -237.28108    17731.068    11.140787 
    6160    315.96283    -8690.506   -8655.2599   -1175.0604    17739.239    11.158698 
    6170     321.5321   -8691.5514    -8655.684   -1580.3988    17744.306    11.178204 
    6180    316.91764   -8691.4809   -8656.1282   -1173.5472    17745.349      11.2017 
    6190    313.54013   -8691.5543   -8656.5784   -607.22639     17743.34    11.232866 
    6200    322.59818   -8693.0284   -8657.0421   -230.19521    17739.748    11.270781 
    6210    327.18997   -8694.0427   -8657.5442    86.018211    17735.624     11.31224 
    6220     317.6926   -8693.5063   -8658.0672    501.37392    17731.833    11.355286 
    6230      314.384   -8693.6427   -8658.5727    683.46426    17729.371    11.400134 
    6240    314.81664   -8694.1691   -8659.0509    739.59311    17728.711    11.447915 
    6250    305.56207   -8693.5738   -8659.4879    942.30799    17730.036    11.500753 
    6260    305.50551   -8693.9634   -8659.8838    877.68955    17733.705    11.561388 
    6270    297.45778   -8693.4225   -8660.2406    807.74058    17739.596    11.628527 
    6280    288.87204   -8692.7748   -8660.5507    558.73875    17747.402    11.697396 
    6290    288.22193   -8692.9742   -8660.8226   0.98452176    17756.386     11.76503 
    6300     294.7648   -8693.9484   -8661.0669   -865.93631    17765.112    11.830421 
    6310    308.17556   -8695.6853   -8661.3078   -1623.4773    17771.412    11.892682 
    6320     317.3133    -8696.973   -8661.5763   -1530.4316    17773.528    11.950973 
    6330    319.57417   -8697.5335   -8661.8846   -643.91095    17771.795    12.005049 
    6340    318.79661   -8697.7914   -8662.2292    197.63123     17768.39    12.058253 
    6350    315.14083   -8697.7469   -8662.5924    568.99237    17765.504    12.114959 
    6360    315.39769   -8698.1535   -8662.9704    446.29582    17764.013    12.175044 
    6370    316.16009   -8698.6244   -8663.3562    658.15869    17763.774    12.233587 
    6380    315.16668   -8698.9077   -8663.7504    1081.1795    17765.322     12.28352 
    6390    314.61488   -8699.2523   -8664.1566    1324.1482    17769.641      12.3202 
    6400    311.79789   -8699.3463   -8664.5648    1319.3912      17777.3    12.343811 
    6410     313.6136    -8699.954   -8664.9699    1266.6357    17788.262    12.361449 
    6420    314.42185   -8700.4481   -8665.3739    1246.2982    17802.325    12.381218 
    6430     312.7277   -8700.6631   -8665.7778    819.68509    17819.247    12.408194 
    6440    317.66045   -8701.6104   -8666.1749   -269.63918    17837.817    12.443098 
    6450    326.88556   -8703.0441   -8666.5795   -1567.8814    17855.279    12.479708 
    6460    327.67945   -8703.5614   -8667.0083   -2666.4691    17868.285    12.510793 
    6470    330.01122   -8704.2948   -8667.4816   -3630.2622    17873.983    12.530441 
    6480    321.59802   -8703.8659   -8667.9912   -3804.0656     17870.14    12.532912 
    6490    319.34365   -8704.1344   -8668.5111   -3012.0414    17856.545    12.514351 
    6500    325.23148   -8705.3085   -8669.0285   -1541.6193    17835.445    12.476975 
    6510    326.83822   -8705.9941   -8669.5348    250.68236    17810.792    12.427459 
    6520    326.01396   -8706.4008   -8670.0334    1762.6692    17787.238    12.372141 
    6530    330.32314   -8707.3933   -8670.5453    2417.7669    17768.566    12.313473 
    6540     337.8493   -8708.7721   -8671.0845    2379.2975     17756.46    12.254239 
    6550    344.20714   -8710.0528    -8671.656    1801.9173    17750.682    12.201375 
    6560    337.59666   -8709.9007   -8672.2413    1341.4833     17749.79    12.162995 
    6570    328.25162   -8709.4245   -8672.8075    649.16759    17752.376    12.141721 
    6580    320.68483   -8709.1065   -8673.3336   -218.20608     17756.61    12.132659 
    6590     322.7787    -8709.837   -8673.8305   -1125.7718    17760.167    12.129113 
    6600     328.0984   -8710.9287   -8674.3288   -1249.7186    17760.892    12.129179 
    6610    327.42438   -8711.3689   -8674.8442   -416.75509    17758.551    12.136306 
    6620    322.04683   -8711.2854   -8675.3606    610.91773    17755.213    12.153755 
    6630    316.95725   -8711.2195   -8675.8625    897.68439    17753.346    12.179358 
    6640    317.47595    -8711.759   -8676.3441    264.58965    17753.673    12.207153 
    6650    316.81197   -8712.1521   -8676.8113   -761.62855    17754.609    12.234924 
    6660    316.10992   -8712.5378   -8677.2752   -1196.9766    17753.664    12.263194 
    6670    304.71482   -8711.7103   -8677.7189   -863.07502      17749.8    12.289231 
    6680    309.11302   -8712.6199   -8678.1379   -837.49374    17743.651    12.309645 
    6690    316.03528   -8713.8104   -8678.5562   -1067.0155     17735.36    12.327498 
    6700    304.19009   -8712.8957   -8678.9628   -940.57353    17724.488    12.345221 
    6710    301.49369    -8712.967   -8679.3349   -733.81921    17711.311    12.358668 
    6720    307.61138   -8714.0065   -8679.6919   -315.12166    17696.443     12.36315 
    6730    297.88036   -8713.2543   -8680.0253    649.06447    17681.124    12.357639 
    6740    298.19006   -8713.5903   -8680.3267     1254.585    17667.591    12.347734 
    6750    309.96202   -8715.2002   -8680.6234    1679.2002    17657.443    12.342291 
    6760    308.80296   -8715.3788   -8680.9313    2117.9098    17651.762     12.34579 
    6770    306.71726   -8715.4627    -8681.248    1912.2914    17651.485    12.357118 
    6780    306.72583   -8715.7897    -8681.574    1086.9626    17656.022    12.372284 
    6790    294.05519   -8714.6921   -8681.8898    588.59433    17663.433    12.388843 
    6800    282.64386    -8713.694   -8682.1646    134.53165    17672.297     12.40541 
    6810    287.06372   -8714.4115   -8682.3891     -368.419    17681.423    12.418778 
    6820    294.73136   -8715.4601   -8682.5824    -552.3011    17689.642    12.428823 
    6830    294.30197    -8715.587   -8682.7572   -442.48291    17696.452    12.438076 
    6840    298.21607   -8716.1872   -8682.9208   -296.47733    17702.087    12.447567 
    6850    300.51831    -8716.607   -8683.0838   -105.95246    17706.918    12.460828 
    6860     287.4532   -8715.3042   -8683.2383    317.37425    17711.513     12.48204 
    6870    287.27793   -8715.4138   -8683.3675   -104.92264    17716.676    12.514098 
    6880    299.35474   -8716.8698   -8683.4763   -1199.5784    17721.377    12.554531 
    6890    302.93949   -8717.3772   -8683.5839    -2230.825    17722.907    12.593983 
    6900    301.49498   -8717.3393   -8683.7071   -2688.1166    17718.733    12.621615 
    6910    296.58894   -8716.9295   -8683.8446   -2438.2446    17707.687    12.635702 
    6920    296.43679   -8717.0438   -8683.9758   -1304.1521    17690.539    12.641025 
    6930    298.83339   -8717.4219   -8684.0866   -137.79155    17670.034    12.642304 
    6940    296.18653   -8717.2086   -8684.1686    1264.5031    17649.357    12.643648 
    6950    291.77764   -8716.7736   -8684.2253    2313.8951    17631.994    12.647103 
    6960    291.06636   -8716.7365   -8684.2676    2820.6341    17620.631    12.652964 
    6970    299.54888   -8717.7313   -8684.3162      2911.08    17616.559      12.6623 
    6980    295.17727   -8717.3054   -8684.3779    2987.9394    17620.091    12.672842 
    6990     290.7478   -8716.8844    -8684.451    2597.4027    17631.264    12.679635 
    7000    282.59577   -8716.0277   -8684.5037    1714.5734    17649.071    12.680303 
    7010    292.42171   -8717.1366   -8684.5165     107.5584    17671.077    12.675588 
    7020    304.42557   -8718.4524   -8684.4933   -1135.9751    17693.374    12.663842 
    7030    301.93922   -8718.1416   -8684.4598   -1578.4544     17712.81    12.643968 
    7040    303.60899   -8718.2933   -8684.4253   -2089.6942    17727.972    12.617779 
    7050    313.85438   -8719.4034   -8684.3925   -2688.0074    17737.554    12.586372 
    7060    312.81653   -8719.2819   -8684.3867   -2602.9284    17740.173    12.551692 
    7070    301.36249   -8718.0297   -8684.4122   -1648.8221    17736.165    12.518296 
    7080    298.89127   -8717.7944   -8684.4526   -829.36968    17727.812     12.49117 
    7090    295.56317   -8717.4666   -8684.4961   -179.21515    17717.328    12.474256 
    7100    298.12747   -8717.7959   -8684.5393    318.82639    17706.436    12.470928 
    7110    305.01103   -8718.6061   -8684.5817    863.79968    17696.471    12.482131 
    7120     307.0913   -8718.8901   -8684.6336    1283.5487    17688.789    12.505308 
    7130    300.29377   -8718.1952    -8684.697    1654.7718    17684.495    12.535841 
    7140    298.76596   -8718.0913   -8684.7635    2020.9691    17684.551    12.572015 
    7150    306.18446   -8718.9915   -8684.8362    1670.4455    17689.743    12.615417 
    7160    307.96292   -8719.2767   -8684.9229    751.15851    17699.133    12.664629 
    7170    301.57486   -8718.6626   -8685.0215    172.05335    17710.554    12.715166 
    7180    299.04206   -8718.4793   -8685.1207   -365.98773    17722.364    12.763871 
    7190    299.17976   -8718.5907   -8685.2167   -857.60856    17733.141    12.811825 
    7200    304.94693   -8719.3303   -8685.3131   -964.22591     17741.74     12.86289 
    7210    318.06627   -8720.9121   -8685.4314    -739.5402     17747.82     12.91742 
    7220    311.82845   -8720.3698   -8685.5848    224.95311    17752.119    12.971762 
    7230    305.62941   -8719.8578   -8685.7644    1151.6159    17756.996    13.024294 
    7240    310.11852   -8720.5612    -8685.967    1320.9439    17764.733    13.077076 
    7250    308.30396   -8720.5882   -8686.1964    786.39345    17775.779    13.133931 
    7260    298.75499   -8719.7537   -8686.4271   -189.19557    17788.775    13.198986 
    7270    295.04291    -8719.548   -8686.6355   -1420.9344    17801.173    13.270743 
    7280    295.11298   -8719.7332   -8686.8129    -2365.128    17809.831    13.339222 
    7290    303.02754   -8720.7874   -8686.9842   -2598.9415    17812.383    13.391988 
    7300    309.04373   -8721.6484   -8687.1741   -2176.1625    17808.176     13.42304 
    7310    309.59607   -8721.9264   -8687.3905    -1552.215    17798.242    13.434603 
    7320    305.39562   -8721.6862   -8687.6188   -526.02612    17784.374     13.43182 
    7330    311.26253   -8722.5713   -8687.8495    635.87613    17769.197    13.424709 
    7340    310.85101   -8722.7656   -8688.0897     2181.737    17755.856    13.424768 
    7350    298.57875   -8721.6387   -8688.3318    3727.2837      17748.3    13.441757 
    7360    299.88534   -8722.0255   -8688.5728    3864.2831    17750.247    13.477783 
    7370     308.0251   -8723.1827    -8688.822    2759.9846    17762.129    13.525208 
    7380    306.53498   -8723.2696   -8689.0752    1380.1926    17781.232    13.575086 
    7390    300.44657   -8722.8336   -8689.3183   -12.742903    17803.941     13.62056 
    7400    288.27397   -8721.6812   -8689.5238   -1029.2098    17826.672    13.655265 
    7410    292.88821   -8722.3618   -8689.6897   -1832.3082    17846.658    13.677006 
    7420    305.09235   -8723.8732   -8689.8397   -2377.7782    17861.788    13.687189 
    7430    303.45953    -8723.849   -8689.9977   -2569.3082    17870.593    13.687011 
    7440    297.20104   -8723.3159   -8690.1627   -2235.8833     17872.63    13.676595 
    7450    299.15358   -8723.6919   -8690.3209   -1801.4732    17868.703    13.657614 
    7460    310.46305   -8725.1217   -8690.4891   -1126.0764    17860.034    13.635346 
    7470    299.90786   -8724.1207   -8690.6656   -19.257707    17848.495    13.614523 
    7480    287.92014   -8722.9415   -8690.8236    879.24316    17836.897    13.596589 
    7490    290.73775   -8723.3856   -8690.9533    1247.3317    17827.553    13.581658 
    7500    291.70004   -8723.5977   -8691.0582    1388.9861      17821.5    13.571125 
    7510    301.29707   -8724.7677   -8691.1576    1571.5917    17819.171    13.568833 
    7520    294.18824   -8724.0743   -8691.2571    1594.3241    17820.998    13.579422 
    7530    294.34338    -8724.184   -8691.3496    1232.4652    17827.006      13.6061 
    7540    302.38318   -8725.1671   -8691.4358    487.76305    17836.198    13.648189 
    7550    289.82376    -8723.843   -8691.5127   -153.43375    17846.762    13.698017 
    7560    289.84785   -8723.9011   -8691.5681   -1249.6548    17856.806    13.747605 
    7570    302.07091   -8725.3031   -8691.6067   -2223.3419    17863.559    13.790289 
    7580    298.47155   -8724.9409    -8691.646   -2093.7212     17864.64    13.818532 
    7590    300.78321   -8725.2418    -8691.689   -1388.4864    17860.264    13.831825 
    7600    310.20184   -8726.3369   -8691.7335   -779.25026    17852.153    13.835765 
    7610     317.6528   -8727.2369   -8691.8023    354.36136    17842.085    13.835916 
    7620    308.24855   -8726.2884   -8691.9028    2005.9543    17833.105     13.83698 
    7630    303.25686   -8725.8584   -8692.0296    2726.9534    17829.258    13.843737 
    7640    309.74094   -8726.7437   -8692.1916     2007.764    17832.324    13.854175 
    7650    300.47138   -8725.8877   -8692.3697    941.20183    17840.682    13.862058 
    7660    301.94065   -8726.2338   -8692.5518    103.89706    17851.653    13.863692 
    7670    297.80087   -8725.9468   -8692.7267   -362.54494    17863.017    13.858277 
    7680    300.96427   -8726.4672   -8692.8941   -655.41301    17873.462    13.847444 
    7690    305.03375   -8727.0898   -8693.0628   -924.56767    17882.188    13.836041 
    7700     300.8044   -8726.7905   -8693.2353   -1330.0062    17888.431    13.827167 
    7710    301.57953   -8727.0507   -8693.4091   -1527.0911    17891.193    13.820329 
    7720     307.8804    -8727.934   -8693.5895   -1319.6142    17889.939    13.815089 
    7730    308.42054   -8728.1882   -8693.7834   -879.72227    17885.173    13.810818 
    7740    306.46098   -8728.1764   -8693.9903   -391.75483    17878.068     13.80996 
    7750    297.07638   -8727.3315   -8694.1922    398.79429    17869.965    13.817645 
    7760    293.23407   -8727.0801   -8694.3694     1073.762    17862.883     13.83807 
    7770    301.41205    -8728.152   -8694.5291    782.79931    17858.406    13.870704 
    7780    296.66667   -8727.7715   -8694.6779    413.10216    17856.022    13.909021 
    7790    294.36155   -8727.6446   -8694.8081    275.11901    17854.811     13.94774 
    7800    305.78102    -8729.039   -8694.9287    174.05057    17854.289    13.987443 
    7810    300.08141   -8728.5189   -8695.0444    547.56493    17854.343    14.029594 
    7820    292.89982    -8727.824   -8695.1506    774.90418    17855.794    14.071481 
    7830    294.04183   -8728.0345   -8695.2337    641.57941    17859.256    14.108244 
    7840    299.53791   -8728.7146   -8695.3007    373.91266    17864.457     14.14003 
    7850    297.40814   -8728.5366   -8695.3602      399.018    17870.791    14.172285 
    7860    293.10618    -8728.104   -8695.4075    80.620461    17878.137    14.206679 
    7870    305.75992   -8729.5537   -8695.4457    -728.9048    17885.619     14.23902 
    7880    313.85526   -8730.5086   -8695.4975   -1503.1702    17891.192    14.263912 
    7890    305.69351   -8729.6808   -8695.5802   -1928.1372     17892.81    14.274188 
    7900    301.97036   -8729.3699   -8695.6846     -1668.66    17889.428    14.261966 
    7910    300.08797   -8729.2674   -8695.7922   -950.80311    17881.651    14.229626 
    7920    295.98641   -8728.9021   -8695.8843    -93.61178    17871.318    14.191338 
    7930    308.70249   -8730.4053    -8695.969    874.88292    17860.722    14.163429 
    7940     315.9353   -8731.3207   -8696.0777    1964.0205     17852.47    14.156113 
    7950    305.23585   -8730.2712   -8696.2217    2514.4799    17849.314    14.169101 
    7960     305.0847    -8730.423   -8696.3904    1714.6449    17852.531    14.195473 
    7970    314.27197   -8731.6303   -8696.5728    208.17639    17860.199    14.228386 
    7980    309.35319   -8731.2829    -8696.774   -820.96862    17868.593    14.265343 
    7990    292.20914   -8729.5763   -8696.9799   -1388.9395    17874.931    14.305309 
    8000    287.90457   -8729.2824   -8697.1663   -1991.0964    17877.579    14.345737 
    8010     291.5344   -8729.8482   -8697.3271   -2514.9972    17874.897    14.382568 
    8020    302.67981   -8731.2385   -8697.4741    -2358.068    17865.589    14.410948 
    8030    311.77098   -8732.3996   -8697.6211   -1197.0362    17850.152    14.425476 
    8040    305.87489   -8731.8834   -8697.7626    376.37045    17831.508    14.424489 
    8050    305.25546    -8731.941   -8697.8893     1685.267    17813.694    14.414064 
    8060     306.3375   -8732.1784    -8698.006    2676.1968    17800.221    14.403216 
    8070    305.04345   -8732.1507   -8698.1226    3298.3579    17793.716     14.39764 
    8080    305.28897    -8732.305   -8698.2496    3275.5657    17795.791    14.398328 
    8090    299.51083   -8731.7902   -8698.3793    2959.1287     17806.58    14.404389 
    8100    298.55272   -8731.7982   -8698.4942     1820.031     17825.16    14.416291 
    8110    303.11302   -8732.3853   -8698.5726   -65.270448    17848.602    14.434228 
    8120    300.76638   -8732.1576   -8698.6066   -1763.3007    17872.163    14.457272 
    8130    293.46404   -8731.3484    -8698.612   -2956.9192    17891.292    14.482183 
    8140    293.63202   -8731.3647   -8698.6096   -3620.9328    17902.742    14.503707 
    8150    299.36479   -8732.0079   -8698.6133   -3810.1483     17904.63    14.518174 
    8160    308.19184   -8733.0219   -8698.6426   -3361.5178    17896.401    14.522964 
    8170    302.87555   -8732.4797   -8698.6935   -1883.0223    17879.339    14.517006 
    8180    297.15947   -8731.8802   -8698.7316    14.483118    17857.195    14.503531 
    8190    305.18332   -8732.7876   -8698.7439    1793.6134    17834.906    14.491153 
    8200    307.33742   -8733.0277   -8698.7437    3395.9154    17817.248    14.486573 
    8210    308.40482   -8733.1691    -8698.766    4108.8495    17808.346    14.492248 
    8220    313.02831   -8733.7535   -8698.8347    3556.3044     17810.05    14.510048 
    8230    316.77887   -8734.2858   -8698.9486    2132.0112    17821.071    14.540544 
    8240    314.98889    -8734.226   -8699.0885    86.383831    17837.707    14.581977 
    8250    314.20806   -8734.2934    -8699.243    -1623.018    17854.803     14.62652 
    8260    308.25477   -8733.8053    -8699.419   -2452.6341    17867.904     14.66064 
    8270    304.27107   -8733.5594   -8699.6175   -2957.9064    17874.586    14.672884 
    8280    303.87064   -8733.7276   -8699.8304   -2951.6211    17873.509    14.662247 
    8290    300.92664   -8733.6169   -8700.0481   -1854.8788    17864.724    14.638616 
    8300    296.05673   -8733.2657   -8700.2401    281.06341    17851.129    14.616494 
    8310    303.97608   -8734.3056   -8700.3966    2295.0746    17838.124    14.609463 
    8320    312.01018   -8735.3618   -8700.5566     3694.879    17831.017    14.627279 
    8330    305.24415   -8734.8018   -8700.7514    4327.5139    17833.573    14.677313 
    8340    298.35694   -8734.2582    -8700.976    3814.3241      17847.5    14.762689 
    8350    300.35815   -8734.7009   -8701.1955    2241.9432    17871.601    14.878853 
    8360    302.37181    -8735.103    -8701.373   -108.02942    17901.769    15.015042 
    8370    296.24397     -8734.53   -8701.4835   -2364.5246    17931.978    15.154319 
    8380    302.85618   -8735.3372   -8701.5531   -4076.8804    17956.175    15.280663 
    8390    301.05884    -8735.211   -8701.6274   -4468.9016    17969.777    15.385826 
    8400    293.57267   -8734.4677   -8701.7192   -3566.9717    17971.629    15.468592 
    8410    293.11843   -8734.5026   -8701.8048   -2073.4102     17963.96    15.533018 
    8420     289.8541   -8734.1812   -8701.8475   -277.14184    17950.727    15.585162 
    8430    299.78802   -8735.2929   -8701.8511    1404.8474    17936.659    15.631182 
    8440    302.74393   -8735.6139   -8701.8424    3319.7883    17926.428    15.677494 
    8450    311.44081   -8736.6087    -8701.867    4357.7935    17924.861    15.733714 
    8460    310.11987   -8736.5481   -8701.9537    4402.7262    17934.811    15.807073 
    8470    288.40741   -8734.2467   -8702.0745    3661.3334    17956.544    15.897445 
    8480    293.39072   -8734.9008   -8702.1726    1481.1532    17987.957    16.000633 
    8490    312.08143   -8737.0192   -8702.2061   -1633.3894    18023.334    16.109006 
    8500    319.60887   -8737.8638   -8702.2109   -4202.3733    18054.504    16.209832 
    8510    309.07432   -8736.7269   -8702.2492    -5139.633    18074.672    16.290751 
    8520    306.60622   -8736.5486   -8702.3462   -5055.2676    18081.009    16.344193 
    8530    304.68322   -8736.4823   -8702.4944   -3959.3624    18073.724    16.367638 
    8540    296.62579   -8735.7463   -8702.6573   -1649.8731    18055.939    16.362623 
    8550    290.87908   -8735.2337   -8702.7857    755.66026    18033.628    16.337722 
    8560     289.0127   -8735.1058    -8702.866     2631.815     18013.25    16.307218 
    8570    284.48619   -8734.6524   -8702.9176    3284.8524     17999.73    16.284974 
[...]
   22890    301.39934    -8788.743   -8755.1214    1057.8722    17749.619     21.58785 
   22900    317.11511   -8790.4518   -8755.0772    1221.3895    17741.394     21.58963 
   22910    327.54099   -8791.6106   -8755.0729    1069.6314    17736.324    21.611141 
   22920    315.43151   -8790.3258   -8755.1389    1000.5942    17734.092    21.646795 
   22930    291.13909   -8787.7239   -8755.2469     1245.706    17734.576    21.688095 
   22940      296.229   -8788.4034   -8755.3587     823.4523    17738.178     21.73362 
   22950    306.92707    -8789.705   -8755.4668    329.40499    17743.966    21.791793 
   22960    301.20299    -8789.167   -8755.5674    75.023761    17750.688    21.871486 
   22970    298.48941   -8788.9379    -8755.641   -277.55012    17757.591    21.964929 
   22980    293.47394   -8788.4222   -8755.6847   -448.07331    17763.783    22.046272 
   22990    291.06294   -8788.1949   -8755.7264   -730.88268    17768.715    22.091622 
   23000    294.76265   -8788.6689   -8755.7877   -990.00202    17771.738    22.090063 
   23010    293.99866   -8788.6554   -8755.8594   -911.38183    17772.238    22.046897 
   23020    297.93755   -8789.1612   -8755.9259   -550.77474    17770.378    21.978007 
   23030    297.20167   -8789.1316   -8755.9783    65.665553     17767.11    21.900344 
   23040    297.47863   -8789.2056   -8756.0214    696.55801    17764.016    21.825798 
   23050    296.12921   -8789.0869   -8756.0532    940.33875    17762.689    21.763948 
   23060    296.17755   -8789.1118   -8756.0727    555.83692    17763.684    21.722259 
   23070    295.61081   -8789.0564   -8756.0806    323.96222    17766.186    21.700169 
   23080    293.53224     -8788.82    -8756.076    324.24957    17769.613    21.694394 
   23090    303.43838   -8789.9162   -8756.0672   -234.48111    17773.754    21.702767 
   23100    300.71247    -8789.606   -8756.0611   -911.78107    17777.245    21.717564 
   23110    294.04357    -8788.861     -8756.06   -1122.4332    17778.421    21.726935 
   23120    295.66807   -8789.0369   -8756.0547   -692.65271    17776.768     21.72535 
   23130    296.16115   -8789.0783   -8756.0411    424.31135    17773.434     21.71521 
   23140    291.39522   -8788.5188   -8756.0132    1985.6036    17771.324    21.704211 
   23150    295.41523   -8788.9292   -8755.9751    3166.8644    17774.359    21.705246 
   23160    294.82039   -8788.8269   -8755.9393    3461.9525    17785.568    21.735936 
   23170    290.45767   -8788.3032   -8755.9022    2508.7451    17805.683    21.808128 
   23180    295.49533   -8788.7858   -8755.8228    511.58601    17832.231    21.915331 
   23190    300.98378   -8789.2446   -8755.6694   -1585.7756    17860.126    22.035842 
   23200    312.32026   -8790.3046   -8755.4648   -3450.1001    17883.807    22.149042 
   23210    320.69147   -8791.0429   -8755.2693   -4369.7612     17898.44     22.24257 
   23220    311.67341   -8789.9065   -8755.1389   -4060.1434    17901.618    22.311573 
   23230    307.04647   -8789.3097   -8755.0582   -3130.2957    17894.045    22.353752 
   23240    301.75435   -8788.6356   -8754.9745   -1653.1488    17878.286    22.366967 
   23250    302.31508   -8788.5912   -8754.8675   -101.56273    17858.243    22.358461 
   23260    312.35488   -8789.5897   -8754.7461    1084.7194    17837.936    22.344652 
   23270     307.3426   -8788.9134   -8754.6288    2562.2829    17820.712    22.339301 
   23280    305.66051   -8788.6285   -8754.5316     4077.883      17810.4     22.35093 
   23290    306.64029   -8788.6744   -8754.4682    4975.4842    17810.831     22.38594 
   23300    303.90944   -8788.3543   -8754.4527    4533.4811    17824.155    22.448443 
   23310    299.70446   -8787.8869   -8754.4544    2706.1988    17849.147    22.534386 
   23320    292.28273   -8787.0227   -8754.4181    241.48996    17881.112    22.631372 
   23330    295.89299   -8787.3215   -8754.3142    -2364.101    17913.528    22.726101 
   23340    304.43824   -8788.1246   -8754.1641   -4248.3355    17939.605     22.81007 
   23350    309.43512    -8788.549   -8754.0311   -4806.5685    17954.431    22.880628 
   23360    312.13713   -8788.7673   -8753.9479   -4124.6641    17956.497     22.93539 
   23370    308.08096   -8788.2611   -8753.8942   -2410.2723    17947.681    22.972981 
   23380     303.4298   -8787.6815   -8753.8335   -58.980699    17932.636    22.998687 
   23390    301.62784   -8787.3939   -8753.7469     2099.564    17917.513    23.023173 
   23400    305.51385   -8787.7334   -8753.6529    3616.5205    17908.024    23.055254 
   23410    312.24784   -8788.4164   -8753.5847     3952.825    17908.024    23.098732 
   23420    317.03711   -8788.9314   -8753.5654    3227.1004    17918.363     23.15376 
   23430    310.37481   -8788.2099   -8753.5872    2006.6175    17937.209     23.22359 
   23440    306.00594   -8787.7594    -8753.624    209.19459    17961.231    23.310404 
   23450    304.03687   -8787.5612   -8753.6454   -2173.0961     17985.51    23.405119 
   23460    311.33186   -8788.3958   -8753.6663   -4109.9588    18003.871    23.487648 
   23470    308.68972   -8788.1697   -8753.7349   -4211.8235    18011.439    23.542368 
   23480    301.05183   -8787.4437   -8753.8609   -2719.8188    18007.919    23.572477 
   23490     307.8888   -8788.3671   -8754.0217   -872.21407    17997.146    23.596902 
   23500    308.55082   -8788.6234   -8754.2041     737.3448    17984.045    23.630811 
   23510    310.66342   -8789.0638   -8754.4088     1757.036    17972.889     23.67703 
   23520    303.83358   -8788.5347   -8754.6416    2485.6077    17966.496    23.731502 
   23530    292.32266    -8787.492    -8754.883    2594.7196    17966.719    23.789818 
   23540    298.51817   -8788.4246   -8755.1244    1654.4146    17973.697    23.842793 
   23550    298.59117   -8788.6655   -8755.3572      493.782    17985.018    23.875597 
   23560    295.38418   -8788.5243   -8755.5738   -175.92377    17997.718    23.877558 
   23570    297.84292   -8789.0036   -8755.7788   -697.54945    18009.889     23.84812 
   23580    293.98129   -8788.7601   -8755.9661   -1499.3452    18019.994     23.79389 
   23590    289.41113   -8788.4081   -8756.1238   -2294.3851    18025.985    23.724251 
   23600    289.82944   -8788.5792   -8756.2483   -3063.5567    18025.698    23.646114 
   23610    301.56779   -8790.0031   -8756.3627   -3363.2774    18017.211    23.559651 
   23620    298.62051   -8789.7979   -8756.4863   -2665.7524    17999.955    23.459264 
   23630    287.92615   -8788.7166    -8756.598   -1248.1623    17975.866    23.342527 
   23640    291.18115   -8789.1526   -8756.6709    461.23507    17948.759    23.216759 
   23650    288.72134   -8788.9023    -8756.695    1939.9473    17923.163    23.099151 
   23660    293.68112   -8789.4479   -8756.6873    2586.5293    17902.851    23.005252 
   23670    297.31526    -8789.831    -8756.665    3181.1225    17889.702    22.941353 
   23680    290.61932   -8789.0511   -8756.6321    3605.6543    17885.181     22.91272 
   23690    298.01394   -8789.8426   -8756.5987    2982.8762    17890.054    22.924194 
   23700    299.12319   -8789.9344   -8756.5668    1624.4028    17902.646    22.971032 
   23710     295.1312   -8789.4538   -8756.5315   -55.313782    17919.367    23.042076 
   23720    289.74933    -8788.796   -8756.4741    -1573.544    17935.798    23.126106 
   23730    291.29161   -8788.8828   -8756.3888   -2576.7455    17947.919    23.208317 
   23740    296.98773   -8789.4139   -8756.2845   -2738.3352    17953.174    23.270231 
   23750    293.30947   -8788.8974   -8756.1783   -2144.1604    17951.166    23.300568 
   23760    293.62084   -8788.8246   -8756.0707   -975.49649     17943.59    23.299224 
   23770    305.32382   -8790.0105   -8755.9512    124.10848    17933.477    23.274992 
   23780    304.84493   -8789.8181   -8755.8122    1265.2724    17923.853    23.238894 
   23790    303.66271   -8789.5229   -8755.6489    2261.8956    17917.718    23.201337 
   23800    295.58097   -8788.4355    -8755.463    2871.6427    17917.662     23.17429 
   23810    286.11487   -8787.1792   -8755.2626    2520.9278    17925.079    23.171382 
   23820    299.65733   -8788.4639   -8755.0367    1298.8775    17938.931    23.194985 
   23830    308.11046   -8789.1537   -8754.7835    70.987512    17956.042    23.230858 
   23840    305.89408   -8788.6578   -8754.5349   -837.92205     17973.18      23.2624 
   23850    308.42012   -8788.6969   -8754.2922   -1725.8552    17987.817    23.281796 
   23860    297.46578   -8787.2349   -8754.0521   -2079.0754    17997.734    23.282851 
   23870    296.71883   -8786.9172   -8753.8178   -2216.3514    18001.952    23.258837 
   23880    305.38047   -8787.6484   -8753.5828   -2182.1154    18000.154    23.207963 
   23890     302.6397   -8787.1231   -8753.3632   -1372.9758    17992.734    23.137018 
   23900    312.29008   -8788.0068   -8753.1704   -1065.2868     17981.61    23.056273 
   23910    316.77888   -8788.3555   -8753.0183   -1006.1545    17967.774    22.973018 
   23920    307.27888   -8787.1933   -8752.9159   -111.10032    17951.703    22.896356 
   23930    306.36691   -8787.0183   -8752.8426    796.03671    17935.572     22.83981 
   23940    312.61503   -8787.6665   -8752.7938    1401.1097    17921.726    22.811261 
   23950    310.99076   -8787.4691   -8752.7776    2137.6153    17911.875     22.80975 
   23960    311.01605   -8787.4866   -8752.7923    2446.4751    17907.747    22.830401 
   23970    318.19953   -8788.3329   -8752.8373    2046.1826    17910.014    22.868766 
   23980    313.77082    -8787.911   -8752.9094     1329.817    17917.647     22.91996 
   23990    297.03144   -8786.1179   -8752.9836    373.56694    17928.642    22.975499 
   24000    297.11819   -8786.1792   -8753.0352   -808.77104    17940.447    23.026819 
   24010    310.26522   -8787.6852   -8753.0746   -1934.1228    17949.947    23.067218 
   24020    304.14765   -8787.0534   -8753.1253   -1973.0278    17954.412    23.089151 
   24030    302.43253   -8786.9229   -8753.1861   -1708.8566    17953.593    23.089094 
   24040    317.32291   -8788.6621   -8753.2643   -1676.6007    17948.153    23.069837 
   24050    307.47693   -8787.6634   -8753.3639   -1103.3333    17938.459    23.035108 
   24060    305.39259   -8787.5389   -8753.4719   -259.64013    17925.983    22.990726 
   24070     311.7219    -8788.352    -8753.579    923.33567    17913.073    22.947452 
   24080    309.55129   -8788.2227   -8753.6918    2119.4393    17902.798    22.916628 
   24090    307.96892   -8788.1774    -8753.823    2563.2141    17898.121    22.907456 
   24100    299.66263   -8787.3942   -8753.9664    2203.4691     17900.18    22.926244 
   24110    303.50983   -8787.9738   -8754.1168    795.41726    17907.822    22.968659 
   24120    302.47333   -8788.0073   -8754.2659   -987.04383    17917.414    23.018827 
   24130    295.48683   -8787.3719   -8754.4099   -2441.3578    17924.314    23.060797 
   24140     297.0819   -8787.6895   -8754.5496    -2869.119    17924.817    23.087708 
   24150    299.05844   -8788.0444    -8754.684   -1983.3898    17917.943    23.098884 
   24160    298.75488   -8788.1219   -8754.7954   -511.12703    17905.989    23.094012 
   24170    305.03294   -8788.9129    -8754.886     757.7177    17892.752    23.074991 
   24180    305.37341   -8789.0449     -8754.98     1594.893    17881.586    23.046831 
   24190    299.66664   -8788.5201   -8755.0918    1810.8765    17874.668    23.014433 
   24200    297.88301    -8788.447   -8755.2177    1449.5034    17872.525    22.982479 
   24210     295.3194   -8788.2907   -8755.3474    775.63427    17874.202    22.954241 
   24220    299.15458   -8788.8379   -8755.4668   -59.977268    17877.909    22.928178 
   24230    312.26241   -8790.4079   -8755.5746   -1227.2384    17881.318    22.901949 
   24240     311.2645   -8790.4103   -8755.6883   -2060.1525    17881.492    22.871887 
   24250     306.4977   -8790.0195   -8755.8292    -2283.923    17876.305     22.83293 
   24260    298.96824   -8789.3421   -8755.9917   -1646.5858    17865.332    22.782875 
   24270    287.60505   -8788.2242   -8756.1415   -692.95418    17850.172     22.72354 
   24280    291.79397   -8788.8076   -8756.2576    63.209544    17833.282    22.660566 
   24290    299.57283   -8789.7681   -8756.3503    940.85907    17816.783    22.602312 
   24300    295.18378     -8789.36   -8756.4318    2269.5394     17803.15     22.55836 
   24310    295.02203   -8789.4239   -8756.5137    2735.9162    17795.442    22.535683 
   24320    300.19698   -8790.0909   -8756.6034    2750.0548    17794.951    22.537736 
   24330    295.09581   -8789.6133    -8756.695    2623.0822      17801.7    22.567024 
   24340    293.88165   -8789.5606   -8756.7777    1702.8829     17815.12    22.621417 
   24350    293.74712   -8789.5978   -8756.8299   -141.14751    17832.697    22.688874 
   24360     294.4934    -8789.696   -8756.8448   -2213.4333    17849.647    22.747977 
   24370    300.68313   -8790.3896    -8756.848   -3771.6676    17860.643    22.781029 
   24380    293.95086   -8789.6601   -8756.8694   -3896.6816     17861.87    22.783128 
   24390    292.68646    -8789.557   -8756.9074   -3032.1507    17852.954    22.759626 
   24400    298.77502   -8790.2681   -8756.9393   -1440.2033    17836.253    22.719398 
   24410    295.80708   -8789.9439   -8756.9461    399.53613    17815.993    22.675121 
   24420    295.99033   -8789.9441   -8756.9259    1681.1789     17796.93    22.637853 
   24430    303.02518   -8790.6968   -8756.8939    2301.0218    17782.382      22.6104 
   24440    300.79681   -8790.4202   -8756.8658    2572.9888    17773.985    22.590687 
   24450    292.88811   -8789.5098   -8756.8377    2300.2841    17772.307    22.579783 
   24460    298.01632   -8790.0352   -8756.7911    1618.4965    17776.628    22.582415 
   24470    305.92083   -8790.8528   -8756.7269      656.519    17785.114    22.604662 
   24480    296.64134   -8789.7443   -8756.6535   -25.980256    17795.308    22.650915 
   24490    299.73601   -8790.0023   -8756.5662   -216.02172    17805.452    22.719368 
   24500    304.09971   -8790.3774   -8756.4546    34.916501    17815.052     22.80093 
   24510    293.32836   -8789.0441   -8756.3229    387.68883    17824.716    22.885609 
   24520    291.84763   -8788.7199   -8756.1638    27.722046    17835.157    22.969089 
   24530    291.61746   -8788.4952   -8755.9648   -713.72751    17845.537     23.04768 
   24540    295.13419   -8788.6579   -8755.7352   -1646.9445    17853.901    23.116607 
   24550    303.49136   -8789.3461   -8755.4912   -2309.7275    17857.871    23.172987 
   24560    298.62616   -8788.5718   -8755.2596   -1905.6816    17855.909    23.216493 
   24570    291.49648   -8787.5574   -8755.0405   -763.49609    17849.064    23.250758 
   24580    299.26784   -8788.1961   -8754.8123    465.10218    17840.262    23.282437 
   24590    310.42182   -8789.2064   -8754.5784    1488.3178     17832.72    23.322439 
   24600    315.36534   -8789.5427   -8754.3632    1697.6541    17829.017    23.378417 
   24610    322.43921   -8790.1607   -8754.1921    1309.8462    17829.743    23.444917 
   24620    315.71482   -8789.2999   -8754.0815    1348.1525    17834.059    23.513132 
   24630    306.48824   -8788.2161   -8754.0268    1509.5265    17841.954    23.578978 
   24640    311.40981   -8788.7397   -8754.0015    815.70046    17853.615    23.641351 
   24650    305.12085   -8788.0232   -8753.9865   -323.94909     17867.28    23.694855 
   24660    299.11685   -8787.3386   -8753.9717   -1422.8263    17880.003    23.730401 
   24670    305.11553   -8787.9928   -8753.9567   -2328.0912    17888.865    23.741094 
   24680    302.61339   -8787.7097   -8753.9527   -2198.0703    17891.694    23.727496 
   24690    301.59341   -8787.6085   -8753.9653   -1267.2265    17888.789    23.699279 
   24700     303.3654   -8787.8257   -8753.9848   -355.42377    17882.515    23.671621 
   24710    304.72324   -8788.0043    -8754.012   -67.109727    17875.172    23.658725 
   24720    304.90382    -8788.062   -8754.0495     313.1949     17867.75     23.66387 
   24730    311.09291   -8788.8077   -8754.1048    562.46161    17861.187    23.678739 
   24740    311.87342   -8788.9771   -8754.1872    467.14878    17856.066    23.690538 
   24750    303.79037   -8788.1827   -8754.2944    225.76747    17852.172     23.69205 
   24760    303.07598   -8788.2227   -8754.4141     434.8112     17849.02    23.683378 
   24770    309.74086   -8789.1031    -8754.551    1096.0307    17847.167    23.670159 
   24780    306.52167   -8788.9086   -8754.7157    1801.5796     17848.29    23.661246 
   24790    305.57877   -8788.9991   -8754.9114    1798.9865    17854.008    23.663399 
   24800    310.96787    -8789.824   -8755.1351    1105.8993    17864.333     23.67827 
   24810    310.56342   -8790.0251   -8755.3813    112.18592    17877.496    23.707116 
   24820    307.28332   -8789.9208   -8755.6429   -891.80501    17890.895     23.74998 
   24830     301.0145   -8789.4854   -8755.9067   -1734.7203    17901.888    23.801524 
   24840    298.10187   -8789.4079   -8756.1542   -2271.3774    17908.251    23.853882 
   24850    306.52636   -8790.5852   -8756.3917   -2585.1464    17908.532    23.900978 
   24860    299.42318    -8790.016   -8756.6148   -1953.2484    17902.115    23.938132 
   24870    295.88275   -8789.8077   -8756.8015   -603.79788    17890.648    23.962464 
   24880    295.07257   -8789.8601   -8756.9443    740.09979    17877.559    23.972665 
   24890    283.23522   -8788.6358   -8757.0405    1893.9053    17866.481    23.965457 
   24900    287.11689    -8789.137   -8757.1087    1873.7416    17860.238    23.941205 
   24910    289.18476   -8789.4179   -8757.1589    1195.5033    17858.883      23.9042 
   24920    294.69686   -8790.0656   -8757.1918    691.74735    17860.744    23.856888 
   24930    295.65713   -8790.1895   -8757.2085    1015.9667    17864.676    23.801513 
   24940    285.46387   -8789.0479    -8757.204    1260.3163    17871.291    23.741983 
   24950    303.21006   -8791.0032   -8757.1797     754.7417    17881.078    23.681967 
   24960    304.44685   -8791.1043   -8757.1428    191.50836    17892.859    23.629226 
   24970    288.19229   -8789.2465   -8757.0982   -345.09227    17905.118    23.595153 
   24980    287.51428   -8789.1011   -8757.0284   -789.57871    17916.475    23.585613 
   24990    292.41163   -8789.5593   -8756.9403   -905.36857    17925.772    23.599921 
   25000    297.71524   -8790.0684   -8756.8578   -700.01567    17932.696    23.636192 
Loop time of 12976.5 on 16 procs for 20000 steps with 864 atoms

Performance: 0.133 ns/day, 180.229 hours/ns, 1.541 timesteps/s
95.8% CPU use with 16 MPI tasks x 1 OpenMP threads

MPI task timing breakdown:
Section |  min time  |  avg time  |  max time  |%varavg| %total
---------------------------------------------------------------
Pair    | 3308       | 7092.8     | 12853      |4106.0 | 54.66
Bond    | 0.0015619  | 0.0042451  | 0.014118   |   4.6 |  0.00
Neigh   | 0.16302    | 0.36026    | 0.65266    |  30.4 |  0.00
Comm    | 101.75     | 4385       | 8213.3     |4443.9 | 33.79
Output  | 1.7026     | 1.7402     | 2.2934     |  10.8 |  0.01
Modify  | 18.373     | 1496.5     | 6389.7     |5599.1 | 11.53
Other   |            | 0.09121    |            |       |  0.00

Nlocal:        54.0000 ave          88 max          26 min
Histogram: 2 4 2 1 0 2 1 0 1 3
Nghost:        537.688 ave         696 max         363 min
Histogram: 4 0 0 0 4 0 3 1 0 4
Neighs:         0.00000 ave           0 max           0 min
Histogram: 16 0 0 0 0 0 0 0 0 0
FullNghs:      2834.50 ave        5961 max         703 min
Histogram: 4 3 1 2 0 2 0 0 0 4

Total # of neighbors = 45352
Ave neighs/atom = 52.490741
Ave special neighs/atom = 0.0000000
Neighbor list builds = 2000
Dangerous builds = 2000
Total wall time: 4:30:52
