LiKCl-MACE/16.00x-LiKCl-MACE/initial-solid.data (written by ASE) 

4096 	 atoms 
3  atom types
0.0      81.608063999999999  xlo xhi
0.0               20.402016  ylo yhi
0.0      40.804031999999999  zlo zhi


Masses

1 35.45
2 39.0983
3 6.94


Atoms 

     1   0   2   1.0      1.2751260000000002      1.2751259999999984      1.2751259999999967
     2   0   2   1.0      1.2751260000000002      3.8253779999999988      3.8253779999999966
     3   0   2   1.0      3.8253779999999935      1.2751259999999984      3.8253779999999966
     4   0   2   1.0      3.8253779999999935      3.8253779999999988      1.2751259999999967
     5   0   1  -1.0      3.8253779999999935      1.2751259999999984      1.2751259999999967
     6   0   1  -1.0      3.8253779999999935      3.8253779999999988      3.8253779999999966
     7   0   1  -1.0      1.2751260000000002      1.2751259999999984      3.8253779999999966
     8   0   1  -1.0      1.2751260000000002      3.8253779999999988      1.2751259999999967
     9   0   2   1.0      1.2751260000000002      6.3756299999999992      1.2751259999999967
    10   0   2   1.0      1.2751260000000002      8.9258819999999996      3.8253779999999966
    11   0   2   1.0      3.8253779999999935      6.3756299999999992      3.8253779999999966
    12   0   2   1.0      3.8253779999999935      8.9258819999999996      1.2751259999999967
    13   0   1  -1.0      3.8253779999999935      6.3756299999999992      1.2751259999999967
    14   0   1  -1.0      3.8253779999999935      8.9258819999999996      3.8253779999999966
    15   0   1  -1.0      1.2751260000000002      6.3756299999999992      3.8253779999999966
    16   0   1  -1.0      1.2751260000000002      8.9258819999999996      1.2751259999999967
    17   0   2   1.0      1.2751260000000002      11.476133999999998      1.2751259999999967
    18   0   2   1.0      1.2751260000000002               14.026386      3.8253779999999966
    19   0   2   1.0      3.8253779999999935      11.476133999999998      3.8253779999999966
    20   0   2   1.0      3.8253779999999935               14.026386      1.2751259999999967
    21   0   1  -1.0      3.8253779999999935      11.476133999999998      1.2751259999999967
    22   0   1  -1.0      3.8253779999999935               14.026386      3.8253779999999966
    23   0   1  -1.0      1.2751260000000002      11.476133999999998      3.8253779999999966
    24   0   1  -1.0      1.2751260000000002               14.026386      1.2751259999999967
    25   0   2   1.0      1.2751260000000002      16.576637999999999      1.2751259999999967
    26   0   2   1.0      1.2751260000000002                19.12689      3.8253779999999966
    27   0   2   1.0      3.8253779999999935      16.576637999999999      3.8253779999999966
    28   0   2   1.0      3.8253779999999935                19.12689      1.2751259999999967
    29   0   1  -1.0      3.8253779999999935      16.576637999999999      1.2751259999999967
    30   0   1  -1.0      3.8253779999999935                19.12689      3.8253779999999966
    31   0   1  -1.0      1.2751260000000002      16.576637999999999      3.8253779999999966
    32   0   1  -1.0      1.2751260000000002                19.12689      1.2751259999999967
    33   0   2   1.0       6.375630000000001      1.2751259999999984      1.2751259999999967
    34   0   2   1.0       6.375630000000001      3.8253779999999988      3.8253779999999966
    35   0   2   1.0      8.9258819999999979      1.2751259999999984      3.8253779999999966
    36   0   2   1.0      8.9258819999999979      3.8253779999999988      1.2751259999999967
    37   0   1  -1.0      8.9258819999999979      1.2751259999999984      1.2751259999999967
    38   0   1  -1.0      8.9258819999999979      3.8253779999999988      3.8253779999999966
    39   0   1  -1.0       6.375630000000001      1.2751259999999984      3.8253779999999966
    40   0   1  -1.0       6.375630000000001      3.8253779999999988      1.2751259999999967
    41   0   2   1.0       6.375630000000001      6.3756299999999992      1.2751259999999967
    42   0   2   1.0       6.375630000000001      8.9258819999999996      3.8253779999999966
    43   0   2   1.0      8.9258819999999979      6.3756299999999992      3.8253779999999966
    44   0   2   1.0      8.9258819999999979      8.9258819999999996      1.2751259999999967
    45   0   1  -1.0      8.9258819999999979      6.3756299999999992      1.2751259999999967
    46   0   1  -1.0      8.9258819999999979      8.9258819999999996      3.8253779999999966
    47   0   1  -1.0       6.375630000000001      6.3756299999999992      3.8253779999999966
    48   0   1  -1.0       6.375630000000001      8.9258819999999996      1.2751259999999967
    49   0   2   1.0       6.375630000000001      11.476133999999998      1.2751259999999967
    50   0   2   1.0       6.375630000000001               14.026386      3.8253779999999966
    51   0   2   1.0      8.9258819999999979      11.476133999999998      3.8253779999999966
    52   0   2   1.0      8.9258819999999979               14.026386      1.2751259999999967
    53   0   1  -1.0      8.9258819999999979      11.476133999999998      1.2751259999999967
    54   0   1  -1.0      8.9258819999999979               14.026386      3.8253779999999966
    55   0   1  -1.0       6.375630000000001      11.476133999999998      3.8253779999999966
    56   0   1  -1.0       6.375630000000001               14.026386      1.2751259999999967
    57   0   2   1.0       6.375630000000001      16.576637999999999      1.2751259999999967
    58   0   2   1.0       6.375630000000001                19.12689      3.8253779999999966
    59   0   2   1.0      8.9258819999999979      16.576637999999999      3.8253779999999966
    60   0   2   1.0      8.9258819999999979                19.12689      1.2751259999999967
    61   0   1  -1.0      8.9258819999999979      16.576637999999999      1.2751259999999967
    62   0   1  -1.0      8.9258819999999979                19.12689      3.8253779999999966
    63   0   1  -1.0       6.375630000000001      16.576637999999999      3.8253779999999966
    64   0   1  -1.0       6.375630000000001                19.12689      1.2751259999999967
    65   0   2   1.0      11.476133999999998      1.2751259999999984      1.2751259999999967
    66   0   2   1.0      11.476133999999998      3.8253779999999988      3.8253779999999966
    67   0   2   1.0      14.026386000000002      1.2751259999999984      3.8253779999999966
    68   0   2   1.0      14.026386000000002      3.8253779999999988      1.2751259999999967
    69   0   1  -1.0      14.026386000000002      1.2751259999999984      1.2751259999999967
    70   0   1  -1.0      14.026386000000002      3.8253779999999988      3.8253779999999966
    71   0   1  -1.0      11.476133999999998      1.2751259999999984      3.8253779999999966
    72   0   1  -1.0      11.476133999999998      3.8253779999999988      1.2751259999999967
    73   0   2   1.0      11.476133999999998      6.3756299999999992      1.2751259999999967
    74   0   2   1.0      11.476133999999998      8.9258819999999996      3.8253779999999966
    75   0   2   1.0      14.026386000000002      6.3756299999999992      3.8253779999999966
    76   0   2   1.0      14.026386000000002      8.9258819999999996      1.2751259999999967
    77   0   1  -1.0      14.026386000000002      6.3756299999999992      1.2751259999999967
    78   0   1  -1.0      14.026386000000002      8.9258819999999996      3.8253779999999966
    79   0   1  -1.0      11.476133999999998      6.3756299999999992      3.8253779999999966
    80   0   1  -1.0      11.476133999999998      8.9258819999999996      1.2751259999999967
    81   0   2   1.0      11.476133999999998      11.476133999999998      1.2751259999999967
    82   0   2   1.0      11.476133999999998               14.026386      3.8253779999999966
    83   0   2   1.0      14.026386000000002      11.476133999999998      3.8253779999999966
    84   0   2   1.0      14.026386000000002               14.026386      1.2751259999999967
    85   0   1  -1.0      14.026386000000002      11.476133999999998      1.2751259999999967
    86   0   1  -1.0      14.026386000000002               14.026386      3.8253779999999966
    87   0   1  -1.0      11.476133999999998      11.476133999999998      3.8253779999999966
    88   0   1  -1.0      11.476133999999998               14.026386      1.2751259999999967
    89   0   2   1.0      11.476133999999998      16.576637999999999      1.2751259999999967
    90   0   2   1.0      11.476133999999998                19.12689      3.8253779999999966
    91   0   2   1.0      14.026386000000002      16.576637999999999      3.8253779999999966
    92   0   2   1.0      14.026386000000002                19.12689      1.2751259999999967
    93   0   1  -1.0      14.026386000000002      16.576637999999999      1.2751259999999967
    94   0   1  -1.0      14.026386000000002                19.12689      3.8253779999999966
    95   0   1  -1.0      11.476133999999998      16.576637999999999      3.8253779999999966
    96   0   1  -1.0      11.476133999999998                19.12689      1.2751259999999967
    97   0   2   1.0      16.576637999999999      1.2751259999999984      1.2751259999999967
    98   0   2   1.0      16.576637999999999      3.8253779999999988      3.8253779999999966
    99   0   2   1.0                19.12689      1.2751259999999984      3.8253779999999966
   100   0   2   1.0                19.12689      3.8253779999999988      1.2751259999999967
   101   0   1  -1.0                19.12689      1.2751259999999984      1.2751259999999967
   102   0   1  -1.0                19.12689      3.8253779999999988      3.8253779999999966
   103   0   1  -1.0      16.576637999999999      1.2751259999999984      3.8253779999999966
   104   0   1  -1.0      16.576637999999999      3.8253779999999988      1.2751259999999967
   105   0   2   1.0      16.576637999999999      6.3756299999999992      1.2751259999999967
   106   0   2   1.0      16.576637999999999      8.9258819999999996      3.8253779999999966
   107   0   2   1.0                19.12689      6.3756299999999992      3.8253779999999966
   108   0   2   1.0                19.12689      8.9258819999999996      1.2751259999999967
   109   0   1  -1.0                19.12689      6.3756299999999992      1.2751259999999967
   110   0   1  -1.0                19.12689      8.9258819999999996      3.8253779999999966
   111   0   1  -1.0      16.576637999999999      6.3756299999999992      3.8253779999999966
   112   0   1  -1.0      16.576637999999999      8.9258819999999996      1.2751259999999967
   113   0   2   1.0      16.576637999999999      11.476133999999998      1.2751259999999967
   114   0   2   1.0      16.576637999999999               14.026386      3.8253779999999966
   115   0   2   1.0                19.12689      11.476133999999998      3.8253779999999966
   116   0   2   1.0                19.12689               14.026386      1.2751259999999967
   117   0   1  -1.0                19.12689      11.476133999999998      1.2751259999999967
   118   0   1  -1.0                19.12689               14.026386      3.8253779999999966
   119   0   1  -1.0      16.576637999999999      11.476133999999998      3.8253779999999966
   120   0   1  -1.0      16.576637999999999               14.026386      1.2751259999999967
   121   0   2   1.0      16.576637999999999      16.576637999999999      1.2751259999999967
   122   0   2   1.0      16.576637999999999                19.12689      3.8253779999999966
   123   0   2   1.0                19.12689      16.576637999999999      3.8253779999999966
   124   0   2   1.0                19.12689                19.12689      1.2751259999999967
   125   0   1  -1.0                19.12689      16.576637999999999      1.2751259999999967
   126   0   1  -1.0                19.12689                19.12689      3.8253779999999966
   127   0   1  -1.0      16.576637999999999      16.576637999999999      3.8253779999999966
   128   0   1  -1.0      16.576637999999999                19.12689      1.2751259999999967
   129   0   3   1.0               21.677142      1.2751259999999984      1.2751259999999967
   130   0   3   1.0               21.677142      3.8253779999999988      3.8253779999999966
   131   0   3   1.0      24.227394000000004      1.2751259999999984      3.8253779999999966
   132   0   3   1.0      24.227394000000004      3.8253779999999988      1.2751259999999967
   133   0   1  -1.0      24.227394000000004      1.2751259999999984      1.2751259999999967
   134   0   1  -1.0      24.227394000000004      3.8253779999999988      3.8253779999999966
   135   0   1  -1.0               21.677142      1.2751259999999984      3.8253779999999966
   136   0   1  -1.0               21.677142      3.8253779999999988      1.2751259999999967
   137   0   3   1.0               21.677142      6.3756299999999992      1.2751259999999967
   138   0   3   1.0               21.677142      8.9258819999999996      3.8253779999999966
   139   0   3   1.0      24.227394000000004      6.3756299999999992      3.8253779999999966
   140   0   3   1.0      24.227394000000004      8.9258819999999996      1.2751259999999967
   141   0   1  -1.0      24.227394000000004      6.3756299999999992      1.2751259999999967
   142   0   1  -1.0      24.227394000000004      8.9258819999999996      3.8253779999999966
   143   0   1  -1.0               21.677142      6.3756299999999992      3.8253779999999966
   144   0   1  -1.0               21.677142      8.9258819999999996      1.2751259999999967
   145   0   3   1.0               21.677142      11.476133999999998      1.2751259999999967
   146   0   3   1.0               21.677142               14.026386      3.8253779999999966
   147   0   3   1.0      24.227394000000004      11.476133999999998      3.8253779999999966
   148   0   3   1.0      24.227394000000004               14.026386      1.2751259999999967
   149   0   1  -1.0      24.227394000000004      11.476133999999998      1.2751259999999967
   150   0   1  -1.0      24.227394000000004               14.026386      3.8253779999999966
   151   0   1  -1.0               21.677142      11.476133999999998      3.8253779999999966
   152   0   1  -1.0               21.677142               14.026386      1.2751259999999967
   153   0   3   1.0               21.677142      16.576637999999999      1.2751259999999967
   154   0   3   1.0               21.677142                19.12689      3.8253779999999966
   155   0   3   1.0      24.227394000000004      16.576637999999999      3.8253779999999966
   156   0   3   1.0      24.227394000000004                19.12689      1.2751259999999967
   157   0   1  -1.0      24.227394000000004      16.576637999999999      1.2751259999999967
   158   0   1  -1.0      24.227394000000004                19.12689      3.8253779999999966
   159   0   1  -1.0               21.677142      16.576637999999999      3.8253779999999966
   160   0   1  -1.0               21.677142                19.12689      1.2751259999999967
   161   0   3   1.0      26.777646000000004      1.2751259999999984      1.2751259999999967
   162   0   3   1.0      26.777646000000004      3.8253779999999988      3.8253779999999966
   163   0   3   1.0      29.327898000000005      1.2751259999999984      3.8253779999999966
   164   0   3   1.0      29.327898000000005      3.8253779999999988      1.2751259999999967
   165   0   1  -1.0      29.327898000000005      1.2751259999999984      1.2751259999999967
   166   0   1  -1.0      29.327898000000005      3.8253779999999988      3.8253779999999966
   167   0   1  -1.0      26.777646000000004      1.2751259999999984      3.8253779999999966
   168   0   1  -1.0      26.777646000000004      3.8253779999999988      1.2751259999999967
   169   0   3   1.0      26.777646000000004      6.3756299999999992      1.2751259999999967
   170   0   3   1.0      26.777646000000004      8.9258819999999996      3.8253779999999966
   171   0   3   1.0      29.327898000000005      6.3756299999999992      3.8253779999999966
   172   0   3   1.0      29.327898000000005      8.9258819999999996      1.2751259999999967
   173   0   1  -1.0      29.327898000000005      6.3756299999999992      1.2751259999999967
   174   0   1  -1.0      29.327898000000005      8.9258819999999996      3.8253779999999966
   175   0   1  -1.0      26.777646000000004      6.3756299999999992      3.8253779999999966
   176   0   1  -1.0      26.777646000000004      8.9258819999999996      1.2751259999999967
   177   0   3   1.0      26.777646000000004      11.476133999999998      1.2751259999999967
   178   0   3   1.0      26.777646000000004               14.026386      3.8253779999999966
   179   0   3   1.0      29.327898000000005      11.476133999999998      3.8253779999999966
   180   0   3   1.0      29.327898000000005               14.026386      1.2751259999999967
   181   0   1  -1.0      29.327898000000005      11.476133999999998      1.2751259999999967
   182   0   1  -1.0      29.327898000000005               14.026386      3.8253779999999966
   183   0   1  -1.0      26.777646000000004      11.476133999999998      3.8253779999999966
   184   0   1  -1.0      26.777646000000004               14.026386      1.2751259999999967
   185   0   3   1.0      26.777646000000004      16.576637999999999      1.2751259999999967
   186   0   3   1.0      26.777646000000004                19.12689      3.8253779999999966
   187   0   3   1.0      29.327898000000005      16.576637999999999      3.8253779999999966
   188   0   3   1.0      29.327898000000005                19.12689      1.2751259999999967
   189   0   1  -1.0      29.327898000000005      16.576637999999999      1.2751259999999967
   190   0   1  -1.0      29.327898000000005                19.12689      3.8253779999999966
   191   0   1  -1.0      26.777646000000004      16.576637999999999      3.8253779999999966
   192   0   1  -1.0      26.777646000000004                19.12689      1.2751259999999967
   193   0   3   1.0      31.878150000000005      1.2751259999999984      1.2751259999999967
   194   0   3   1.0      31.878150000000005      3.8253779999999988      3.8253779999999966
   195   0   3   1.0      34.428402000000006      1.2751259999999984      3.8253779999999966
   196   0   3   1.0      34.428402000000006      3.8253779999999988      1.2751259999999967
   197   0   1  -1.0      34.428402000000006      1.2751259999999984      1.2751259999999967
   198   0   1  -1.0      34.428402000000006      3.8253779999999988      3.8253779999999966
   199   0   1  -1.0      31.878150000000005      1.2751259999999984      3.8253779999999966
   200   0   1  -1.0      31.878150000000005      3.8253779999999988      1.2751259999999967
   201   0   3   1.0      31.878150000000005      6.3756299999999992      1.2751259999999967
   202   0   3   1.0      31.878150000000005      8.9258819999999996      3.8253779999999966
   203   0   3   1.0      34.428402000000006      6.3756299999999992      3.8253779999999966
   204   0   3   1.0      34.428402000000006      8.9258819999999996      1.2751259999999967
   205   0   1  -1.0      34.428402000000006      6.3756299999999992      1.2751259999999967
   206   0   1  -1.0      34.428402000000006      8.9258819999999996      3.8253779999999966
   207   0   1  -1.0      31.878150000000005      6.3756299999999992      3.8253779999999966
   208   0   1  -1.0      31.878150000000005      8.9258819999999996      1.2751259999999967
   209   0   3   1.0      31.878150000000005      11.476133999999998      1.2751259999999967
   210   0   3   1.0      31.878150000000005               14.026386      3.8253779999999966
   211   0   3   1.0      34.428402000000006      11.476133999999998      3.8253779999999966
   212   0   3   1.0      34.428402000000006               14.026386      1.2751259999999967
   213   0   1  -1.0      34.428402000000006      11.476133999999998      1.2751259999999967
   214   0   1  -1.0      34.428402000000006               14.026386      3.8253779999999966
   215   0   1  -1.0      31.878150000000005      11.476133999999998      3.8253779999999966
   216   0   1  -1.0      31.878150000000005               14.026386      1.2751259999999967
   217   0   3   1.0      31.878150000000005      16.576637999999999      1.2751259999999967
   218   0   3   1.0      31.878150000000005                19.12689      3.8253779999999966
   219   0   3   1.0      34.428402000000006      16.576637999999999      3.8253779999999966
   220   0   3   1.0      34.428402000000006                19.12689      1.2751259999999967
   221   0   1  -1.0      34.428402000000006      16.576637999999999      1.2751259999999967
   222   0   1  -1.0      34.428402000000006                19.12689      3.8253779999999966
   223   0   1  -1.0      31.878150000000005      16.576637999999999      3.8253779999999966
   224   0   1  -1.0      31.878150000000005                19.12689      1.2751259999999967
   225   0   3   1.0      36.978654000000006      1.2751259999999984      1.2751259999999967
   226   0   3   1.0      36.978654000000006      3.8253779999999988      3.8253779999999966
   227   0   3   1.0      39.528906000000006      1.2751259999999984      3.8253779999999966
   228   0   3   1.0      39.528906000000006      3.8253779999999988      1.2751259999999967
   229   0   1  -1.0      39.528906000000006      1.2751259999999984      1.2751259999999967
   230   0   1  -1.0      39.528906000000006      3.8253779999999988      3.8253779999999966
   231   0   1  -1.0      36.978654000000006      1.2751259999999984      3.8253779999999966
   232   0   1  -1.0      36.978654000000006      3.8253779999999988      1.2751259999999967
   233   0   3   1.0      36.978654000000006      6.3756299999999992      1.2751259999999967
   234   0   3   1.0      36.978654000000006      8.9258819999999996      3.8253779999999966
   235   0   3   1.0      39.528906000000006      6.3756299999999992      3.8253779999999966
   236   0   3   1.0      39.528906000000006      8.9258819999999996      1.2751259999999967
   237   0   1  -1.0      39.528906000000006      6.3756299999999992      1.2751259999999967
   238   0   1  -1.0      39.528906000000006      8.9258819999999996      3.8253779999999966
   239   0   1  -1.0      36.978654000000006      6.3756299999999992      3.8253779999999966
   240   0   1  -1.0      36.978654000000006      8.9258819999999996      1.2751259999999967
   241   0   3   1.0      36.978654000000006      11.476133999999998      1.2751259999999967
   242   0   3   1.0      36.978654000000006               14.026386      3.8253779999999966
   243   0   3   1.0      39.528906000000006      11.476133999999998      3.8253779999999966
   244   0   3   1.0      39.528906000000006               14.026386      1.2751259999999967
   245   0   1  -1.0      39.528906000000006      11.476133999999998      1.2751259999999967
   246   0   1  -1.0      39.528906000000006               14.026386      3.8253779999999966
   247   0   1  -1.0      36.978654000000006      11.476133999999998      3.8253779999999966
   248   0   1  -1.0      36.978654000000006               14.026386      1.2751259999999967
   249   0   3   1.0      36.978654000000006      16.576637999999999      1.2751259999999967
   250   0   3   1.0      36.978654000000006                19.12689      3.8253779999999966
   251   0   3   1.0      39.528906000000006      16.576637999999999      3.8253779999999966
   252   0   3   1.0      39.528906000000006                19.12689      1.2751259999999967
   253   0   1  -1.0      39.528906000000006      16.576637999999999      1.2751259999999967
   254   0   1  -1.0      39.528906000000006                19.12689      3.8253779999999966
   255   0   1  -1.0      36.978654000000006      16.576637999999999      3.8253779999999966
   256   0   1  -1.0      36.978654000000006                19.12689      1.2751259999999967
   257   0   3   1.0      42.079158000000007      1.2751259999999984      1.2751259999999967
   258   0   3   1.0      42.079158000000007      3.8253779999999988      3.8253779999999966
   259   0   3   1.0      44.629410000000007      1.2751259999999984      3.8253779999999966
   260   0   3   1.0      44.629410000000007      3.8253779999999988      1.2751259999999967
   261   0   1  -1.0      44.629410000000007      1.2751259999999984      1.2751259999999967
   262   0   1  -1.0      44.629410000000007      3.8253779999999988      3.8253779999999966
   263   0   1  -1.0      42.079158000000007      1.2751259999999984      3.8253779999999966
   264   0   1  -1.0      42.079158000000007      3.8253779999999988      1.2751259999999967
   265   0   3   1.0      42.079158000000007      6.3756299999999992      1.2751259999999967
   266   0   3   1.0      42.079158000000007      8.9258819999999996      3.8253779999999966
   267   0   3   1.0      44.629410000000007      6.3756299999999992      3.8253779999999966
   268   0   3   1.0      44.629410000000007      8.9258819999999996      1.2751259999999967
   269   0   1  -1.0      44.629410000000007      6.3756299999999992      1.2751259999999967
   270   0   1  -1.0      44.629410000000007      8.9258819999999996      3.8253779999999966
   271   0   1  -1.0      42.079158000000007      6.3756299999999992      3.8253779999999966
   272   0   1  -1.0      42.079158000000007      8.9258819999999996      1.2751259999999967
   273   0   3   1.0      42.079158000000007      11.476133999999998      1.2751259999999967
   274   0   3   1.0      42.079158000000007               14.026386      3.8253779999999966
   275   0   3   1.0      44.629410000000007      11.476133999999998      3.8253779999999966
   276   0   3   1.0      44.629410000000007               14.026386      1.2751259999999967
   277   0   1  -1.0      44.629410000000007      11.476133999999998      1.2751259999999967
   278   0   1  -1.0      44.629410000000007               14.026386      3.8253779999999966
   279   0   1  -1.0      42.079158000000007      11.476133999999998      3.8253779999999966
   280   0   1  -1.0      42.079158000000007               14.026386      1.2751259999999967
   281   0   3   1.0      42.079158000000007      16.576637999999999      1.2751259999999967
   282   0   3   1.0      42.079158000000007                19.12689      3.8253779999999966
   283   0   3   1.0      44.629410000000007      16.576637999999999      3.8253779999999966
   284   0   3   1.0      44.629410000000007                19.12689      1.2751259999999967
   285   0   1  -1.0      44.629410000000007      16.576637999999999      1.2751259999999967
   286   0   1  -1.0      44.629410000000007                19.12689      3.8253779999999966
   287   0   1  -1.0      42.079158000000007      16.576637999999999      3.8253779999999966
   288   0   1  -1.0      42.079158000000007                19.12689      1.2751259999999967
   289   0   3   1.0      47.179662000000008      1.2751259999999984      1.2751259999999967
   290   0   3   1.0      47.179662000000008      3.8253779999999988      3.8253779999999966
   291   0   3   1.0      49.729914000000008      1.2751259999999984      3.8253779999999966
   292   0   3   1.0      49.729914000000008      3.8253779999999988      1.2751259999999967
   293   0   1  -1.0      49.729914000000008      1.2751259999999984      1.2751259999999967
   294   0   1  -1.0      49.729914000000008      3.8253779999999988      3.8253779999999966
   295   0   1  -1.0      47.179662000000008      1.2751259999999984      3.8253779999999966
   296   0   1  -1.0      47.179662000000008      3.8253779999999988      1.2751259999999967
   297   0   3   1.0      47.179662000000008      6.3756299999999992      1.2751259999999967
   298   0   3   1.0      47.179662000000008      8.9258819999999996      3.8253779999999966
   299   0   3   1.0      49.729914000000008      6.3756299999999992      3.8253779999999966
   300   0   3   1.0      49.729914000000008      8.9258819999999996      1.2751259999999967
   301   0   1  -1.0      49.729914000000008      6.3756299999999992      1.2751259999999967
   302   0   1  -1.0      49.729914000000008      8.9258819999999996      3.8253779999999966
   303   0   1  -1.0      47.179662000000008      6.3756299999999992      3.8253779999999966
   304   0   1  -1.0      47.179662000000008      8.9258819999999996      1.2751259999999967
   305   0   3   1.0      47.179662000000008      11.476133999999998      1.2751259999999967
   306   0   3   1.0      47.179662000000008               14.026386      3.8253779999999966
   307   0   3   1.0      49.729914000000008      11.476133999999998      3.8253779999999966
   308   0   3   1.0      49.729914000000008               14.026386      1.2751259999999967
   309   0   1  -1.0      49.729914000000008      11.476133999999998      1.2751259999999967
   310   0   1  -1.0      49.729914000000008               14.026386      3.8253779999999966
   311   0   1  -1.0      47.179662000000008      11.476133999999998      3.8253779999999966
   312   0   1  -1.0      47.179662000000008               14.026386      1.2751259999999967
   313   0   3   1.0      47.179662000000008      16.576637999999999      1.2751259999999967
   314   0   3   1.0      47.179662000000008                19.12689      3.8253779999999966
   315   0   3   1.0      49.729914000000008      16.576637999999999      3.8253779999999966
   316   0   3   1.0      49.729914000000008                19.12689      1.2751259999999967
   317   0   1  -1.0      49.729914000000008      16.576637999999999      1.2751259999999967
   318   0   1  -1.0      49.729914000000008                19.12689      3.8253779999999966
   319   0   1  -1.0      47.179662000000008      16.576637999999999      3.8253779999999966