LAMMPS (29 Sep 2021 - Update 3)
OMP_NUM_THREADS environment is not set. Defaulting to 1 thread. (src/comm.cpp:98)
  using 1 OpenMP thread(s) per MPI task
Reading data file ...
  orthogonal box = (0.0000000 0.0000000 0.0000000) to (15.866041 15.852264 77.123517)
  2 by 1 by 8 MPI processor grid
  reading atoms ...
  864 atoms
Finding 1-2 1-3 1-4 neighbors ...
  special bond factors lj:    0        0        0       
  special bond factors coul:  0        0        0       
     0 = max # of 1-2 neighbors
     0 = max # of 1-3 neighbors
     0 = max # of 1-4 neighbors
     1 = max # of special neighbors
  special bonds CPU = 0.001 seconds
  read_data CPU = 0.012 seconds
Neighbor list info ...
  update every 1 steps, delay 10 steps, check yes
  max neighbors/atom: 2000, page size: 100000
  master list distance cutoff = 6.22
  ghost atom cutoff = 6.22
  binsize = 3.11, bins = 6 6 25
  1 neighbor lists, perpetual/occasional/extra = 1 0 0
  (1) pair quip, perpetual
      attributes: full, newton on
      pair build: full/bin
      stencil: full/bin/3d
      bin: standard
Setting up Verlet run ...
  Unit style    : metal
  Current step  : 0
  Time step     : 0.001
Per MPI rank memory allocation (min/avg/max) = 8.889 | 8.906 | 8.916 Mbytes
Step Temp PotEng TotEng Press Volume c_msd[4] 
       0            0   -8878.9247   -8878.9247   -11708.833    19397.542            0 
      10    108.80145    -8891.078    -8878.941   -13519.947    19397.542 0.00037756483 
      20    255.99871   -8907.5101   -8878.9531   -15433.074    19397.542  0.004636157 
      30    288.56988   -8911.1358   -8878.9454   -14361.122    19397.542  0.015943357 
      40    289.10053   -8911.1934   -8878.9438   -12512.136    19397.542  0.032214776 
      50    304.26419   -8912.8839   -8878.9428   -12190.839    19397.542  0.050010352 
      60    330.67215   -8915.8353   -8878.9484    -12512.07    19397.542  0.067008738 
      70    319.75479    -8914.613   -8878.9439   -12021.554    19397.542  0.084636553 
      80     311.7171   -8913.7131   -8878.9406   -11242.174    19397.542   0.10335882 
      90    344.97025   -8917.4272   -8878.9452   -11377.847    19397.542   0.12285636 
     100    369.47631   -8920.1625   -8878.9469   -11460.202    19397.542   0.14373353 
     110    369.44402   -8920.1551   -8878.9431   -10737.559    19397.542   0.16547428 
     120    381.04496   -8921.4513   -8878.9452   -10101.733    19397.542   0.18697263 
     130    387.01967   -8922.1174   -8878.9447    -9853.945    19397.542   0.20927079 
     140    390.46305   -8922.5002   -8878.9434   -10154.629    19397.542   0.23274757 
     150    401.17379   -8923.6966   -8878.9451   -10935.233    19397.542   0.25686229 
     160    405.60936   -8924.1923    -8878.946   -11533.497    19397.542   0.28181117 
     170    403.00983   -8923.9035   -8878.9472   -11313.905    19397.542   0.30705714 
     180    385.93942   -8921.9971   -8878.9449   -10395.352    19397.542   0.33328028 
     190    384.55592   -8921.8429   -8878.9451   -9702.4152    19397.542    0.3615061 
     200    397.89654   -8923.3338   -8878.9478   -9508.3306    19397.542   0.39138176 
     210    403.74057   -8923.9838    -8878.946   -9854.3562    19397.542   0.41959204 
     220    419.25516   -8925.7147   -8878.9462   -11120.155    19397.542   0.44190424 
     230    437.64496   -8927.7678   -8878.9478   -12741.979    19397.542   0.46059951 
     240    436.22365   -8927.6096   -8878.9482   -13773.271    19397.542   0.48016288 
     250     417.4692   -8925.5154   -8878.9461   -14188.084    19397.542   0.50051511 
     260    403.07006   -8923.9093   -8878.9463   -14452.366    19397.542   0.51954432 
     270    390.78955   -8922.5388   -8878.9456   -14869.677    19397.542   0.53842732 
     280    390.91941   -8922.5534   -8878.9458   -15753.944    19397.542   0.55789535 
     290    394.53071   -8922.9579   -8878.9474   -16866.473    19397.542   0.57907365 
     300    385.46639   -8921.9447   -8878.9454   -17556.881    19397.542   0.60332818 
     310    388.07639   -8922.2367   -8878.9462   -18102.563    19397.542   0.62988844 
     320    395.22438   -8923.0346   -8878.9467   -18476.923    19397.542   0.65693198 
     330     392.7193   -8922.7554    -8878.947   -18634.964    19397.542   0.68294096 
     340    387.36548    -8922.158   -8878.9468   -18928.114    19397.542    0.7064488 
     350    383.70376     -8921.75   -8878.9472   -19255.038    19397.542   0.72809194 
     360    380.16279   -8921.3526   -8878.9449   -19764.905    19397.542   0.74756432 
     370    391.53302   -8922.6238   -8878.9477   -20433.416    19397.542   0.76345228 
     380    397.18733   -8923.2529   -8878.9461   -20848.612    19397.542   0.77799013 
     390    399.66038   -8923.5327     -8878.95   -20962.623    19397.542    0.7926845 
     400    376.74168   -8920.9703   -8878.9442   -20594.318    19397.542   0.80792627 
     410    384.01385   -8921.7861   -8878.9488   -20827.442    19397.542   0.82090067 
     420    385.42711   -8921.9432   -8878.9482    -21282.02    19397.542   0.83289421 
     430    375.82197   -8920.8694   -8878.9459   -21749.833    19397.542   0.84474346 
     440    377.40301   -8921.0478   -8878.9479   -22280.425    19397.542   0.85654263 
     450    373.39276   -8920.5987   -8878.9462   -22358.315    19397.542   0.87121917 
     460    380.55104   -8921.3982   -8878.9472   -22127.174    19397.542   0.88923864 
     470    389.08947   -8922.3531   -8878.9496   -21563.629    19397.542   0.90990069 
     480    377.88025   -8921.0989   -8878.9458   -20903.426    19397.542   0.93174236 
     490    381.74982   -8921.5319   -8878.9472   -20620.986    19397.542   0.94962563 
     500    394.14575   -8922.9156   -8878.9481   -20486.731    19397.542   0.96309083 
     510    397.04898   -8923.2389   -8878.9475   -19997.235    19397.542   0.97658553 
     520    399.82595   -8923.5491    -8878.948   -19535.484    19397.542   0.99241283 
     530    404.27704   -8924.0446   -8878.9469    -19115.46    19397.542    1.0084992 
     540     411.3451   -8924.8362     -8878.95   -18661.849    19397.542    1.0226069 
     550    394.09812   -8922.9082    -8878.946   -17821.103    19397.542    1.0374953 
     560    386.81962   -8922.0987   -8878.9484   -17144.624    19397.542    1.0531551 
     570    383.04436   -8921.6747   -8878.9456   -16711.306    19397.542    1.0690946 
     580    397.22268   -8923.2587   -8878.9479   -16702.646    19397.542    1.0866029 
     590    408.28446   -8924.4929   -8878.9481   -16623.668    19397.542    1.1074158 
     600    405.74477   -8924.2095   -8878.9481   -16314.107    19397.542    1.1302748 
     610    396.02325   -8923.1251   -8878.9481    -15628.66    19397.542    1.1519665 
     620     395.3341   -8923.0495   -8878.9494   -15051.831    19397.542    1.1694303 
     630    394.27036   -8922.9318   -8878.9503   -14512.907    19397.542    1.1828305 
     640    383.62649   -8921.7417   -8878.9476   -14067.198    19397.542    1.1945401 
     650    385.14193   -8921.9112    -8878.948   -13839.463    19397.542    1.2068311 
     660     395.4713   -8923.0651   -8878.9497   -13755.797    19397.542    1.2218962 
     670     396.9724   -8923.2312   -8878.9483   -13681.042    19397.542    1.2411479 
     680    400.76426   -8923.6562   -8878.9504   -13529.754    19397.542    1.2649597 
     690    395.59922   -8923.0782   -8878.9485   -13202.541    19397.542    1.2892968 
     700    393.08673   -8922.7984    -8878.949    -12863.36    19397.542    1.3108518 
     710    392.46287   -8922.7295   -8878.9497   -12776.215    19397.542    1.3306314 
     720    392.69983   -8922.7538   -8878.9476   -12960.731    19397.542    1.3493343 
     730    407.70626    -8924.431   -8878.9507   -13617.908    19397.542    1.3652761 
     740    418.60831   -8925.6458   -8878.9494   -14182.857    19397.542    1.3758719 
     750    427.35697   -8926.6222   -8878.9499   -14411.802    19397.542    1.3817369 
     760    426.23067   -8926.4956    -8878.949   -14240.457    19397.542    1.3874968 
     770    425.68986   -8926.4355   -8878.9492   -14121.142    19397.542    1.3956033 
     780    424.34662   -8926.2861   -8878.9496   -14199.692    19397.542    1.4059418 
     790    416.51178   -8925.4118   -8878.9493   -14348.579    19397.542    1.4172819 
     800    406.85203   -8924.3329   -8878.9479   -14603.708    19397.542    1.4293586 
     810     409.3926   -8924.6176   -8878.9492   -14954.594    19397.542    1.4437899 
     820    411.52943   -8924.8561   -8878.9494   -15227.004    19397.542     1.461671 
     830    414.76526   -8925.2161   -8878.9484   -15348.177    19397.542    1.4822988 
     840    425.47297   -8926.4126   -8878.9505   -15497.059    19397.542    1.5061095 
     850    424.10961   -8926.2589   -8878.9489    -15461.05    19397.542    1.5339208 
     860    425.84903   -8926.4531    -8878.949   -15668.017    19397.542    1.5638872 
     870    428.28778   -8926.7265   -8878.9503   -15975.954    19397.542    1.5941429 
     880    422.32484   -8926.0597   -8878.9487   -16050.391    19397.542    1.6254163 
     890    420.59441   -8925.8681   -8878.9502   -16210.368    19397.542    1.6579317 
     900    412.78354   -8924.9958   -8878.9492   -16186.118    19397.542    1.6917804 
     910    408.88335   -8924.5603   -8878.9488   -16398.021    19397.542    1.7253326 
     920    415.25495   -8925.2723     -8878.95   -16866.947    19397.542    1.7566903 
     930    417.79568   -8925.5555   -8878.9498    -17314.63    19397.542    1.7866576 
     940    414.15774   -8925.1502   -8878.9503   -17816.895    19397.542    1.8175362 
     950    410.14766   -8924.7024   -8878.9498   -18397.528    19397.542     1.850555 
     960    412.13206   -8924.9218   -8878.9478   -18864.984    19397.542    1.8837942 
     970    427.90234   -8926.6835   -8878.9503   -19165.223    19397.542    1.9147148 
     980    431.11936    -8927.043    -8878.951    -19021.79    19397.542    1.9457246 
     990    415.64991   -8925.3145   -8878.9482   -18606.767    19397.542    1.9812421 
    1000    413.92707   -8925.1233   -8878.9491   -18513.829    19397.542    2.0201072 
    1010    417.45395   -8925.5177     -8878.95   -18558.895    19397.542    2.0574524 
    1020    414.66605   -8925.2045   -8878.9479    -18540.13    19397.542    2.0909232 
    1030    425.32279   -8926.3944    -8878.949   -18804.281    19397.542    2.1200334 
    1040    437.39791    -8927.743   -8878.9506    -19174.44    19397.542    2.1461906 
    1050    432.04437    -8927.144   -8878.9488   -19430.964    19397.542    2.1724444 
    1060    423.10855   -8926.1471   -8878.9487    -19670.97    19397.542     2.200914 
    1070    416.30819    -8925.389   -8878.9492   -19752.208    19397.542     2.232564 
    1080    410.19009   -8924.7058   -8878.9485   -19471.789    19397.542    2.2656179 
    1090    411.43188   -8924.8454   -8878.9496   -18927.842    19397.542    2.2963807 
    1100    413.58688   -8925.0849   -8878.9486   -18540.027    19397.542    2.3238349 
    1110    425.71996   -8926.4384   -8878.9486   -18620.545    19397.542    2.3474636 
    1120    443.01807   -8928.3709   -8878.9516   -18883.908    19397.542    2.3679172 
    1130    437.42575   -8927.7454   -8878.9499   -18767.479    19397.542    2.3882255 
    1140    422.48256   -8926.0773   -8878.9487   -18476.767    19397.542    2.4089666 
    1150    414.07643   -8925.1393   -8878.9485   -18282.798    19397.542    2.4284943 
    1160    416.01416   -8925.3558   -8878.9488   -18291.885    19397.542     2.446853 
    1170    419.66714   -8925.7642   -8878.9497   -18446.717    19397.542    2.4644412 
    1180    424.21945   -8926.2706   -8878.9483    -18449.36    19397.542    2.4806419 
    1190    440.19598   -8928.0557   -8878.9512   -18343.062    19397.542    2.4945267 
    1200    440.38662   -8928.0752   -8878.9494   -17908.359    19397.542     2.507228 
    1210    440.40752   -8928.0774   -8878.9493   -17509.071    19397.542    2.5196997 
    1220    445.29341   -8928.6232   -8878.9501   -17433.008    19397.542    2.5321836 
    1230    444.31811   -8928.5138   -8878.9494   -17404.254    19397.542    2.5456285 
    1240    444.21916   -8928.5028   -8878.9495   -17567.287    19397.542    2.5617678 
    1250    447.95301   -8928.9197   -8878.9499   -17998.888    19397.542    2.5810013 
    1260    447.05056     -8928.82   -8878.9509   -18113.089    19397.542    2.6027835 
    1270    433.76409   -8927.3363   -8878.9493   -17647.746    19397.542    2.6267411 
    1280    426.49744   -8926.5249   -8878.9485   -17215.404    19397.542    2.6522665 
    1290    438.76938   -8927.8949   -8878.9495   -17215.004    19397.542     2.679609 
    1300     454.8554   -8929.6913   -8878.9515   -17412.029    19397.542    2.7096074 
    1310    451.74789   -8929.3435   -8878.9504   -17515.094    19397.542    2.7419599 
    1320    440.03726   -8928.0361   -8878.9493    -17582.78    19397.542    2.7732724 
    1330    433.51813    -8927.309   -8878.9494   -17627.787    19397.542    2.7991894 
    1340    430.66307   -8926.9918   -8878.9507   -17406.648    19397.542    2.8192899 
    1350    422.06307   -8926.0311   -8878.9493    -17030.68    19397.542    2.8369839 
    1360    423.68793   -8926.2128   -8878.9498   -16872.793    19397.542    2.8564726 
    1370    432.23825   -8927.1671   -8878.9502   -16941.721    19397.542    2.8798412 
    1380    440.61409   -8928.1014   -8878.9502   -17160.411    19397.542     2.904214 
    1390    442.38617   -8928.3005   -8878.9516   -17288.698    19397.542    2.9262872 
    1400    432.82497   -8927.2303    -8878.948   -17111.965    19397.542    2.9462931 
    1410    443.20721   -8928.3906   -8878.9502   -17379.272    19397.542    2.9656964 
    1420     452.8574   -8929.4692   -8878.9523   -17581.285    19397.542    2.9866189 
    1430    440.33742   -8928.0699   -8878.9496    -17078.18    19397.542    3.0107644 
    1440    434.09539   -8927.3728   -8878.9488   -16559.852    19397.542    3.0372306 
    1450    446.59797     -8928.77   -8878.9513   -16458.202    19397.542    3.0634597 
    1460    455.16552   -8929.7248   -8878.9504   -16509.198    19397.542    3.0883146 
    1470     460.5176    -8930.323   -8878.9516   -16639.411    19397.542    3.1117695 
    1480    455.78137    -8929.792   -8878.9489   -16643.605    19397.542    3.1332037 
    1490    461.66937   -8930.4506   -8878.9507   -16632.215    19397.542     3.152331 
    1500    464.06114   -8930.7172   -8878.9504   -16316.323    19397.542    3.1724877 
    1510    464.69685   -8930.7871   -8878.9495    -16148.36    19397.542    3.1960897 
    1520    471.22077   -8931.5167   -8878.9514   -16208.841    19397.542    3.2225013 
    1530    471.47122   -8931.5429   -8878.9496   -16597.639    19397.542    3.2496574 
    1540    479.04999   -8932.3903   -8878.9516   -17340.131    19397.542    3.2743864 
    1550    475.60674   -8932.0055   -8878.9508   -17872.304    19397.542    3.2971604 
    1560    465.76065   -8930.9064   -8878.9501   -17822.552    19397.542    3.3221892 
    1570    460.06152    -8930.271   -8878.9505    -17442.47    19397.542    3.3512444 
    1580    459.40082   -8930.1971   -8878.9502   -16941.542    19397.542    3.3813068 
    1590    460.93829   -8930.3707   -8878.9523   -16350.345    19397.542    3.4083736 
    1600     448.2201   -8928.9504   -8878.9508   -15603.607    19397.542    3.4316634 
    1610     443.9941   -8928.4772    -8878.949    -15275.86    19397.542    3.4534934 
    1620    463.51034   -8930.6582    -8878.953   -15593.563    19397.542    3.4766509 
    1630    474.66564   -8931.9011   -8878.9514   -16126.405    19397.542    3.5034224 
    1640    481.75389   -8932.6918   -8878.9514   -16542.721    19397.542    3.5333548 
    1650    479.37897   -8932.4264    -8878.951   -16541.998    19397.542    3.5648125 
    1660    474.97776   -8931.9337   -8878.9492   -16284.173    19397.542    3.5952514 
    1670    481.99089    -8932.719   -8878.9522   -15990.017    19397.542    3.6221631 
    1680      474.213   -8931.8498   -8878.9506   -15457.654    19397.542    3.6454728 
    1690    462.13083    -8930.502   -8878.9506   -14731.806    19397.542     3.665115 
    1700    458.63731   -8930.1109   -8878.9492   -14389.905    19397.542    3.6801149 
    1710    473.55465   -8931.7771   -8878.9513   -14547.389    19397.542    3.6915037 
    1720    483.59001    -8932.897   -8878.9518   -15013.331    19397.542    3.7021408 
    1730    481.36556   -8932.6472   -8878.9501   -15645.926    19397.542    3.7142289 
    1740    484.05437   -8932.9483   -8878.9513   -16474.749    19397.542    3.7288904 
    1750    482.16869   -8932.7383   -8878.9516   -16722.219    19397.542     3.747119 
    1760    470.26243   -8931.4082   -8878.9497   -16475.495    19397.542    3.7689551 
    1770    472.75321   -8931.6852   -8878.9489   -16480.419    19397.542    3.7930019 
    1780    495.80424   -8934.2609   -8878.9532   -16801.632    19397.542     3.817904 
    1790    498.29189   -8934.5359   -8878.9506   -17030.699    19397.542    3.8432118 
    1800    497.22115   -8934.4163   -8878.9505   -17233.599    19397.542    3.8677962 
    1810    498.13201   -8934.5195   -8878.9521   -17294.852    19397.542    3.8916583 
    1820    485.17576   -8933.0725   -8878.9504   -16971.976    19397.542    3.9157232 
    1830    479.44537   -8932.4337   -8878.9509   -16627.564    19397.542    3.9391486 
    1840    478.88134   -8932.3712   -8878.9513   -16398.764    19397.542    3.9621449 
    1850     478.6415   -8932.3435   -8878.9503   -16406.049    19397.542    3.9857213 
    1860     486.1211   -8933.1789   -8878.9514   -16705.544    19397.542    4.0086822 
    1870    492.79459   -8933.9238   -8878.9519   -17221.514    19397.542    4.0297149 
    1880    491.36379   -8933.7648   -8878.9525   -18037.772    19397.542    4.0499732 
    1890    475.70955   -8932.0166   -8878.9505   -18910.363    19397.542    4.0709101 
    1900    464.92588   -8930.8141   -8878.9509   -19819.272    19397.542    4.0929306 
    1910    455.59431   -8929.7727   -8878.9505   -20229.987    19397.542    4.1160109 
    1920    452.87672   -8929.4684   -8878.9493   -20242.611    19397.542    4.1384657 
    1930    467.97161   -8931.1539   -8878.9509   -20369.825    19397.542    4.1581839 
    1940    485.34862   -8933.0926   -8878.9512   -20514.477    19397.542    4.1756159 
    1950    495.78252   -8934.2578   -8878.9525   -20428.878    19397.542    4.1936772 
    1960    500.11778   -8934.7389     -8878.95   -20591.437    19397.542    4.2145461 
    1970    511.99695   -8936.0681    -8878.954   -21344.221    19397.542    4.2363696 
    1980    499.23942   -8934.6421   -8878.9512   -21654.428    19397.542    4.2540635 
    1990    487.56603   -8933.3391   -8878.9504    -21588.86    19397.542    4.2657075 
    2000    485.14508   -8933.0707    -8878.952   -21134.343    19397.542    4.2770463 
Loop time of 1470.16 on 16 procs for 2000 steps with 864 atoms

Performance: 0.118 ns/day, 204.189 hours/ns, 1.360 timesteps/s
96.8% CPU use with 16 MPI tasks x 1 OpenMP threads

MPI task timing breakdown:
Section |  min time  |  avg time  |  max time  |%varavg| %total
---------------------------------------------------------------
Pair    | 271.03     | 688.52     | 1469.4     |1204.3 | 46.83
Bond    | 0.00014806 | 0.0004508  | 0.0010023  |   0.0 |  0.00
Neigh   | 0.014556   | 0.032166   | 0.063958   |   8.6 |  0.00
Comm    | 0.40348    | 679.74     | 1053.4     |1158.0 | 46.24
Output  | 0.31406    | 34.247     | 69.414     | 463.1 |  2.33
Modify  | 0.0086427  | 0.0096721  | 0.011761   |   0.9 |  0.00
Other   |            | 67.6       |            |       |  4.60

Nlocal:        54.0000 ave          90 max          29 min
Histogram: 3 3 0 2 3 1 0 2 0 2
Nghost:        493.750 ave         643 max         369 min
Histogram: 3 1 0 3 2 2 1 2 0 2
Neighs:         0.00000 ave           0 max           0 min
Histogram: 16 0 0 0 0 0 0 0 0 0
FullNghs:      2706.00 ave        5944 max         890 min
Histogram: 6 0 2 1 3 0 2 0 0 2

Total # of neighbors = 43296
Ave neighs/atom = 50.111111
Ave special neighs/atom = 0.0000000
Neighbor list builds = 200
Dangerous builds = 200
Setting up Verlet run ...
  Unit style    : metal
  Current step  : 2000
  Time step     : 0.001
Per MPI rank memory allocation (min/avg/max) = 8.894 | 8.909 | 8.920 Mbytes
Step Temp PotEng TotEng Press Volume c_msd[4] 
    2000        787.5   -8933.0707   -8845.2239   -19277.117    19397.542    4.2770463 
    2010    700.09734   -8923.4733   -8845.3764   -16741.864    19386.193    4.3021628 
    2020    579.50278   -8910.2517   -8845.6073   -12397.312    19354.984    4.3275344 
    2030    602.82679   -8912.9038   -8845.6575   -10875.362    19308.755    4.3421291 
    2040    642.43171   -8917.1205   -8845.4563   -9901.1047    19249.876    4.3449556 
    2050    660.20522   -8918.7296   -8845.0828   -7830.5332    19180.087    4.3402743 
    2060    672.97659   -8919.6503   -8844.5788   -5076.8942    19102.409    4.3307998 
    2070    682.31633   -8920.0974   -8843.9839   -2209.0297    19020.777    4.3205335 
    2080    683.06662   -8919.5187   -8843.3216    722.29754    18939.277    4.3114588 
    2090    671.80107   -8917.4973   -8842.5569    3841.6057    18861.909    4.3011073 
    2100    669.36874    -8916.289   -8841.6199    6877.2141    18792.479    4.2864583 
    2110    683.43334   -8916.7305   -8840.4925    9334.8901    18734.277    4.2664989 
    2120    719.99893   -8919.5586   -8839.2416    10978.121    18689.549    4.2434595 
    2130    724.29771    -8918.774   -8837.9775    12274.112    18659.397    4.2217693 
    2140    714.18446   -8916.4884   -8836.8201    12479.959    18644.225    4.2025427 
    2150    734.74563   -8917.7511   -8835.7891    11065.605    18643.226     4.184307 
    2160    746.36143   -8918.1145   -8834.8568    9474.6608    18654.179    4.1672987 
    2170    741.68535   -8916.7687   -8834.0326    7916.2345    18674.705    4.1532492 
    2180    711.52161   -8912.6504   -8833.2791    6373.9865    18702.644    4.1442939 
    2190    695.96295    -8910.161   -8832.5253    4116.5285    18735.901    4.1414388 
    2200    733.95445   -8913.5506   -8831.6769    1064.8462     18771.78    4.1438153 
    2210    746.90839   -8914.0735   -8830.7547   -730.51314    18807.091     4.150661 
    2220    736.47904   -8912.0142   -8829.8588   -1351.5889    18839.922    4.1620642 
    2230    739.53408   -8911.4749   -8828.9788   -1652.0892    18869.648    4.1769127 
    2240     734.7461   -8910.0442   -8828.0821   -1797.6151    18896.105    4.1947334 
    2250    747.66292   -8910.5583   -8827.1554   -2251.6277    18919.262     4.216103 
    2260    746.78978   -8909.5082   -8826.2027   -2467.0255    18938.866    4.2420471 
    2270    751.43331   -8909.0822   -8825.2587    -2449.995    18954.862    4.2719965 
    2280    766.79462   -8909.8634   -8824.3263   -2357.5568    18967.417     4.304575 
    2290    765.57845   -8908.8218   -8823.4204   -1780.8394    18976.873    4.3373626 
    2300    773.07453   -8908.7944   -8822.5567   -1686.1214    18983.894    4.3645913 
    2310    771.66537   -8907.8176   -8821.7372   -1683.4239    18988.743    4.3836322 
    2320    775.76403   -8907.5197   -8820.9821   -1640.5428    18991.522    4.3930217 
    2330     781.9067   -8907.4957   -8820.2728   -1142.9218    18992.414    4.3939629 
    2340    785.62657   -8907.2325   -8819.5946   -674.28367    18991.999    4.3922489 
    2350     803.9102   -8908.6268   -8818.9494   -958.44768    18990.753    4.3925017 
    2360      793.344    -8906.856   -8818.3573   -1031.8375    18988.493    4.3924232 
    2370    785.05337   -8905.4038   -8817.8299   -956.37232    18985.158    4.3874159 
    2380    786.25833   -8905.0517   -8817.3434   -1232.5688     18980.77    4.3743416 
    2390    783.17902   -8904.2397   -8816.8749   -1154.2609    18975.137    4.3533519 
    2400    809.52519   -8906.7047    -8816.401   -877.56141    18968.367    4.3281294 
    2410    814.74865   -8906.8196   -8815.9332     203.7278    18960.854    4.3032766 
    2420    800.19733   -8904.7753   -8815.5121    1355.7393    18953.756    4.2803285 
    2430    805.86747   -8905.0205   -8815.1247    1346.6177     18948.24    4.2623332 
    2440    816.68596   -8905.8757   -8814.7732    1103.4489    18944.373    4.2522455 
    2450    823.17838   -8906.3073   -8814.4805    1033.6892    18941.863    4.2485591 
    2460    831.86309   -8907.0788   -8814.2832     1459.967    18940.652    4.2470866 
    2470    835.08115   -8907.3584   -8814.2039    1606.3414    18941.098    4.2451425 
    2480    821.81482   -8905.9158   -8814.2412    1426.2915    18943.328    4.2433159 
    2490    803.97501   -8904.0323   -8814.3477     596.5418    18947.094     4.242667 
    2500    798.40109   -8903.5438    -8814.481   -789.28255     18951.42    4.2431164 
    2510     803.6754    -8904.286   -8814.6348   -1606.7701    18954.827    4.2462967 
    2520    828.16041   -8907.2295    -8814.847   -1821.1794    18956.404    4.2534903 
    2530    821.02095   -8906.7374   -8815.1513   -971.52524    18956.004    4.2630101 
    2540     801.9911   -8904.9967   -8815.5334   -354.82665    18954.481    4.2711393 
    2550    808.32821   -8906.1334   -8815.9632   -692.85381    18952.486    4.2760754 
    2560    826.47357   -8908.6543   -8816.4599    -1824.059    18949.643    4.2799971 
    2570    840.00352   -8910.7762   -8817.0726   -2467.0215    18944.842    4.2851474 
    2580     820.2905   -8909.3089   -8817.8042   -2236.0945    18937.414    4.2922936 
    2590     778.0443   -8905.3477   -8818.5557   -1615.6801    18927.585    4.2999886 
    2600    781.00788   -8906.3793   -8819.2567   -970.90375    18916.078    4.3061164 
    2610    792.41167   -8908.3058   -8819.9111   -637.40631    18903.602    4.3118632 
    2620    794.70223   -8909.1665   -8820.5162   -391.43199    18890.593    4.3152927 
    2630    816.80991   -8912.2317   -8821.1153   -215.22369    18877.319    4.3149407 
    2640    809.55037    -8912.033   -8821.7265    1091.0368     18864.14    4.3159759 
    2650    805.55705    -8912.208   -8822.3469    2508.2995     18852.41    4.3219829 
    2660    801.05389   -8912.3229   -8822.9641    3206.0284    18843.616    4.3310499 
    2670    814.86588   -8914.4892   -8823.5897     3379.188    18838.502    4.3368605 
    2680      824.847   -8916.2733   -8824.2603    3968.3216    18837.315    4.3333026 
    2690    797.74314   -8913.9467   -8824.9573     4483.052    18840.607    4.3177539 
    2700    795.87275   -8914.4141   -8825.6333    3660.7828    18848.735    4.2945229 
    2710    810.84059   -8916.7389   -8826.2884    2256.9891    18860.801    4.2710666 
    2720    793.95409   -8915.4808   -8826.9141    1045.3125     18875.26    4.2500458 
    2730    790.08711   -8915.6205   -8827.4851   -352.44191    18890.672    4.2322176 
    2740    797.90113   -8917.0125   -8828.0054   -1846.6287    18905.469    4.2227758 
    2750    793.94726    -8917.074    -8828.508   -3058.3013    18917.991    4.2251784 
    2760    781.60259   -8916.1868   -8828.9979   -3226.0465        18927    4.2395894 
    2770    784.24607   -8916.9383   -8829.4545   -3302.1283    18932.239    4.2641394 
    2780    812.23259    -8920.521   -8829.9153   -3635.9408    18933.622    4.2969758 
    2790    815.46531   -8921.3981   -8830.4317   -3275.0044    18930.917    4.3363968 
    2800    790.13286   -8919.1148   -8830.9743   -2317.9714    18924.611     4.376985 
    2810    793.15118   -8919.9832    -8831.506   -2365.0822    18915.659     4.411725 
    2820    795.06161   -8920.7189   -8832.0286   -2679.2658     18904.13    4.4395138 
    2830    791.03743   -8920.7859   -8832.5445   -2599.8472    18889.764    4.4638298 
    2840    797.53439   -8922.0192   -8833.0531   -1816.6489    18872.751    4.4876522 
    2850    806.40593   -8923.5182   -8833.5624   -713.00932    18853.966    4.5128363 
    2860    799.63875   -8923.2761   -8834.0752    554.52151    18834.657     4.542332 
    2870    781.18631   -8921.6946    -8834.552     1733.109    18816.255    4.5753178 
    2880    792.93249    -8923.443   -8834.9902    1681.7087    18799.931    4.6069025 
    2890    806.35003   -8925.3764   -8835.4269    1245.4011    18785.695    4.6365504 
    2900     814.6409    -8926.772   -8835.8976    824.21387    18773.054    4.6684721 
    2910    813.57603   -8927.1684   -8836.4128    400.11224    18761.512    4.7069847 
    2920    811.53876   -8927.4892   -8836.9608   -514.76883    18750.519    4.7520196 
    2930    813.14028   -8928.2523   -8837.5453   -1821.1168     18739.05    4.7974121 
    2940    805.85143   -8928.0481   -8838.1542   -2289.2076    18725.831    4.8349246 
    2950    803.60912    -8928.418   -8838.7742   -2625.5846    18710.261    4.8620874 
    2960    798.60732   -8928.4758     -8839.39    -2766.132        18692    4.8827432 
    2970    802.00051   -8929.4532   -8839.9888   -2361.8111    18670.967    4.9017311 
    2980     810.3864    -8930.972   -8840.5722   -1780.8876    18647.626    4.9240184 
    2990    798.06851   -8930.1673   -8841.1416   -1164.2089    18622.673    4.9520798 
    3000    789.72975   -8929.7623   -8841.6668   -1410.6787     18596.71    4.9837129 
    3010    809.39679   -8932.4644    -8842.175    -2284.907    18569.524    5.0160943 
    3020    792.04523   -8931.0373   -8842.6835   -1791.6111    18540.414    5.0485179 
    3030    763.13298   -8928.2448   -8843.1162   -502.52166    18509.892    5.0822845 
    3040    805.96085   -8933.3893   -8843.4832    -14.72154    18479.222    5.1200239 
    3050     832.4681   -8936.7317   -8843.8686    924.55397    18449.089    5.1638989 
    3060     803.2251   -8933.8863   -8844.2853    2721.1816    18420.552    5.2124327 
    3070    780.60331   -8931.7546   -8844.6771    3820.1703    18395.357    5.2617137 
    3080    783.45579   -8932.4223   -8845.0266    3320.4785    18374.543    5.3093098 
    3090    813.62852   -8936.1453   -8845.3838      1574.18    18357.518    5.3550948 
    3100    824.65396   -8937.7916   -8845.8002    127.55902    18342.495    5.4008279 
    3110    819.82157   -8937.7302   -8846.2778   -407.36753    18327.963     5.447024 
    3120    837.36226   -8940.2256   -8846.8165   -1495.4083    18313.181    5.4926645 
    3130    865.26272   -8943.9937   -8847.4724   -2984.4049    18297.026    5.5375246 
    3140    873.15153   -8945.6885   -8848.2871    -4048.193    18278.026    5.5851856 
    3150    862.30641   -8945.4324   -8849.2408   -4438.3337    18255.144    5.6390566 
    3160    833.55072   -8943.2169   -8850.2331   -4301.6888    18228.024    5.6973728 
    3170    821.93363   -8942.8516   -8851.1637   -3916.2584    18196.916    5.7534957 
    3180     837.7036    -8945.486   -8852.0389   -3761.5126    18162.245     5.803092 
    3190    838.88709   -8946.4492   -8852.8701   -2829.6356    18124.401     5.848178 
    3200    847.55998   -8948.2049   -8853.6583   -1396.2524    18084.461    5.8915512 
    3210    840.53924   -8948.1805   -8854.4171    356.79961    18043.994    5.9346474 
    3220    793.38292   -8943.5838   -8855.0807      2122.18    18004.824    5.9788012 
    3230    798.38106   -8944.6712   -8855.6106     2866.931    17968.699    6.0252039 
    3240    859.99346   -8952.0795    -8856.146    2419.5021    17936.276    6.0737999 
    3250    855.97905   -8952.2579   -8856.7721    3227.1274    17907.288    6.1211989 
    3260    847.07847   -8951.9566   -8857.4638    3749.1439      17882.3    6.1608562 
    3270    874.37219   -8955.7928   -8858.2552     3082.427    17861.676    6.1906761 
    3280     880.4539   -8957.4004   -8859.1845    2081.8415    17844.691    6.2144829 
    3290    865.78894   -8956.7908   -8860.2107    1385.8436    17830.277    6.2372995 
    3300    842.70715   -8955.2333   -8861.2281    746.35142    17817.642    6.2615124 
    3310    864.33092   -8958.6409   -8862.2234   -731.15916    17805.991    6.2865282 
    3320    872.26043   -8960.5627   -8863.2607   -1829.8608    17793.961    6.3143782 
    3330      869.945   -8961.3635   -8864.3199   -2271.2874    17780.505    6.3443661 
    3340    906.64144   -8966.6048   -8865.4675   -3022.6336    17765.108    6.3723326 
    3350    888.71667   -8965.8381   -8866.7004   -2608.0564    17747.256    6.3989284 
    3360    894.10549   -8967.6998    -8867.961   -2214.3036    17727.302    6.4259002 
    3370    910.92763   -8970.8812   -8869.2658   -2566.1776    17705.639    6.4559356 
    3380    931.13828   -8974.5367   -8870.6668   -3355.7389    17681.998     6.493202 
    3390    935.96899   -8976.6035   -8872.1948   -3781.5614    17655.735    6.5414156 
    3400     916.2063   -8975.9837   -8873.7795    -3606.225    17626.546    6.6000343 
    3410    934.86715   -8979.6942   -8875.4083   -3143.3206    17594.691     6.663706 
    3420    923.06211   -8980.0516   -8877.0826   -1796.0814     17560.78    6.7264528 
    3430    893.37833   -8978.3374   -8878.6797   -505.95369    17526.138    6.7842529 
    3440    896.64949   -8980.2247   -8880.2021     265.6362    17492.044    6.8388173 
    3450    892.20027    -8981.196   -8881.6697    1058.9343    17459.281     6.889843 
    3460    907.60403   -8984.3509   -8883.1063     1617.794    17428.596    6.9346628 
    3470    942.69825   -8989.7927   -8884.6333    1788.1848    17400.459    6.9734915 
    3480    914.09517   -8988.2406   -8886.2719    2698.5392    17375.023    7.0093965 
    3490    865.68799   -8984.3959   -8887.8271    3902.8933    17353.047    7.0434269 
    3500     891.6889   -8988.7772    -8889.308    3138.8431    17335.335    7.0762104 
    3510    914.57497   -8992.8732    -8890.851    1766.2661    17321.139    7.1126942 
    3520    911.37649   -8994.1233   -8892.4579    720.93967      17309.1    7.1539398 
    3530    931.47973    -8998.067   -8894.1591    686.34874    17298.217    7.1955643 
    3540    927.72136   -8999.4351   -8895.9464    1878.4346     17288.45    7.2336321 
    3550    921.62641   -9000.5679   -8897.7591    3686.6163    17280.831    7.2692013 
    3560    913.81682   -9001.4981   -8899.5604    5020.9889    17276.892    7.3026747 
    3570    893.46678   -9000.9776     -8901.31     4458.942    17277.644    7.3351929 
    3580    877.63256   -9000.8499   -8902.9487    2099.0187    17282.418     7.367743 
    3590    890.21005   -9003.8161   -8904.5118   -1041.7638    17288.953    7.4003513 
    3600    905.84184   -9007.1582   -8906.1102   -3532.4036    17294.351    7.4305393 
    3610    891.57066   -9007.2331    -8907.777   -4333.9171    17296.416    7.4532008 
    3620    867.56108   -9006.1982   -8909.4204   -4144.8044    17294.469     7.471446 
    3630    884.01577    -9009.656   -8911.0427   -4636.5488    17288.614    7.4951828 
    3640    900.61187   -9013.1921   -8912.7275   -4685.4271    17278.611    7.5293908 
    3650    875.24962   -9012.0677   -8914.4323   -3489.8679    17264.567    7.5736649 
    3660    864.90743   -9012.5432   -8916.0615   -1384.6649    17247.715     7.623538 
    3670    876.63709   -9015.4391   -8917.6489    853.96216    17230.034    7.6760069 
    3680    853.31555   -9014.3565   -8919.1679    3346.7676    17213.685    7.7269481 
    3690    867.95906   -9017.4573   -8920.6351    4317.7795    17200.774    7.7695718 
    3700    877.08782   -9019.9817   -8922.1413    4073.7779    17192.141    7.8040698 
    3710    878.95674   -9021.7293   -8923.6803    2696.5904    17187.427    7.8376205 
    3720    880.90736   -9023.5322   -8925.2656    874.84509    17185.327    7.8739985 
    3730    867.37845   -9023.6126   -8926.8553   -337.56997     17184.14    7.9095757 
    3740    847.25978   -9022.9195   -8928.4064   -24.295107    17182.789    7.9432758 
    3750    834.42947   -9022.9571   -8929.8752    710.89126    17181.477    7.9755547 
    3760    851.08223    -9026.251   -8931.3115    1128.1658    17180.833    8.0095581 
    3770    859.15176     -9028.59   -8932.7503    1426.4191    17181.258      8.05008 
    3780    862.20453   -9030.3906   -8934.2104    2144.7216    17183.057    8.0970253 
    3790    865.06711   -9032.2042   -8935.7047    3138.3955     17186.83    8.1446826 
    3800    855.96861   -9032.6919   -8937.2073     3873.169    17193.447    8.1833333 
    3810      851.267   -9033.6535   -8938.6934     3990.927    17203.496    8.2072015 
    3820     855.0935    -9035.559    -8940.172    3406.0042    17217.001    8.2209682 
    3830    853.45161   -9036.8534   -8941.6496    2845.7163    17233.437    8.2324352 
    3840    850.68161   -9038.0058    -8943.111    2536.9289    17252.244    8.2461272 
    3850    861.10376   -9040.6479   -8944.5905    1810.2089    17273.006    8.2599918 
    3860    827.88199   -9038.3912   -8946.0397    1215.7894    17295.096    8.2697199 
    3870    803.44493   -9036.9979   -8947.3725   -214.57488    17317.811    8.2717419 
    3880    806.67083     -9038.57   -8948.5847   -2465.8049    17339.801    8.2647146 
    3890    814.35636   -9040.5639   -8949.7212   -4580.7734    17359.023    8.2537846 
    3900    818.88431   -9042.2016   -8950.8539   -5441.8102    17373.598    8.2441493 
    3910     794.8428   -9040.6351   -8951.9692   -4229.0992    17382.893    8.2374024 
    3920    779.51438   -9039.9778   -8953.0218   -2310.1762    17388.025    8.2292809 
    3930    787.66949   -9041.8721   -8954.0064    -818.2192    17390.817    8.2182857 
    3940    800.15944   -9044.1989   -8954.9399    177.44108    17392.764    8.2063599 
    3950    823.84695   -9047.7768   -8955.8754    28.458341    17394.759    8.1949707 
    3960    821.45024   -9048.4633   -8956.8293   -458.25241    17396.745    8.1854535 
    3970    833.80526   -9050.8342    -8957.822   -1158.0547    17398.246    8.1750562 
    3980    827.61058   -9051.1869   -8958.8656   -1442.4217    17398.659    8.1653573 
    3990    814.80758   -9050.8068   -8959.9138   -1267.9218    17397.764    8.1571662 
    4000    846.26517   -9055.4107   -8961.0086   -2282.2176    17395.547    8.1484018 
    4010    847.92971   -9056.7695   -8962.1817   -1709.1412    17391.352     8.142787 
    4020    842.97857   -9057.4509   -8963.4154    220.81949    17385.726    8.1407369 
    4030    851.19407   -9059.6458   -8964.6938     1678.996    17380.374    8.1401735 
    4040    846.18951   -9060.4185   -8966.0248    3376.2589    17376.781    8.1380768 
    4050    829.72236   -9059.9025   -8967.3457      4219.79    17376.411      8.13185 
    4060    824.55724   -9060.5965   -8968.6159    2758.1295    17379.891    8.1214161 
    4070    834.68112   -9062.9628   -8969.8529    46.098318    17385.836    8.1084707 
    4080    820.23866   -9062.5811   -8971.0822   -1397.5687    17391.787    8.0943576 
    4090    779.90239   -9059.2231   -8972.2238   -576.65894    17396.496    8.0788881 
    4100    790.28045   -9061.4254   -8973.2685   -361.47112    17400.499    8.0630201 
    4110    808.16271   -9064.4221   -8974.2703   -202.39687    17404.091    8.0476776 
    4120    816.33112   -9066.3456   -8975.2826    261.70397    17407.454    8.0316525 
    4130     794.5985   -9064.8997   -8976.2611    460.97479    17410.982    8.0158759 
    4140    773.71757   -9063.4755   -8977.1661    724.34423    17414.874    8.0038444 
    4150    771.24691   -9064.0001   -8977.9664    1198.2681    17419.397    7.9981571 
    4160    788.68021   -9066.6876   -8978.7091    1340.1621     17424.97    7.9953643 
    4170    789.48167   -9067.4962   -8979.4283    1158.8579    17431.704    7.9909014 
    4180    813.43809   -9070.9044   -8980.1641    277.60803    17439.356    7.9867481 
    4190    807.92679   -9071.0742   -8980.9488    32.343801    17447.189    7.9823785 
    4200    771.17285   -9067.7464   -8981.7209    881.38004    17454.996    7.9702602 
    4210    759.61229   -9067.1505   -8982.4146    955.58249    17463.426    7.9497386 
    4220    766.76479   -9068.5512   -8983.0174    343.37427    17472.555    7.9329422 
    4230    758.71796   -9068.1937   -8983.5576    398.88241    17481.899    7.9280315 
    4240    743.04275   -9066.9053   -8984.0178     511.0091    17491.502    7.9307698 
    4250    770.31945   -9070.3335   -8984.4032   -607.32868    17501.322    7.9323651 
    4260    790.17814   -9072.8975   -8984.7519   -1015.2288    17510.448    7.9312385 
    4270    792.98364   -9073.5527   -8985.0942   -878.13789    17518.471    7.9307013 
    4280    811.98301   -9076.0469    -8985.469   -771.74092    17525.501    7.9277838 
    4290    790.19066   -9074.0264   -8985.8795    69.791081    17531.737    7.9229425 
    4300    766.19242   -9071.7581   -8986.2882     486.7357    17537.882    7.9210245 
    4310    769.82689   -9072.5364    -8986.661    513.27194    17544.393    7.9267646 
    4320    778.96042   -9073.9015   -8987.0073    237.65024    17551.307    7.9386546 
    4330    783.71283   -9074.7653   -8987.3409   -1371.4961    17558.221    7.9515307 
    4340    767.26765   -9073.2372   -8987.6473   -2825.9496    17563.708    7.9619802 
    4350    754.59475   -9072.0734   -8987.8973   -3555.4307    17566.408    7.9715598 
    4360    772.94878   -9074.3201   -8988.0965     -3749.08    17565.632    7.9853509 
    4370    773.93911   -9074.5975   -8988.2635   -2516.9337    17561.335    8.0053137 
    4380    766.29582   -9073.8698   -8988.3884   -422.78393    17554.727    8.0271225 
    4390    780.87322    -9075.568   -8988.4604    918.38691    17547.747    8.0426945 
    4400    813.68301   -9079.2917   -8988.5242    1862.4225    17541.751    8.0475711 
    4410    812.85293   -9079.3167   -8988.6417    2915.6729    17537.671    8.0447647 
    4420    792.56584   -9077.2375   -8988.8256    4317.6766    17536.543    8.0368519 
    4430    773.76754   -9075.3442   -8989.0293    4144.4787    17539.486    8.0276512 
    4440     790.7141   -9077.4278   -8989.2224    1823.7016    17546.257    8.0234303 
    4450    809.02065   -9079.6607   -8989.4132   -816.90234    17554.703     8.021607 
    4460    825.53524   -9081.7409   -8989.6512   -2612.2057    17562.303    8.0200348 
    4470    822.31928   -9081.7055   -8989.9745   -3371.4372    17567.361    8.0199971 
    4480    791.93185   -9078.7048   -8990.3636   -3569.2314    17569.133    8.0191452 
    4490    792.00403   -9079.1288   -8990.7795   -4215.2744    17567.336    8.0143168 
    4500    799.82374   -9080.4397   -8991.2182   -4911.1632    17561.446    8.0076512 
    4510    795.85618   -9080.4807   -8991.7018   -4730.7269    17550.914    8.0072721 
    4520    775.88603    -9078.744   -8992.1927   -3255.5395    17536.054    8.0194774 
    4530    798.89546   -9081.7948   -8992.6768   -2487.8385    17518.146    8.0413328 
    4540    822.44529    -9084.931    -8993.186   -1324.6045    17498.093    8.0664076 
    4550    832.72581   -9086.6706   -8993.7788    151.64245    17477.042    8.0961319 
    4560     800.3433   -9083.7069   -8994.4274    1302.1744    17456.433    8.1342897 
    4570    786.54305   -9082.8077   -8995.0676    1571.7981    17437.314    8.1773577 
    4580    810.22174   -9086.0863   -8995.7049    2352.3339    17420.048    8.2222316 
    4590    793.87906   -9084.8904    -8996.332    3583.6334    17405.358     8.268169 
    4600    786.03202   -9084.6119   -8996.9288    4131.9377    17394.282    8.3106823 
    4610    794.83381   -9086.1803   -8997.5154    4641.5778    17387.353    8.3465884 
    4620    803.24184   -9087.7178    -8998.115    5015.4267    17384.977    8.3775544 
    4630    821.95637   -9090.4643   -8998.7738    4561.8721    17387.349    8.4042856 
    4640    804.48606   -9089.2286    -8999.487     3928.952    17394.047    8.4289971 
    4650    802.10299   -9089.6943   -9000.2185    2039.6789    17404.293    8.4546091 
    4660     785.3705   -9088.5346   -9000.9253   -200.01002    17416.318    8.4846325 
    4670    783.84703   -9089.0134   -9001.5741   -2075.9525    17427.999    8.5181213 
    4680    812.82099   -9092.8784    -9002.207   -4578.1722    17437.403    8.5495232 
    4690    796.70642   -9091.7268    -9002.853   -5171.6328     17442.44    8.5749208 
    4700    798.55217   -9092.6053   -9003.5256    -4765.409    17442.476    8.5986311 
    4710    776.25772   -9090.7924   -9004.1996   -3195.6609    17438.047    8.6248576 
    4720    772.64405   -9090.9998   -9004.8101   -2627.8594     17430.53     8.654593 
    4730     801.5311   -9094.7873   -9005.3753   -3492.1288    17420.494    8.6917496 
    4740    780.36093   -9092.9828   -9005.9323   -3387.6302    17407.393    8.7389265 
    4750    753.55095   -9090.4967   -9006.4369   -2794.4755    17391.323    8.7905124 
    4760    779.53218   -9093.8483   -9006.8903     -2384.79    17372.854    8.8402718 
    4770    809.67043   -9097.6631   -9007.3432   -1277.8759     17352.51     8.889565 
    4780    799.86006   -9097.0386    -9007.813    1289.5154    17331.461    8.9418112 
    4790    769.86013   -9094.1072   -9008.2281     4151.031     17312.09     8.990877 
    4800    779.59548   -9095.5664   -9008.6014    4915.1806    17296.849    9.0296102 
    4810    788.98604   -9096.9758   -9008.9632    4422.6835    17286.466    9.0534092 
    4820    798.88849   -9098.4627   -9009.3455    3495.3865    17280.399    9.0615076 
    4830    810.50611    -9100.176   -9009.7628    2210.6296    17277.687    9.0624091 
    4840    801.04326   -9099.5945   -9010.2369    1236.9173    17277.131    9.0647368 
    4850     787.1073   -9098.5287   -9010.7257    769.36355    17277.807    9.0760002 
    4860    795.28743   -9099.9457   -9011.2302    120.48163    17279.162    9.0936936 
    4870    772.41374    -9097.883   -9011.7191    443.27948    17280.716    9.1034837 
    4880    784.21619   -9099.6591   -9012.1787    619.09714    17282.683    9.1043407 
    4890    797.97898   -9101.6632   -9012.6474    292.01361    17285.172    9.1020453 
    4900    770.16133   -9099.0279   -9013.1153   -19.230729    17287.884    9.0947217 
    4910    761.04851   -9098.4329   -9013.5368    -726.7178    17290.511    9.0844336 
    4920    771.35248   -9099.9445    -9013.899   -2710.0225    17292.278    9.0794061 
    4930    744.53244   -9097.2341   -9014.1804   -3294.5542    17291.616    9.0816928 
    4940     721.9314   -9094.8764   -9014.3439   -2810.3228    17287.961    9.0892809 
    4950    785.67526    -9102.065   -9014.4218    -3967.945    17281.546    9.1001006 
    4960    792.10907   -9102.8434   -9014.4825   -3883.0929    17271.621    9.1102756 
    4970    753.28456   -9098.5636   -9014.5336   -2381.8282    17258.342    9.1211657 
    4980    790.92435   -9102.7859   -9014.5571   -2733.6084    17242.864    9.1419692 
    4990    794.39727   -9103.1896   -9014.5734   -2211.7188    17225.182     9.173163 
    5000    808.52546   -9104.8184   -9014.6262   -943.25566    17205.777    9.2051802 
Loop time of 1966.63 on 16 procs for 3000 steps with 864 atoms

Performance: 0.132 ns/day, 182.095 hours/ns, 1.525 timesteps/s
96.8% CPU use with 16 MPI tasks x 1 OpenMP threads

MPI task timing breakdown:
Section |  min time  |  avg time  |  max time  |%varavg| %total
---------------------------------------------------------------
Pair    | 444.39     | 1171.1     | 1944       |1513.5 | 59.55
Bond    | 0.00036311 | 0.0010271  | 0.0019526  |   1.5 |  0.00
Neigh   | 0.022276   | 0.056156   | 0.10187    |  11.3 |  0.00
Comm    | 8.905      | 599.09     | 1347.2     |1825.6 | 30.46
Output  | 0.24548    | 0.24944    | 0.30553    |   2.9 |  0.01
Modify  | 13.342     | 196.11     | 638.68     |1402.1 |  9.97
Other   |            | 0.01688    |            |       |  0.00

Nlocal:        54.0000 ave          89 max          27 min
Histogram: 5 1 2 0 1 1 1 1 1 3
Nghost:        551.938 ave         758 max         367 min
Histogram: 3 1 1 3 0 2 1 3 0 2
Neighs:         0.00000 ave           0 max           0 min
Histogram: 16 0 0 0 0 0 0 0 0 0
FullNghs:      3051.38 ave        6195 max         666 min
Histogram: 5 1 2 0 2 0 2 0 0 4

Total # of neighbors = 48822
Ave neighs/atom = 56.506944
Ave special neighs/atom = 0.0000000
Neighbor list builds = 300
Dangerous builds = 300
Setting up Verlet run ...
  Unit style    : metal
  Current step  : 5000
  Time step     : 0.001
Per MPI rank memory allocation (min/avg/max) = 8.895 | 8.912 | 8.921 Mbytes
Step Temp PotEng TotEng Press Volume c_msd[4] 
    5000    808.52546   -9104.8184   -9014.6262   -943.25566    17205.777    9.2051802 
    5010    790.97537   -9102.8824   -9014.6479   -1122.4366    17205.305    9.2068146 
    5020    763.26836    -9099.828   -9014.6842   -981.64853    17203.794    9.2111551 
    5030    773.38172   -9100.9531   -9014.6812   -287.40135    17201.405    9.2186765 
    5040    800.97313   -9103.9953   -9014.6455     34.61213    17198.717     9.230944 
    5050    813.82641   -9105.4238   -9014.6402    298.91099    17196.057     9.250855 
    5060    791.10172   -9102.9169   -9014.6683    2129.1229     17193.88    9.2712536 
    5070    798.88517   -9103.8472   -9014.7303    3725.0384    17193.684    9.2845107 
    5080    776.47908   -9101.4234    -9014.806    5390.0855    17197.045    9.2914109 
    5090    777.81827   -9101.6589   -9014.8921    4495.1385    17205.323    9.2925511 
    5100    790.99702   -9103.1995   -9014.9626    1914.2889    17217.763    9.2864924 
    5110      796.835    -9103.923   -9015.0348    81.157695    17232.137     9.274586 
    5120    778.28483   -9101.9308    -9015.112   -1116.8045    17246.687    9.2584623 
    5130    770.96534   -9101.1885   -9015.1862   -1683.1132    17260.269    9.2349085 
    5140    776.99019   -9101.9156   -9015.2411   -1788.6128    17272.334    9.1991754 
    5150    778.94336   -9102.1759   -9015.2836   -1961.3724    17282.727    9.1539133 
    5160    764.27582   -9100.5675   -9015.3114   -2267.4341    17291.281    9.1083381 
    5170    766.13007   -9100.7573   -9015.2944   -4173.8845    17297.542    9.0643205 
    5180    787.47704    -9103.079   -9015.2348   -5976.9471    17299.848    9.0253786 
    5190    771.90093   -9101.2548   -9015.1481   -5619.5122    17296.649    8.9985838 
    5200    767.91304   -9100.6777   -9015.0158   -3630.1738    17288.231    8.9853951 
    5210    762.88761   -9099.8997   -9014.7985   -1206.5988    17276.373     8.981576 
    5220    779.58211   -9101.4525   -9014.4889    662.20571    17263.328    8.9828651 
    5230    800.13302    -9103.358   -9014.1019    1760.8758    17250.855    8.9861808 
    5240     805.4924   -9103.5489    -9013.695    3453.0916    17240.121    8.9875154 
    5250    795.61928   -9102.0518   -9013.2993    4879.0172    17232.638    8.9852522 
    5260    786.90378   -9100.7032   -9012.9229    5657.5292     17229.76    8.9836004 
    5270    802.44458   -9102.0745   -9012.5606    4089.9753    17232.002     8.986692 
    5280    823.86691   -9104.1273   -9012.2237    2738.0636    17238.187    8.9912176 
    5290     794.4244   -9100.5463   -9011.9271    2191.3784    17247.038    8.9929855 
    5300    759.77409   -9096.3604   -9011.6065    1086.3726    17257.928    8.9994021 
    5310    807.78653   -9101.3216   -9011.2118   -1407.2152    17269.722    9.0159699 
    5320    839.65534   -9104.4888    -9010.824   -2851.4392    17280.282    9.0420164 
    5330    823.13188    -9102.351   -9010.5294   -2841.2172     17288.26    9.0837982 
    5340    826.47029   -9102.5196   -9010.3256   -3582.3304    17293.421    9.1386072 
    5350    848.88919   -9104.9053   -9010.2104   -3722.4591    17295.227    9.1969379 
    5360    848.87623   -9104.9239   -9010.2305   -2448.9133    17293.582    9.2555209 
    5370    857.14333   -9106.0282   -9010.4125   -1086.0289     17289.62     9.315683 
    5380    859.84996   -9106.7061   -9010.7885   -22.499469    17284.619    9.3782549 
    5390    832.53896   -9104.2169   -9011.3459    1179.3576    17279.599    9.4350674 
    5400    803.49635   -9101.6354   -9012.0042    2320.2126    17275.726    9.4805664 
    5410    802.34453   -9102.2055   -9012.7028    1668.5139    17273.908    9.5120215 
    5420    825.25881   -9105.5251   -9013.4662    232.65067    17273.599     9.526259 
    5430    809.56104   -9104.5813   -9014.2736   -99.340676    17273.609    9.5241427 
    5440    820.03965   -9106.5692   -9015.0926    212.52115    17273.578    9.5097461 
    5450    812.77975   -9106.5432   -9015.8764    660.64227     17273.76    9.4916798 
    5460    801.24729   -9105.9666   -9016.5862    169.76424    17274.491    9.4756081 
    5470    814.01516   -9108.0072   -9017.2026   -1255.6298    17275.311    9.4588518 
    5480     813.1748   -9108.4584   -9017.7475   -1492.8747    17275.054    9.4418572 
    5490     787.7926   -9106.0983   -9018.2189   -842.42021    17273.451    9.4262806 
    5500    801.65085   -9108.0365   -9018.6112   -242.47532    17271.056    9.4048811 
    5510    817.73862   -9110.2027   -9018.9828    565.19597    17268.454    9.3820466 
    5520    772.52103   -9105.4987   -9019.3228    1967.6674     17266.47    9.3681425 
    5530     764.8858   -9104.9191    -9019.595    2861.4104     17266.34     9.357538 
    5540    784.79933   -9107.3628   -9019.8172    2784.4656    17268.833    9.3466861 
    5550     777.7298     -9106.77    -9020.013    2708.3736    17274.004    9.3406658 
    5560    797.21693   -9109.1336   -9020.2029    1544.9524    17281.647    9.3380172 
    5570    800.15575   -9109.6626    -9020.404    1297.9059    17290.857    9.3363615 
    5580     790.7222   -9108.8281   -9020.6218    1064.0712    17301.296    9.3374798 
    5590     818.4124   -9112.1686   -9020.8734     -49.9894    17312.673    9.3464562 
    5600    793.17775   -9109.6452    -9021.165    195.52464    17324.132    9.3596312 
    5610    769.48537   -9107.2957   -9021.4585    515.67989    17335.765    9.3679072 
    5620    796.87942   -9110.6189   -9021.7258   -998.55241      17347.7    9.3743401 
    5630    803.82759   -9111.6711    -9022.003   -1825.9593    17358.736    9.3885718 
    5640    777.64623    -9109.037   -9022.2894   -1331.1421    17368.139    9.4095505 
    5650    791.53659   -9110.8615   -9022.5644   -2003.7683    17376.149    9.4313013 
    5660     802.3006   -9112.3343   -9022.8365   -3181.1509    17382.211    9.4550752 
    5670    785.30275   -9110.7323   -9023.1306   -3767.1405     17385.27    9.4809508 
    5680    783.51622   -9110.8355    -9023.433   -4097.8576    17384.717    9.5049088 
    5690    799.25352   -9112.9085   -9023.7505   -4097.1437    17380.246     9.526776 
    5700    799.22429   -9113.2682   -9024.1135   -3453.2394    17371.892    9.5492854 
    5710    773.20543   -9110.7447   -9024.4925   -2076.7997    17360.305    9.5714913 
    5720     781.6863   -9112.0497   -9024.8514    -819.2965    17346.733    9.5904575 
    5730    799.89586   -9114.4371   -9025.2075     46.94758    17332.373    9.6126361 
    5740    767.55682   -9111.1767   -9025.5546    1576.7238     17318.18    9.6404548 
    5750    769.93705   -9111.7565   -9025.8689    2213.0384    17305.433    9.6636608 
    5760    786.51501   -9113.8818   -9026.1448    1776.7171    17294.747    9.6822159 
    5770    803.14582   -9116.0388   -9026.4467    1044.1682    17285.725    9.6975368 
    5780    787.82275   -9114.6543   -9026.7715    953.44767    17277.775    9.7081945 
    5790    782.76333   -9114.4246   -9027.1062     1241.651    17270.791    9.7182309 
    5800    793.36286   -9115.9527   -9027.4519    1409.7161    17264.977    9.7332939 
    5810    788.09964   -9115.7314   -9027.8177     1321.222    17260.475    9.7476415 
    5820    762.07682    -9113.186   -9028.1752    2300.5788     17257.35    9.7568197 
    5830    758.19257   -9113.0593   -9028.4818    2527.7027     17256.33    9.7639818 
    5840    766.24634   -9114.2108   -9028.7348     1779.299     17257.64    9.7666831 
    5850    767.32306   -9114.5434   -9028.9473    311.82251      17260.6    9.7634156 
    5860    790.94424   -9117.3766   -9029.1456   -1793.0667    17263.803    9.7620464 
    5870    801.03503   -9118.7241   -9029.3674   -3222.5871    17265.366    9.7712643 
    5880    799.77706   -9118.8633    -9029.647   -3773.8966    17263.953    9.7890935 
    5890    786.37316      -9117.7   -9029.9789   -3263.3491    17259.068    9.8094398 
    5900     773.0451   -9116.5796   -9030.3452   -2194.5255    17251.109    9.8342741 
    5910    757.35334   -9115.1829    -9030.699   -478.37853    17241.114     9.864099 
    5920    753.80721    -9115.117   -9031.0287    836.14954    17230.611    9.8948761 
    5930    755.00717   -9115.5402    -9031.318     1658.776    17220.873    9.9257127 
    5940    785.70422   -9119.2791   -9031.6326    2029.4134    17212.634    9.9502829 
    5950     774.9479   -9118.4343   -9031.9877    3369.1616    17206.416    9.9642282 
    5960    804.46351   -9122.1887   -9032.4496    2925.0325    17203.189    9.9696764 
    5970    776.99835   -9119.7203   -9033.0449    2197.0672    17202.744    9.9690496 
    5980    732.27385    -9115.375   -9033.6887    1494.1372    17204.397    9.9647934 
    5990     748.9254   -9117.8692   -9034.3255    186.73276    17207.417    9.9623989 
    6000     754.1165   -9119.0729     -9034.95   -1162.2056    17210.618    9.9631754 
    6010    752.60809   -9119.4981   -9035.5435   -1544.5584    17212.866    9.9620131 
    6020    767.47094    -9121.728   -9036.1155   -1471.6107      17213.7     9.956718 
    6030    758.42085   -9121.2622   -9036.6592   -255.14784    17213.253    9.9485359 
    6040    744.18069   -9120.1467   -9037.1322    449.54383    17212.516    9.9377732 
    6050     761.8022    -9122.531   -9037.5508   -28.890502    17212.087    9.9274238 
    6060    727.40885   -9119.0177   -9037.8741    229.23339    17211.731    9.9239476 
    6070    741.38575   -9120.8004   -9038.0977    -536.0449    17211.473     9.922827 
    6080     752.9172   -9122.2242   -9038.2352   -1295.7894    17210.711    9.9205172 
    6090    715.60448   -9118.1087   -9038.2819    -26.42987    17208.926    9.9222317 
    6100    723.15456   -9118.8652   -9038.1962    164.84503     17206.98    9.9228166 
    6110    768.39103   -9123.6942    -9037.979    -777.4094    17205.074    9.9132097 
    6120    753.77082   -9121.7553    -9037.671    75.547656    17202.605    9.8967517 
    6130    758.70435   -9121.9312   -9037.2966    1127.7659    17200.192    9.8775435 
    6140    766.39093   -9122.3144   -9036.8223    1910.3603    17198.801    9.8568066 
    6150    747.68858   -9119.6773   -9036.2715    2627.8101    17199.235    9.8361485 
    6160    761.89639   -9120.6421   -9035.6515      1958.05    17202.061    9.8202469 
    6170    790.14372   -9123.1224   -9034.9807    399.91238    17206.695    9.8155747 
    6180    774.69965   -9120.7453   -9034.3264    -723.6652    17211.818     9.819176 
    6190     783.6519   -9121.1199   -9033.7023   -2515.5538    17216.238    9.8270491 
    6200    812.50102    -9123.758   -9033.1223   -4155.2719    17218.313    9.8366073 
    6210    785.94573   -9120.3122   -9032.6387   -4074.9907    17216.633     9.844828 
    6220    793.48858   -9120.7703   -9032.2555   -4923.7831    17210.973    9.8490466 
    6230    819.19762   -9123.3519   -9031.9692   -5665.0827    17200.583    9.8548865 
    6240    805.58064    -9121.661   -9031.7972   -4547.8959    17184.862    9.8647284 
    6250    804.89215   -9121.4762   -9031.6893   -2315.4459    17164.777      9.88254 
    6260    827.26472   -9123.9014   -9031.6187   -169.26124    17142.286    9.9119826 
    6270    838.50366   -9125.1475   -9031.6112    1859.5398    17119.418    9.9473544 
    6280    821.85346   -9123.3487   -9031.6697    3657.4527     17098.08    9.9865418 
    6290    792.00079   -9120.1436   -9031.7948    4274.3878    17079.849    10.032001 
    6300    772.53688    -9118.098   -9031.9204    4796.5379    17065.446    10.079438 
    6310    763.90152   -9117.2226   -9032.0082    5385.0345     17055.42    10.124001 
    6320    816.06286   -9123.1256   -9032.0926    4596.2605    17050.162    10.158229 
    6330    820.32819   -9123.7102   -9032.2013    4946.3194    17049.269    10.176641 
    6340    841.13002   -9126.2292   -9032.3999    4417.9966    17052.901    10.179807 
    6350    841.30249   -9126.5467   -9032.6981    2756.8041    17060.626    10.177594 
    6360    819.30932   -9124.4846   -9033.0894    940.09899    17071.011    10.176823 
    6370     820.8101   -9125.1084   -9033.5457    3.4285107    17082.499    10.173201 
    6380      789.446   -9122.0883   -9034.0244   -318.63112    17094.197    10.172365 
    6390    765.42014    -9119.836   -9034.4522   -609.20295    17105.772    10.174037 
    6400    814.78147   -9125.7225   -9034.8324   -2644.2821    17116.748    10.167782 
    6410    835.41161   -9128.4456   -9035.2542   -4372.2421    17125.406      10.1531 
    6420    794.27277   -9124.3537   -9035.7514   -3376.8253    17130.317    10.129168 
    6430    769.13119   -9122.0293   -9036.2316   -1758.4388    17132.172    10.095266 
    6440    789.91179   -9124.7604   -9036.6446   -1586.2167    17132.292    10.055725 
    6450    829.11502   -9129.5429   -9037.0538   -2037.7024    17130.878    10.014497 
    6460    819.37564    -9128.888   -9037.4854   -1822.7807    17127.593    9.9723921 
    6470    800.44219   -9127.1928   -9037.9022   -1883.5192    17122.534    9.9348533 
    6480    798.16577   -9127.3268   -9038.2902    -1960.499    17115.655    9.9044544 
    6490    798.79769   -9127.7695   -9038.6624   -1465.1947    17106.864    9.8778976 
    6500      775.768    -9125.516    -9038.978     -144.465    17096.669    9.8600702 
    6510    796.84837   -9128.1513   -9039.2617    420.04598    17086.129    9.8492982 
    6520    794.22901   -9128.1507   -9039.5533    2071.6059    17075.938    9.8478448 
    6530    780.52429   -9126.9113   -9039.8427    3957.9493    17067.558    9.8579173 
    6540    785.06108    -9127.716   -9040.1413    5820.0984    17062.775    9.8748687 
    6550    756.59608   -9124.8072   -9040.4078    7427.3629     17063.36    9.8943299 
    6560    780.85663   -9127.7201   -9040.6144     5962.758    17070.642    9.9148229 
    6570    779.55248   -9127.7039   -9040.7436    3078.6684    17083.531    9.9348777 
    6580    762.08013   -9125.8265   -9040.8153    948.99318    17099.589    9.9506771 
    6590    774.65096   -9127.2373   -9040.8238   -124.56324    17116.891    9.9660535 
    6600    784.62629   -9128.3043   -9040.7781   -473.69491     17134.42    9.9840695 
    6610    789.24651   -9128.7373   -9040.6957    -906.8008    17151.787    10.000008 
    6620    808.20171   -9130.7814   -9040.6253   -2309.0362    17168.469    10.015784 
    6630    796.94046    -9129.489   -9040.5891   -3845.6575    17183.192    10.029094 
    6640    786.65824   -9128.3343   -9040.5813   -5281.1317    17194.489     10.03597 
    6650    782.50894   -9127.8646   -9040.5746   -6349.4863     17200.99    10.040771 
    6660    778.06576   -9127.3773   -9040.5829   -6164.1292    17201.675    10.049845 
    6670    781.73032   -9127.8168   -9040.6136   -5674.5386    17196.533    10.067713 
    6680    779.57677    -9127.631    -9040.668   -4856.9328    17185.933    10.091047 
    6690    752.89204   -9124.6769   -9040.6906   -3165.6555    17170.675    10.114612 
    6700    782.52017    -9127.959   -9040.6677   -2698.6518    17152.073     10.13428 
    6710    780.88969   -9127.7047   -9040.5953    -1203.441    17130.771    10.146643 
    6720     775.0672   -9126.9224   -9040.4625    218.12035    17108.037    10.153265 
    6730    827.53788   -9132.6119   -9040.2988    252.05236    17085.057    10.158816 
    6740    822.03775   -9131.8527   -9040.1532    2200.0858    17062.217    10.166782 
    6750    805.30234    -9129.878   -9040.0453    4582.4091    17041.129    10.179752 
    6760    808.37924   -9130.1462   -9039.9703    6259.0451    17023.957    10.198829 
    6770    812.47418   -9130.5947    -9039.962     6701.073    17012.283    10.223251 
    6780    825.24243   -9132.1301    -9040.073    5694.9212    17006.568    10.252141 
    6790     809.7338   -9130.6558   -9040.3288    4222.0037    17006.021    10.284081 
    6800    785.97407   -9128.3741   -9040.6975    3223.3217    17009.437    10.312492 
    6810    786.62757   -9128.9101   -9041.1606     3333.926    17016.017    10.330683 
    6820    767.40363   -9127.2972   -9041.6922    3449.7329    17025.823    10.336788 
    6830    755.21518   -9126.4924    -9042.247    1859.5942    17038.882    10.328657 
    6840    793.71347   -9131.3453   -9042.8053   -1202.9893    17053.803    10.308905 
    6850    811.06112   -9133.8967   -9043.4216   -3734.3588    17067.882    10.283879 
    6860    776.88318   -9130.7543   -9044.0918   -3787.0443    17078.956     10.25577 
    6870    780.18767   -9131.8035   -9044.7724   -4492.8262    17086.602    10.227226 
    6880    776.82943    -9132.097   -9045.4405   -4858.9913    17090.213    10.205919 
    6890    755.12067   -9130.2759    -9046.041   -4529.5998    17089.398    10.196049 
    6900     765.7678   -9131.9839   -9046.5613   -4767.5262     17084.24    10.194765 
    6910    754.56095   -9131.1708   -9046.9984   -3912.4102    17074.608    10.198607 
    6920    767.66963   -9132.9869   -9047.3522   -2743.4227    17061.148    10.207356 
    6930    772.78668   -9133.8593   -9047.6538   -840.55924    17044.931    10.219358 
    6940    734.64393   -9129.8153   -9047.8647    1064.3936    17027.645    10.233922 
    6950    755.78607   -9132.2921   -9047.9831    120.71565    17010.767    10.252479 
    6960    748.75138   -9131.5385   -9048.0142   -478.52444    16993.738    10.275857 
    6970    743.71982   -9130.9178   -9047.9547   -288.17025    16976.047    10.304427 
    6980    791.19702   -9136.0955   -9047.8363   -829.32696    16957.712    10.340691 
    6990    796.07586   -9136.5074   -9047.7039     589.6237    16938.472    10.387133 
    7000    784.01683   -9135.0181   -9047.5599    3186.9512    16919.558      10.4428 
    7010    812.55083   -9138.0621   -9047.4208    4868.3418    16903.146    10.499655 
    7020    778.74744   -9134.1616   -9047.2912    7046.9913    16891.002    10.555444 
    7030    773.40147   -9133.4629   -9047.1888    7439.7741    16884.983    10.606781 
    7040    777.31011   -9133.7854   -9047.0752    6257.9166    16885.577    10.648647 
    7050    773.99789   -9133.2742   -9046.9336      4799.49    16891.926    10.685514 
    7060    797.73047   -9135.7429   -9046.7549    2243.5147    16902.699    10.725507 
    7070    800.57847   -9135.8628   -9046.5571   -231.18146    16915.745    10.772042 
    7080    790.38609   -9134.5103   -9046.3416   -1846.1293    16928.874    10.823199 
    7090    790.50487   -9134.2663   -9046.0843   -3340.6107    16940.523     10.87383 
    7100    786.48176   -9133.5298   -9045.7966   -4294.5133    16949.349    10.919846 
    7110    787.79364   -9133.3764   -9045.4969    -4700.743    16954.414    10.958091 
    7120    780.46522   -9132.2471    -9045.185   -4323.5632    16955.295    10.988716 
    7130    779.62586   -9131.8273   -9044.8588   -3572.0397    16952.214    11.018486 
    7140    794.18868   -9133.0778   -9044.4848   -3346.6717    16945.731    11.044992 
    7150    809.98879    -9134.414   -9044.0585   -3036.1592    16936.077    11.069262 
    7160    811.73317   -9134.1505   -9043.6005   -2349.2275    16923.494    11.099575 
    7170    802.49156   -9132.6487   -9043.1296   -1463.7027    16908.577    11.135478 
    7180    797.76808   -9131.6216   -9042.6294   -848.89012    16892.059    11.172423 
    7190    809.03073     -9132.35   -9042.1014    94.832896    16874.549    11.207506 
    7200    789.71241   -9129.6424   -9041.5488    1380.0581    16856.897    11.239464 
    7210    807.40267   -9131.0391   -9040.9721    1966.8648    16840.185    11.275384 
    7220    847.91158   -9134.9674   -9040.3816    1940.4087    16825.006    11.314875 
    7230    851.51538   -9134.8707   -9039.8829    2758.4292    16811.495    11.346696 
    7240    830.95929   -9132.2168    -9039.522     2656.714    16800.208    11.369941 
    7250    814.47899     -9130.12   -9039.2637    1691.1152    16791.112    11.385685 
    7260    814.20618   -9129.8983   -9039.0723    762.47416    16783.433    11.395175 
    7270    825.57841   -9131.0442   -9038.9497    333.87646    16776.339     11.40272 
    7280    829.85538   -9131.4831   -9038.9115    711.37272    16769.495    11.413947 
    7290    832.84175   -9131.8813   -9038.9766    299.06642    16763.113    11.427767 
    7300    834.85594   -9132.2926   -9039.1632   -1332.2464    16756.792    11.435754 
    7310    829.39689   -9132.0006   -9039.4801   -2031.9714     16749.27    11.441425 
    7320    833.00143   -9132.8691   -9039.9466   -1865.4229    16739.846    11.452776 
    7330     846.4864   -9135.0226   -9040.5958   -1113.3905     16728.63    11.469893 
    7340    822.10552   -9133.1163   -9041.4092    205.04687    16716.273    11.493504 
    7350    814.50121   -9133.1996   -9042.3407    1815.9984    16703.949    11.517383 
    7360    807.36654   -9133.3891   -9043.3261    3196.2034    16693.056    11.534066 
    7370    781.54875    -9131.439    -9044.256    3653.7313    16684.799    11.549277 
    7380    783.15871    -9132.404   -9045.0415    2663.2277    16679.589    11.560552 
    7390     810.4708    -9136.129   -9045.7197    1544.5427    16676.682    11.560188 
    7400    808.44291   -9136.5014   -9046.3184    321.03564    16675.102    11.547668 
    7410    811.25591   -9137.3454   -9046.8485   -1562.6453    16673.753    11.535487 
    7420    799.32235   -9136.4966    -9047.331   -3205.6916    16671.034    11.534788 
    7430    786.28307   -9135.4685   -9047.7574   -4370.1701    16665.455    11.553944 
    7440    798.79216   -9137.2514   -9048.1449   -5453.3935    16655.852    11.600872 
    7450    794.69663   -9137.1805   -9048.5309    -4605.111     16641.37    11.668459 
    7460    787.28786   -9136.7197   -9048.8966   -2447.1031    16622.661    11.753859 
    7470    797.19351   -9138.1442   -9049.2161   -678.42405    16601.434    11.847958 
    7480    790.39005   -9137.6427   -9049.4735    2450.0246    16579.439    11.941306 
    7490    768.26034   -9135.3416    -9049.641    5553.6522    16559.296    12.027582 
    7500    782.72416   -9137.0643   -9049.7503    7277.6016    16543.666    12.102999 
    7510    792.60193   -9138.2516   -9049.8357    7650.7052    16534.142    12.168156 
    7520    796.51454   -9138.8111   -9049.9587    6595.6951    16531.066    12.225741 
    7530    764.87239   -9135.4228   -9050.1001    6367.0697    16533.841    12.268119 
    7540    797.84815   -9139.2605   -9050.2593    4744.2098    16542.102    12.288801 
    7550    796.71994   -9139.3041   -9050.4288    2841.2935    16554.641    12.288732 
    7560    783.97992   -9138.0829   -9050.6288     800.2208    16569.818    12.272104 
    7570    776.24459   -9137.4088   -9050.8176   -929.65727    16585.937    12.249261 
    7580    770.63632   -9136.9257   -9050.9601   -2496.0636     16601.49    12.233493 
    7590    775.27339    -9137.551   -9051.0681   -3605.7672    16615.056    12.227593 
    7600    761.19154   -9136.0604   -9051.1484   -3126.8582    16625.725    12.222842 
    7610    767.59755   -9136.8192   -9051.1926   -2845.4914    16633.737    12.215908 
    7620      784.455    -9138.719   -9051.2119    -3296.989    16639.266    12.208808 
    7630    766.47865   -9136.7106   -9051.2088   -3065.0345    16641.997    12.198644 
    7640    757.39416   -9135.6556   -9051.1671   -2016.2283    16642.116    12.187008 
    7650    774.92137   -9137.5184   -9051.0748   -2398.5959    16640.301    12.173349 
    7660    792.95438   -9139.4077   -9050.9525   -3304.0013    16636.297    12.156158 
    7670    789.76084   -9138.9247   -9050.8257   -3267.3582    16629.431    12.138051 
    7680    816.32809   -9141.7881   -9050.7255   -2936.4934    16619.601    12.125206 
    7690    802.97859   -9140.2247   -9050.6512   -1025.8758    16607.183    12.114658 
    7700    767.01719   -9136.1401   -9050.5782    934.01307    16593.709    12.103651 
    7710    778.22889   -9137.2658   -9050.4532    1702.2896    16580.807    12.091053 
    7720    778.55118   -9137.1111   -9050.2626     3424.085     16569.33    12.073444 
    7730    753.79333   -9134.1074   -9050.0206    5878.1542    16560.782    12.051778 
    7740    764.97392   -9135.0371   -9049.7031    6309.5846    16557.155    12.037457 
    7750    789.67524   -9137.3956   -9049.3062    5084.5787     16558.92    12.036055 
    7760    791.17709   -9137.1225   -9048.8655    3552.2553    16565.179    12.042631 
    7770    815.54703    -9139.381   -9048.4055    1333.0329    16574.617    12.055547 
    7780    793.90319   -9136.4967   -9047.9356    489.79478    16585.514    12.068928 
    7790    778.40623   -9134.3075   -9047.4751    62.260742     16596.99    12.077131 
    7800     782.5251   -9134.2602   -9046.9684    -414.0015    16608.677    12.084135 
    7810    776.16157   -9132.9961   -9046.4141   -1037.6633    16620.153    12.089987 
    7820    782.92146   -9133.1714   -9045.8353   -1566.5617    16630.885    12.091421 
    7830     810.8172   -9135.6887   -9045.2408     -2330.68    16640.365    12.097519 
    7840    815.35952   -9135.6378   -9044.6832    -2458.645    16647.963    12.111634 
    7850    804.45472   -9133.9485   -9044.2104   -1520.5884    16653.579    12.128998 
    7860    819.04776    -9135.162    -9043.796    -908.1158    16657.895    12.154129 
    7870    824.96655   -9135.4636   -9043.4373   -820.04257    16661.428    12.188085 
    7880    828.04248   -9135.5519   -9043.1825   -480.58483    16664.301    12.228336 
    7890    803.84746   -9132.6847   -9043.0143    107.27525    16666.827    12.280209 
    7900    788.06333   -9130.7835   -9042.8738    338.63944    16669.489    12.338972 
    7910    792.80808   -9131.1806   -9042.7416    805.69956    16672.502    12.390677 
    7920     792.9276   -9131.0631   -9042.6109    1466.8241    16676.298    12.437625 
    7930    819.71934   -9133.9428   -9042.5018    1414.7524    16681.405    12.478765 
    7940    807.63596   -9132.5473   -9042.4543    1624.9513    16687.848    12.504838 
    7950    797.07323    -9131.394   -9042.4793     1874.448    16695.817    12.518483 
    7960    809.81979    -9132.886   -9042.5494    1028.6406    16705.473    12.517529 
    7970    822.64878   -9134.4502   -9042.6825   -459.72641    16716.131    12.502056 
    7980    817.10465   -9134.0743   -9042.9251   -2052.2854    16726.522    12.476856 
    7990    774.49976   -9129.6307   -9043.2341   -2496.7822    16735.328    12.439997 
    8000    787.31458   -9131.3752   -9043.5491   -2891.7043    16741.978    12.394166 
    8010    804.28658    -9133.578   -9043.8586   -2746.4302    16746.159    12.353305 
    8020    831.63155   -9137.0227    -9044.253    -2365.099    16747.971    12.317666 
    8030    830.05192   -9137.4004   -9044.8068   -2016.5711    16747.683     12.28285 
    8040     803.3852   -9135.1363   -9045.5174   -2204.8871    16745.533      12.2509 
    8050    799.65822   -9135.5456   -9046.3425   -2357.2871    16741.398    12.218884 
    8060    816.25172   -9138.3214   -9047.2673   -763.60371    16735.259      12.1837 
    8070     806.4471   -9138.2267   -9048.2663    2146.7644     16728.49     12.15154 
    8080    794.56519   -9137.9024   -9049.2675    4579.9292    16723.554    12.124349 
    8090    787.77401   -9138.0547   -9050.1774    5730.3846    16722.596    12.091198 
    8100    783.00838   -9138.2448   -9050.8991    5593.6412    16726.705    12.048113 
    8110    801.56151   -9140.8608   -9051.4455    3377.6686    16735.697    12.006149 
    8120    776.60661    -9138.468   -9051.8363    1569.4154    16747.851    11.974004 
    8130     766.5257   -9137.6045   -9052.0974    1062.9434    16761.661     11.94751 
    8140    789.93167   -9140.3979   -9052.2798    76.484364    16776.481    11.925254 
    8150    781.03416   -9139.5435   -9052.4179   -194.24539    16791.574    11.909162 
    8160    789.50048   -9140.6056   -9052.5357   -708.27319    16806.593    11.905517 
    8170    793.59012   -9141.1697   -9052.6436   -925.59275    16821.127     11.91922 
    8180    785.20843   -9140.3382    -9052.747   -1567.9697    16834.933    11.935119 
    8190      774.942   -9139.2755   -9052.8296   -3057.9305    16847.374    11.943046 
    8200    767.25795   -9138.4704   -9052.8816   -4456.1161    16857.144    11.954518 
    8210     764.1156   -9138.1348   -9052.8966   -5248.1469    16863.004    11.973535 
    8220    760.24949   -9137.6827   -9052.8757   -5013.8161    16864.222    11.992521 
    8230    776.17899    -9139.406   -9052.8221   -4156.5628      16860.9    12.012175 
    8240    769.44386   -9138.5665   -9052.7338   -2145.3401    16853.868     12.03531 
    8250    763.42104   -9137.7642   -9052.6034   -252.49625    16844.818    12.054774 
    8260    782.36646   -9139.6925   -9052.4184    578.31689    16835.391    12.070522 
    8270    786.73511   -9139.9569   -9052.1954    1140.7906    16826.418    12.083889 
    8280    796.10108   -9140.7588   -9051.9525    1717.4546    16818.421    12.087137 
    8290    797.18702    -9140.617   -9051.6896    3139.3744    16811.994    12.083998 
    8300    768.50293   -9137.1527    -9051.425    5541.4326    16808.438    12.083626 
    8310    759.27184   -9135.8444   -9051.1465     7100.866    16809.805    12.075728 
    8320    798.25879   -9139.8953   -9050.8483    6421.2786    16817.428    12.053973 
    8330    788.31063   -9138.4893   -9050.5521    4990.7095    16830.902    12.021044 
    8340    782.10982   -9137.5094   -9050.2638    3038.4644    16848.989    11.981263 
    8350     818.8332   -9141.2962   -9049.9541    856.83024    16869.949    11.943498 
    8360    810.54059   -9140.0819   -9049.6648   -417.60255    16891.917    11.913356 
    8370    802.82348   -9138.9902   -9049.4341   -1338.0608    16913.668    11.885403 
    8380    803.68755   -9138.8779   -9049.2253   -2604.3439    16934.299    11.855662 
    8390    804.46637   -9138.7714    -9049.032   -4128.6583    16952.658    11.826841 
    8400    792.28633   -9137.2183   -9048.8375   -5095.1673    16967.378    11.800805 
    8410    782.90062   -9135.9723   -9048.6386   -5229.8238    16977.554    11.778666 
    8420    762.49681   -9133.4915   -9048.4338   -4852.8444    16982.988    11.762087 
    8430    775.53237   -9134.7141   -9048.2023   -4949.4877    16983.942    11.746906 
    8440      780.096     -9134.96   -9047.9391   -4029.9589    16980.435    11.728977 
    8450    769.32479    -9133.462   -9047.6427   -1379.7558    16973.354    11.706071 
    8460    796.37287    -9136.112   -9047.2754     748.2027    16964.939    11.678373 
    8470    809.71218    -9137.196   -9046.8714     1902.566    16957.107    11.649596 
    8480     820.8267   -9138.0543   -9046.4898    3189.5594    16951.007    11.626029 
    8490    795.82656   -9134.9044   -9046.1287    5346.8885    16947.915    11.611029 
    8500    815.56186   -9136.7914   -9045.8143    6167.1803    16949.587    11.592957 
    8510    819.50182   -9136.9666   -9045.5499    5681.1127    16956.858    11.565206 
    8520    822.69331   -9137.1273   -9045.3546    3366.6254    16969.221    11.530701 
    8530    834.26637   -9138.2785   -9045.2148    596.19601      16984.7    11.495554 
    8540    827.87674   -9137.4828   -9045.1319   -918.46369    17000.906    11.468719 
    8550    799.14795   -9134.2616   -9045.1154   -886.93633    17016.448    11.456452 
    8560    802.65059   -9134.6755   -9045.1386   -1921.9346    17031.104    11.450672 
    8570    817.31637   -9136.3732   -9045.2003   -3170.4537    17044.026    11.447722 
[...]
   22890    793.30562   -9204.2877   -9115.7933   -3455.3441    16071.995    26.405749 
   22900    762.92542   -9201.5579   -9116.4525   -3771.4307    16085.376    26.327747 
   22910    776.75723   -9203.5727   -9116.9243   -5143.0582    16095.352     26.24385 
   22920    800.35548   -9206.5625   -9117.2816   -6155.4662    16100.974    26.175997 
   22930    797.01808   -9206.5126    -9117.604   -5747.0029    16101.543    26.140295 
   22940    774.50892   -9204.2959   -9117.8983   -3776.6065    16097.533    26.138246 
   22950    749.93859   -9201.7648   -9118.1081   -1908.1302    16090.514    26.161532 
   22960    757.43905   -9202.7081   -9118.2146   -734.94571    16082.026     26.20172 
   22970    788.50495   -9206.2124   -9118.2535    421.87843    16073.093    26.251028 
   22980    802.75031   -9207.8277   -9118.2797    1872.9494    16064.692    26.306421 
   22990    780.92946   -9205.4233   -9118.3095    3296.4739    16057.996    26.359023 
   23000    771.72787   -9204.4095   -9118.3221    4346.6758    16054.095    26.389511 
   23010    781.14774    -9205.453   -9118.3148    4793.5078    16053.764    26.395827 
   23020    787.06153   -9206.1019    -9118.304    4494.6739    16057.313    26.392861 
   23030    787.99258   -9206.2043   -9118.3025    2579.0552    16064.335    26.389716 
   23040    765.87832   -9203.7168   -9118.2819   -212.38003    16073.248    26.390934 
   23050    767.00439   -9203.7753   -9118.2148    -2709.476    16081.857    26.398132 
   23060    768.06039   -9203.7715   -9118.0932   -4726.8172    16088.099    26.406196 
   23070    763.14099   -9203.0638   -9117.9343   -4525.4399    16090.524     26.41059 
   23080    774.63054   -9204.1418   -9117.7306   -3503.2508    16089.244    26.413001 
   23090    795.58023   -9206.2471   -9117.4989   -2410.9247    16085.117    26.416922 
   23100    791.76397   -9205.5855    -9117.263   -1049.4696    16079.135    26.425709 
   23110    766.16347   -9202.4881   -9117.0214    315.01903    16072.443    26.435897 
   23120    762.41238   -9201.7852   -9116.7369     1971.653    16066.198    26.444679 
   23130    784.11894   -9203.8621   -9116.3925     3380.649    16061.665    26.458171 
   23140    769.64243   -9201.8608    -9116.006    3995.7379    16059.965    26.479115 
   23150       770.05   -9201.4826   -9115.5824    1751.9739    16061.371    26.502785 
   23160    814.25385     -9205.94   -9115.1088   -2473.0075    16064.031    26.527495 
   23170    816.47928   -9205.7333   -9114.6538   -5318.6534    16064.712    26.558283 
   23180    806.48309   -9204.2511   -9114.2867   -5618.5581    16061.229    26.602277 
   23190    825.82742   -9206.1074   -9113.9852   -5064.3339    16053.311    26.657371 
   23200    819.63353   -9205.1832   -9113.7519   -2929.1548    16041.609    26.716291 
   23210    793.17707   -9202.0466   -9113.5665    851.16712    16027.961    26.774934 
   23220    791.62276   -9201.6927    -9113.386    3476.6471    16015.252    26.826983 
   23230    800.59337   -9202.5041   -9113.1967    4946.4796    16005.599    26.868369 
   23240    823.82361   -9204.9353   -9113.0366    5476.5664    16000.099    26.897991 
   23250    798.02016    -9201.951   -9112.9306     6381.309    15999.205    26.911598 
   23260    807.31564   -9202.9334   -9112.8761    5709.9765    16003.342    26.900974 
   23270    844.29436   -9207.0704   -9112.8881     4637.761    16011.983    26.873769 
   23280    832.27644   -9205.8636   -9113.0219    3017.4037    16024.116    26.841364 
   23290    827.68961   -9205.6212   -9113.2912    1186.6818    16038.386    26.797765 
   23300    802.56378   -9203.1989   -9113.6717   -168.21605    16053.294    26.740555 
   23310    776.90252   -9200.7743   -9114.1097    -1478.091    16067.703    26.679023 
   23320    808.31686   -9204.7903   -9114.6213   -3583.5989    16080.473    26.623813 
   23330    807.14272   -9205.2909   -9115.2529    -5436.263    16090.029     26.58007 
   23340    807.98665    -9206.171   -9116.0389   -6667.2982    16094.942    26.550301 
   23350    795.96162   -9205.7556   -9116.9649   -7119.8905    16094.336    26.536808 
   23360    783.63084   -9205.3572    -9117.942   -6546.0217    16088.015    26.543428 
   23370    798.36274   -9207.9723   -9118.9137   -4558.6042    16076.643     26.56941 
   23380    775.97626   -9206.3557   -9119.7944   -1414.4256    16061.967    26.604309 
   23390    756.62384   -9204.8825     -9120.48    2157.2348    16046.599    26.638495 
   23400    765.00731   -9206.3029   -9120.9652     4290.181    16033.318    26.665908 
   23410    789.16556    -9209.365   -9121.3324    4456.6586    16023.761    26.683152 
   23420    778.84686   -9208.5225    -9121.641    4478.6166    16018.079    26.699458 
   23430     745.7263   -9205.0576   -9121.8707    4873.7508    16016.205    26.723292 
   23440    750.93478   -9205.7641   -9121.9962    4034.4718     16018.23    26.746407 
   23450     759.8697   -9206.7898   -9122.0252    2826.7284    16023.453    26.757809 
   23460    781.95704   -9209.2358   -9122.0073    1115.3916    16030.797    26.748304 
   23470     779.3698   -9208.9117   -9121.9718   -236.92201    16038.879    26.721853 
   23480    760.98797   -9206.8036   -9121.9143   -1032.5637    16046.607    26.688437 
   23490    776.16938   -9208.3974   -9121.8145   -3058.0485    16053.178    26.652423 
   23500    771.67269   -9207.7482   -9121.6669   -4290.4508    16057.192    26.622819 
   23510    780.91274   -9208.6205   -9121.5086   -5461.7598    16057.629    26.604912 
   23520    773.36523   -9207.6207   -9121.3506   -6068.1143    16053.644    26.595534 
   23530    778.04892    -9207.983   -9121.1905   -4183.5727    16045.046    26.591856 
   23540    784.62421    -9208.529    -9121.003   -1003.1452    16033.395    26.592903 
   23550    767.16393   -9206.3475   -9120.7692    1795.5299    16021.241    26.590792 
   23560    781.07851   -9207.6187   -9120.4882    2407.5319    16010.717    26.580223 
   23570    806.13682   -9210.1248   -9120.1991    2292.5447    16002.361    26.568653 
   23580    766.72794   -9205.4419   -9119.9123    3583.0742     15996.21    26.557774 
   23590    794.53058   -9208.2485   -9119.6174    3404.8608    15992.983     26.54256 
   23600    825.30378   -9211.3858   -9119.3219    2883.9882    15992.561    26.524784 
   23610    787.08458   -9206.8902   -9119.0897    3357.5126    15994.554    26.505834 
   23620    773.37892   -9205.1533   -9118.8817    2870.1141    15999.128    26.484859 
   23630    776.50728   -9205.2638   -9118.6432    1913.4821    16005.873    26.464417 
   23640    760.95012   -9203.2435   -9118.3584    931.27764    16014.017     26.44778 
   23650    796.93448    -9206.922   -9118.0228   -1100.8814    16022.643    26.437998 
   23660    821.28631   -9209.2758   -9117.6601   -3016.7432    16030.197    26.442327 
   23670    834.56366   -9210.4594   -9117.3626    -4246.117    16035.189    26.465224 
   23680    822.07639   -9208.8714   -9117.1675   -4251.6329    16036.713    26.511659 
   23690    788.03978   -9204.9581   -9117.0511    -3241.338    16034.844    26.585809 
   23700    803.14302   -9206.5529   -9116.9611   -2257.2803    16030.388     26.68434 
   23710    780.33015   -9203.8857   -9116.8387   -875.79541    16024.235     26.79364 
   23720    778.37199   -9203.4985   -9116.6699    175.42477    16017.472    26.888949 
   23730    822.71856   -9208.2466   -9116.4712    523.15768    16010.946     26.96046 
   23740    826.86686   -9208.5434   -9116.3051    1219.8574    16005.056    27.015651 
   23750    829.75906   -9208.7712   -9116.2103    1451.3557    16000.255    27.062547 
   23760    839.01014   -9209.7963   -9116.2034    1694.4421    15996.741    27.102227 
   23770    831.60594   -9209.0832   -9116.3163    2672.4199    15994.727    27.132902 
   23780    825.52522   -9208.6842   -9116.5957    3626.1847    15994.893    27.147927 
   23790     792.2204    -9205.407   -9117.0336    4713.1032    15998.025    27.140102 
   23800    790.17418   -9205.7464   -9117.6013    4180.4886    16004.804     27.10819 
   23810    800.98338   -9207.6408   -9118.2899    1889.3014    16014.719    27.053301 
   23820    770.90167   -9205.0477   -9119.0525   -290.44857    16026.024    26.982483 
   23830    768.75298    -9205.561   -9119.8055   -2853.7519    16036.884    26.908228 
   23840    782.83622   -9207.8649   -9120.5384   -4980.7298    16045.268    26.839118 
   23850    775.40456   -9207.7332   -9121.2356   -4848.1899    16049.645    26.782347 
   23860    792.80912   -9210.3501    -9121.911    -4316.435    16050.023    26.734577 
   23870    774.40678   -9208.9536   -9122.5674   -2740.1509    16046.968    26.681198 
   23880    742.40673   -9205.9211   -9123.1045   -1341.2115    16041.731    26.615196 
   23890    768.57262   -9209.2558   -9123.5204   -2289.6757    16035.302    26.548182 
   23900    772.67394   -9210.0423   -9123.8494   -2786.3109    16027.166    26.496847 
   23910     763.6757   -9209.3004   -9124.1112   -2113.8908    16016.979    26.465742 
   23920     772.9679   -9210.5316   -9124.3059   -858.93244    16005.264    26.451469 
   23930    783.61478   -9211.8686   -9124.4552    1044.0661    15993.063    26.447311 
   23940    776.55289   -9211.1898   -9124.5642    3339.3545    15981.944    26.448297 
   23950     772.5268   -9210.8257   -9124.6491     4046.327    15973.579    26.453615 
   23960    758.37456   -9209.3033   -9124.7055    3070.4763    15968.483    26.466095 
   23970    773.30575   -9211.0072   -9124.7438    1702.5414      15965.9    26.497267 
   23980    764.34415   -9210.0328   -9124.7691    2319.2653    15964.894    26.555256 
   23990    748.09103   -9208.2077    -9124.757    3507.5359    15965.819    26.633825 
   24000    765.82609   -9210.1023   -9124.6732    3199.7143    15969.465    26.727445 
   24010    759.25419   -9209.2012   -9124.5053    2361.0545    15975.661    26.827079 
   24020    770.32646   -9210.1819   -9124.2508     674.2974    15983.639    26.918278 
   24030    784.64667   -9211.4447   -9123.9162   -1215.7735    15992.038    26.992764 
   24040    756.51109   -9207.9173   -9123.5273   -1599.3368    15999.467    27.050835 
   24050    754.06326   -9207.2116   -9123.0947   -1584.5326    16005.533    27.095577 
   24060    755.50988   -9206.8652   -9122.5869    -1677.896     16010.23    27.134382 
   24070      781.686   -9209.2154   -9122.0171   -1835.1769     16013.49    27.169253 
   24080    801.29011   -9210.8016   -9121.4165   -921.90014    16015.314    27.201278 
   24090    791.97204   -9209.2012   -9120.8555   -246.69438    16016.363    27.229737 
   24100     789.9754   -9208.4678   -9120.3448   -1406.7445    16017.065    27.242263 
   24110    797.53399   -9208.8532   -9119.8871   -2748.6174    16016.604    27.229551 
   24120    780.91413   -9206.6026   -9119.4905    -2924.946    16014.011    27.194209 
   24130     789.4382   -9207.2129   -9119.1499   -3008.9839    16009.059    27.143711 
   24140    782.52759   -9206.1351   -9118.8429   -2121.9085    16001.798     27.09307 
   24150    773.10123   -9204.7994   -9118.5588   -2039.4318    15992.817    27.053541 
   24160     810.7312   -9208.7412   -9118.3029    -2438.298    15982.225    27.023131 
   24170    808.11008   -9208.2503   -9118.1044   -390.68087    15969.921    26.997234 
   24180    780.10086   -9204.9499   -9117.9284     3426.262    15957.536    26.972749 
   24190    808.95574   -9208.0006   -9117.7603    5830.9222    15947.926    26.952615 
   24200    801.57735   -9207.0615   -9117.6443    7475.0346    15943.075    26.940478 
   24210    797.46102   -9206.5807   -9117.6228    6656.7539    15944.101    26.932076 
   24220    803.63088   -9207.3095   -9117.6633    3836.1844    15950.357    26.926584 
   24230    799.13419   -9206.8749   -9117.7303    1662.2799    15959.741    26.929139 
   24240     810.9075   -9208.2715   -9117.8135      564.304    15970.487    26.941784 
   24250    804.36095   -9207.6508   -9117.9231    973.38136    15981.737    26.961163 
   24260    797.56709   -9207.0179   -9118.0481    1012.2962    15993.692     26.98071 
   24270    795.65391   -9206.9239   -9118.1675   -699.59615    16006.258    26.991103 
   24280    789.58788   -9206.3502   -9118.2705   -2683.1365    16018.177    26.995042 
   24290    812.05737   -9208.9583    -9118.372   -5041.8537    16027.792    27.003804 
   24300       807.09   -9208.5393   -9118.5072   -6306.3082    16033.288    27.025174 
   24310    789.45721   -9206.7473   -9118.6822   -6123.7994    16033.716    27.062484 
   24320     796.9966   -9207.7937   -9118.8875   -5717.1048    16029.134    27.111033 
   24330    782.91862   -9206.4477    -9119.112   -3941.6866    16020.019    27.158689 
   24340    774.10255   -9205.6709   -9119.3186   -1355.5729    16007.821    27.199286 
   24350    813.02187   -9210.2097   -9119.5159    1015.3399    15994.585     27.23365 
   24360    818.26308   -9211.0199   -9119.7414    4451.4515    15982.341    27.261835 
   24370    782.32217   -9207.2502    -9119.981    7836.7565    15973.781    27.280747 
   24380    764.86884   -9205.5339   -9120.2116    8602.3125    15971.466     27.28416 
   24390     768.3026    -9206.125   -9120.4197    6723.7394    15975.981    27.269107 
   24400    781.72526   -9207.7988   -9120.5961    3652.4432    15985.865    27.244875 
   24410    770.73696   -9206.7002   -9120.7234    649.44813    15998.705    27.223157 
   24420    770.95876   -9206.7893   -9120.7877   -2884.2596    16011.967     27.20672 
   24430    787.67162   -9208.6663   -9120.8003   -5657.8377     16022.87    27.199306 
   24440    785.65039   -9208.4452   -9120.8047   -6276.3475    16029.247    27.203412 
   24450    792.11718    -9209.195   -9120.8332    -5558.418    16030.529    27.216282 
   24460    786.68784   -9208.6515   -9120.8953   -3627.2525    16027.372    27.232758 
   24470    757.61481   -9205.4703   -9120.9572   -1954.7072    16021.255    27.244137 
   24480    771.49844   -9207.0449    -9120.983     -1465.31    16013.477    27.240174 
   24490    788.12567   -9208.8839   -9120.9673   -472.15912    16004.587    27.228065 
   24500    792.71953   -9209.3715   -9120.9425    715.83062    15995.373    27.216801 
   24510    782.88587   -9208.2526   -9120.9205    1300.3063    15986.736    27.202077 
   24520    771.69976   -9206.9667   -9120.8824    2810.6947    15979.264    27.177779 
   24530    781.68158   -9208.0053   -9120.8076    4851.8772    15974.146    27.145001 
   24540    799.94389    -9209.929    -9120.694    5118.4294    15972.846    27.117332 
   24550    810.21727   -9210.9513   -9120.5704    3599.2554    15975.566    27.106145 
   24560    792.34941    -9208.836   -9120.4483    3097.4914    15981.311     27.10709 
   24570     793.1854   -9208.8105   -9120.3295    2995.3509    15989.572    27.113136 
   24580    772.64674   -9206.3679    -9120.178    3205.9226    16000.269     27.11958 
   24590    769.33126   -9205.7893   -9119.9693    3051.8527    16013.544    27.119093 
   24600    795.80074   -9208.4556   -9119.6828    1155.4558    16029.173    27.110601 
   24610    814.65844   -9210.2109   -9119.3345   -2958.9674    16045.533    27.101094 
   24620    809.62556   -9209.2797   -9118.9647   -6760.8441    16059.457    27.098281 
   24630    801.85407   -9208.0839   -9118.6359   -8291.0088     16067.94    27.105352 
   24640    779.74968   -9205.3327   -9118.3504   -8101.5082    16069.709    27.123713 
   24650    813.31057   -9208.8195   -9118.0934   -8089.2858      16064.8    27.158818 
   24660    854.18896   -9213.1964   -9117.9104   -6269.6061    16053.383    27.215657 
   24670    799.98039   -9207.0626   -9117.8235   -832.91497    16037.152    27.285185 
   24680    783.26172   -9205.1185   -9117.7445    3750.3893    16020.238    27.347204 
   24690    798.28065   -9206.6857   -9117.6363    6194.2301    16006.327    27.394185 
   24700    781.10394   -9204.6439   -9117.5105    7119.6944    15997.438    27.427922 
   24710    816.95923   -9208.5418   -9117.4088    6272.2856    15994.244    27.448419 
   24720    809.25011   -9207.6177   -9117.3446    5972.4852    15996.218    27.460269 
   24730    806.18188   -9207.2821   -9117.3513     5010.842    16002.996    27.469454 
   24740    825.12713   -9209.4639   -9117.4198    2926.2286      16013.8    27.477086 
   24750    829.27462   -9210.0819    -9117.575    406.04267    16026.938    27.477778 
   24760    797.25842   -9206.7437   -9117.8084   -984.04992    16040.473    27.467031 
   24770    768.15264   -9203.7593   -9118.0707   -1598.8958    16053.212    27.445516 
   24780    754.44521   -9202.4605    -9118.301   -2393.1458    16064.611    27.421771 
   24790    777.44683   -9205.2087   -9118.4833   -4396.5901     16073.94    27.400192 
   24800    820.86536   -9210.2399   -9118.6711   -6910.4829    16079.583    27.378598 
   24810    830.71322   -9211.6323    -9118.965   -8355.8784    16079.606    27.357897 
   24820    807.57664   -9209.4762   -9119.3898   -8448.3012    16072.845    27.343549 
   24830     798.0798   -9208.9389   -9119.9119   -6729.3263    16059.284    27.341785 
   24840    781.90722   -9207.6662   -9120.4433   -3434.9362    16040.358    27.349041 
   24850     807.2455   -9211.0277   -9120.9783   -485.92228    16018.638    27.357722 
   24860    790.43932   -9209.6775   -9121.5028     3090.614     15996.68    27.368621 
   24870    775.31643   -9208.4645   -9121.9768    6150.1694    15977.289    27.379283 
   24880    792.52678   -9210.8422   -9122.4346    7456.2369    15962.832    27.390027 
   24890    758.36373   -9207.4743   -9122.8777    8313.8366    15954.468    27.406169 
   24900     752.7855    -9207.253   -9123.2786     8007.218     15952.78    27.429302 
   24910    766.42154    -9209.129   -9123.6336     6828.615    15957.531    27.453967 
   24920    762.64961   -9209.0072   -9123.9325    4832.8058     15967.76    27.471968 
   24930    787.43901   -9212.0309   -9124.1909    1087.0046    15981.735    27.472957 
   24940    767.09935   -9209.9677   -9124.3966   -2311.2277      15996.6    27.462846 
   24950    755.17777   -9208.7878   -9124.5466    -4489.263    16009.669    27.456331 
   24960    760.34859   -9209.4424   -9124.6243   -5754.6153    16019.111    27.457977 
   24970    737.71172   -9206.9138   -9124.6209   -4916.4966    16024.012    27.468841 
   24980    761.95778   -9209.5417   -9124.5442    -4078.911    16024.877    27.490242 
   24990    786.20063   -9212.1109    -9124.409   -3469.6912    16022.381    27.527504 
   25000     772.9876   -9210.4786   -9124.2507   -2182.3895    16017.137    27.584954 
Loop time of 13097.4 on 16 procs for 20000 steps with 864 atoms

Performance: 0.132 ns/day, 181.909 hours/ns, 1.527 timesteps/s
97.1% CPU use with 16 MPI tasks x 1 OpenMP threads

MPI task timing breakdown:
Section |  min time  |  avg time  |  max time  |%varavg| %total
---------------------------------------------------------------
Pair    | 2048.7     | 7880.5     | 12846      |4639.1 | 60.17
Bond    | 0.0020726  | 0.0052648  | 0.010191   |   3.0 |  0.00
Neigh   | 0.12497    | 0.39122    | 0.66361    |  31.3 |  0.00
Comm    | 165.74     | 4514.9     | 9658.8     |5361.9 | 34.47
Output  | 1.4505     | 1.4775     | 1.8737     |   8.4 |  0.01
Modify  | 83.015     | 699.98     | 2416       |2887.0 |  5.34
Other   |            | 0.1113     |            |       |  0.00

Nlocal:        54.0000 ave          79 max          24 min
Histogram: 4 2 0 0 0 0 2 2 1 5
Nghost:        573.000 ave         800 max         359 min
Histogram: 2 1 3 0 0 4 3 1 0 2
Neighs:         0.00000 ave           0 max           0 min
Histogram: 16 0 0 0 0 0 0 0 0 0
FullNghs:      3130.50 ave        5523 max         623 min
Histogram: 4 2 0 0 0 1 2 1 3 3

Total # of neighbors = 50088
Ave neighs/atom = 57.972222
Ave special neighs/atom = 0.0000000
Neighbor list builds = 2000
Dangerous builds = 2000
Total wall time: 4:35:39
