LAMMPS (29 Sep 2021 - Update 3)
OMP_NUM_THREADS environment is not set. Defaulting to 1 thread. (src/comm.cpp:98)
  using 1 OpenMP thread(s) per MPI task
Reading data file ...
  orthogonal box = (0.0000000 0.0000000 0.0000000) to (17.771680 17.771680 35.543359)
  1 by 2 by 4 MPI processor grid
  reading atoms ...
  432 atoms
Finding 1-2 1-3 1-4 neighbors ...
  special bond factors lj:    0        0        0       
  special bond factors coul:  0        0        0       
     0 = max # of 1-2 neighbors
     0 = max # of 1-3 neighbors
     0 = max # of 1-4 neighbors
     1 = max # of special neighbors
  special bonds CPU = 0.001 seconds
  read_data CPU = 0.008 seconds
Neighbor list info ...
  update every 1 steps, delay 10 steps, check yes
  max neighbors/atom: 2000, page size: 100000
  master list distance cutoff = 6.22
  ghost atom cutoff = 6.22
  binsize = 3.11, bins = 6 6 12
  1 neighbor lists, perpetual/occasional/extra = 1 0 0
  (1) pair quip, perpetual
      attributes: full, newton on
      pair build: full/bin
      stencil: full/bin/3d
      bin: standard
Setting up Verlet run ...
  Unit style    : metal
  Current step  : 0
  Time step     : 0.001
Per MPI rank memory allocation (min/avg/max) = 8.920 | 8.920 | 8.920 Mbytes
Step Temp PotEng TotEng Press Volume c_msd[4] 
       0          300   -3978.9377   -3962.2244    4963.0745    11225.752            0 
      10    310.13111   -3979.5224   -3962.2446    5718.5418    11231.261 0.0035336866 
      20    336.83548   -3981.0899   -3962.3244    5956.0707    11248.757  0.014706462 
      30    382.24987   -3983.7994   -3962.5038    5623.2062    11278.829  0.034576247 
      40    444.40612   -3987.6127   -3962.8543    4665.3783    11320.854  0.064244471 
      50    500.98695   -3991.3953   -3963.4848    3381.7982    11372.917   0.10437298 
      60    513.95159    -3993.044   -3964.4112    2185.8066    11432.304   0.15349457 
      70    476.79104   -3991.9101   -3965.3476    1219.6978    11496.313   0.20599011 
      80    422.98177   -3989.6024   -3966.0376    329.29693    11562.553   0.25420227 
      90     364.1311   -3986.7872    -3966.501   -466.38613    11628.771   0.29303128 
     100    325.45003   -3984.9499   -3966.8187   -1259.0949    11692.894   0.32061548 
     110    321.08444   -3984.9443   -3967.0563    -2294.209    11752.807   0.33755775 
     120    347.12037   -3986.6124    -3967.274   -3329.8842    11806.035   0.34512502 
     130    404.97384   -3990.1293   -3967.5677   -4185.1866    11850.163   0.34600975 
     140    440.34023   -3992.5698    -3968.038   -4261.1548    11883.439   0.34541201 
     150    443.60313   -3993.4121   -3968.6985   -3535.0342    11905.907   0.34636064 
     160     425.9848   -3993.1825   -3969.4504   -2415.6873    11919.465   0.34976681 
     170    409.24276   -3992.9859   -3970.1865   -1246.2387    11926.931    0.3554817 
     180    415.50126   -3994.0369   -3970.8888   -404.10879    11931.158   0.36364476 
     190    429.86057   -3995.5518   -3971.6038    63.256875    11934.219   0.37695473 
     200    423.79506   -3995.9529   -3972.3428    598.01181    11937.328   0.39757378 
     210    399.87046   -3995.3297   -3973.0524    1235.9412    11941.768   0.42231109 
     220    395.08338   -3995.7246   -3973.7141    1290.2556    11948.802   0.44509297 
     230     392.0563   -3996.1979    -3974.356    1248.6559    11958.578   0.46410157 
     240    373.50738    -3995.785   -3974.9765    1509.3077    11971.003   0.48039304 
     250    355.72465   -3995.3761   -3975.5583    1698.0065    11986.493   0.49426972 
     260    356.75655   -3995.9924    -3976.117    1765.8331    12005.402    0.5054401 
     270    355.49017   -3996.4721   -3976.6674    1653.8143    12027.798   0.51469634 
     280    368.38598   -3997.7408   -3977.2176     1096.105    12053.252   0.52263082 
     290    381.00274   -3999.0227   -3977.7966    417.03196    12080.417   0.53092734 
     300    360.49069   -3998.4623    -3978.379    186.37817    12107.775   0.54143038 
     310    347.84845   -3998.2991   -3978.9201    115.27095    12134.707   0.55264217 
     320    350.54094   -3998.9701    -3979.441    121.06402    12161.049     0.564456 
     330    347.98185   -3999.3373   -3979.9508    208.45571    12186.856   0.57814724 
     340    348.85473   -3999.8905   -3980.4555    302.89287    12212.362   0.59401893 
     350    343.55949   -4000.0948   -3980.9548     155.0997    12237.754   0.61282685 
     360    335.76776   -4000.1367   -3981.4307   -205.97239    12262.713   0.63338969 
     370    341.21505   -4000.9009   -3981.8914   -569.56703    12286.406   0.65268341 
     380    341.60807   -4001.3823    -3982.351   -666.89346    12308.056   0.67000306 
     390    342.10158   -4001.8664   -3982.8076   -898.85612    12327.396   0.68607904 
     400    346.03139   -4002.5457   -3983.2679    -1379.834    12343.886   0.70187293 
     410    335.20507   -4002.3976    -3983.723   -1782.7924    12356.479   0.71799715 
     420    328.33533   -4002.4494   -3984.1575   -2100.5569    12364.255   0.73345317 
     430     331.9398   -4003.0789   -3984.5862   -2183.5904    12366.582   0.74703838 
     440    331.59499   -4003.4914   -3985.0179   -1899.7558    12363.437    0.7583671 
     450    329.65123   -4003.8161   -3985.4509   -1697.2714    12355.548   0.76780924 
     460     325.0213   -4003.9854   -3985.8781   -1545.6074    12343.575   0.77664868 
     470    319.76055   -4004.1059   -3986.2916   -1344.8913    12328.021   0.78508821 
     480    310.46413   -4003.9784   -3986.6821   -999.84558    12309.513   0.79256972 
     490    302.61692    -4003.898   -3987.0389   -588.48185    12288.958   0.79834093 
     500    304.33192    -4004.319   -3987.3643   -79.027932    12267.438   0.80218131 
     510    314.26893   -4005.1828   -3987.6746    395.35679    12246.209   0.80486664 
     520    323.61581   -4006.0207   -3987.9917    749.69114    12226.424   0.80823456 
     530    318.20281   -4006.0431   -3988.3156    1177.6959    12208.969   0.81449504 
     540    307.10215    -4005.732    -3988.623     1538.061    12194.791   0.82293724 
     550    312.16146   -4006.3056   -3988.9148    1412.6922    12184.588   0.83155331 
     560    312.98112   -4006.6432   -3989.2066    1011.9225    12178.012   0.84054524 
     570    305.06077   -4006.4891   -3989.4939    582.16422     12174.05   0.84993018 
     580    300.39793   -4006.5045    -3989.769    142.66613    12171.604   0.85900705 
     590    303.40948   -4006.9369   -3990.0336   -262.10781    12169.554   0.86723337 
     600    301.77754   -4007.1058   -3990.2934   -363.42072    12166.966   0.87488962 
     610    290.95049   -4006.7478   -3990.5386   -249.55149    12163.584   0.88205158 
     620    296.61692   -4007.2915   -3990.7667   -187.16644     12159.64   0.88729522 
     630    307.19776   -4008.1057   -3990.9914   -192.62397    12155.279   0.89111552 
     640    306.12152   -4008.2721   -3991.2177    78.501322    12150.595   0.89461826 
     650    299.88659   -4008.1466   -3991.4396    372.00978    12146.183   0.89769339 
     660    296.17845   -4008.1528   -3991.6524    361.89275    12142.681   0.90095819 
     670    288.14084   -4007.9037    -3991.851    275.06399    12140.113   0.90481959 
     680     283.1431   -4007.8025   -3992.0282    270.45415    12138.271   0.90871497 
     690    284.53065    -4008.036   -3992.1844    270.53689     12137.13   0.91238701 
     700    286.79537   -4008.3005   -3992.3228     166.0316    12136.656   0.91616104 
     710    284.10957   -4008.2723   -3992.4443     59.94781    12136.602   0.92132234 
     720    274.46811   -4007.8318   -3992.5409    21.766107    12136.719   0.92907339 
     730    276.16653   -4007.9947   -3992.6091   -33.421731    12136.884   0.93830839 
     740    286.29131   -4008.6051   -3992.6555    67.637419    12137.013   0.94759203 
     750    288.41318   -4008.7536   -3992.6858     288.9615     12137.35    0.9557986 
     760    293.63189   -4009.0618   -3992.7033    273.14265    12138.345   0.96084951 
     770    304.48927   -4009.6781   -3992.7147    94.253049    12139.967    0.9623716 
     780    308.16991   -4009.8995    -3992.731    72.111102    12141.842   0.96289422 
     790     302.6011   -4009.6152   -3992.7569    262.65902    12143.933   0.96540279 
     800    296.71969   -4009.3171   -3992.7866    361.95991    12146.624   0.97126832 
     810    301.28456    -4009.601   -3992.8161    304.19657    12150.154   0.97963984 
     820    305.11141   -4009.8474   -3992.8493    156.94217    12154.394   0.98950878 
     830    297.56963   -4009.4662   -3992.8882    50.457422    12159.002   0.99998849 
     840    290.26833    -4009.098   -3992.9269   -57.411543    12163.704    1.0093586 
     850    292.54423   -4009.2559   -3992.9579   -171.61855    12168.238    1.0163404 
     860    299.21372   -4009.6502   -3992.9807   -358.95273    12172.293    1.0212989 
     870    302.92129   -4009.8754   -3992.9993    -368.8413    12175.483    1.0261202 
     880    300.77049   -4009.7731   -3993.0169   -288.86544    12177.764    1.0320394 
     890    299.94465   -4009.7456   -3993.0353   -296.36953    12179.301    1.0380854 
     900    300.05637   -4009.7729   -3993.0564   -234.51414    12180.118    1.0430662 
     910     300.2501   -4009.8089   -3993.0816   -69.183433    12180.379    1.0461969 
     920    298.34744   -4009.7314   -3993.1101    9.7267195    12180.451    1.0475346 
     930    295.85434   -4009.6203   -3993.1379   -69.530755    12180.519    1.0482284 
     940    296.40455   -4009.6724   -3993.1594   -103.61446    12180.442    1.0492694 
     950    299.87293   -4009.8785   -3993.1723   -119.72997    12180.114    1.0506475 
     960    304.29172   -4010.1344    -3993.182   -130.25015    12179.494      1.05245 
     970    300.95007   -4009.9587   -3993.1925    -27.33019    12178.597    1.0558288 
     980    302.78468    -4010.074   -3993.2055    80.925204    12177.638    1.0609062 
     990    301.35279   -4010.0087     -3993.22    385.78516    12176.943    1.0670654 
    1000     293.5697   -4009.5874   -3993.2323    661.81304    12177.205    1.0733491 
    1010     286.1379   -4009.1792   -3993.2381    821.48734    12179.085    1.0793746 
    1020    274.51533   -4008.5265   -3993.2329    1069.7628    12183.018    1.0854501 
    1030    276.58333   -4008.6218    -3993.213    1096.8347    12189.538    1.0912148 
    1040    291.14421   -4009.3944   -3993.1745    719.30553    12198.665     1.096899 
    1050    299.47386   -4009.8057   -3993.1217    453.35106    12209.575    1.1028402 
    1060    305.88584   -4010.1073   -3993.0661    461.07732    12221.641    1.1088412 
    1070    306.58327   -4010.0958   -3993.0157    462.26774    12234.812    1.1152335 
    1080    299.44369   -4009.6562   -3992.9739    435.94199    12249.092    1.1222297 
    1090    292.68323   -4009.2395   -3992.9338    424.71109    12264.423    1.1297373 
    1100    298.30532    -4009.507    -3992.888    207.19464    12280.707    1.1381499 
    1110    303.17096   -4009.7246   -3992.8346   -9.5894921    12297.458    1.1490118 
    1120    298.55831   -4009.4119   -3992.7789   -44.609988    12314.157    1.1631454 
    1130     290.4264   -4008.8992   -3992.7192   -104.35998    12330.655    1.1789835 
    1140    294.29055   -4009.0445   -3992.6492   -450.14846     12346.73    1.1945385 
    1150    298.23638   -4009.1815   -3992.5664   -885.36978    12361.542    1.2089455 
    1160    296.55721   -4008.9964   -3992.4749   -1129.1262    12374.032    1.2206827 
    1170    293.71032   -4008.7413   -3992.3783   -1077.7816    12383.613     1.228442 
    1180    293.02848   -4008.6034   -3992.2784   -870.42796    12390.398     1.232917 
    1190    291.20606   -4008.3972   -3992.1738   -627.02539    12394.907    1.2364043 
    1200     283.3442   -4007.8463   -3992.0609   -328.49691    12397.796     1.240576 
    1210    284.80758    -4007.802    -3991.935    -149.2372    12399.792    1.2451651 
    1220    298.45669   -4008.4189   -3991.7915   -100.26426     12401.36    1.2498545 
    1230    309.95982    -4008.908   -3991.6398   -17.748669    12402.669    1.2545703 
    1240    317.81305   -4009.2021   -3991.4963    164.92691     12403.95    1.2588983 
    1250    319.94543    -4009.198   -3991.3735     360.4782    12405.643    1.2624914 
    1260    318.82482   -4009.0378   -3991.2757    582.28251    12408.257    1.2650717 
    1270    320.50431   -4009.0583   -3991.2026    697.88225    12412.316    1.2678083 
    1280    312.59481   -4008.5682   -3991.1532    705.08357    12418.114    1.2729597 
    1290    304.22734   -4008.0709   -3991.1221    484.83396    12425.621    1.2805388 
    1300    302.21062    -4007.935   -3991.0985    53.748596    12434.239    1.2893788 
    1310    299.32192   -4007.7513   -3991.0758   -80.811821    12443.001    1.2987335 
    1320    305.86815   -4008.0945   -3991.0543   -62.591037    12451.513    1.3071603 
    1330    309.59543    -4008.284   -3991.0361   -44.425638    12459.783    1.3139416 
    1340    309.67353   -4008.2789   -3991.0266   -5.3393947    12467.876    1.3191788 
    1350    313.10057    -4008.472   -3991.0288   -41.668662    12475.873    1.3238392 
    1360     316.8679    -4008.699   -3991.0459   -210.28274    12483.659    1.3292735 
    1370    317.57178   -4008.7737   -3991.0815   -377.33273    12490.833    1.3354648 
    1380    317.66569   -4008.8343   -3991.1368   -579.00605    12496.942    1.3418725 
    1390     317.9143   -4008.9232   -3991.2118   -667.32115    12501.521    1.3489892 
    1400    316.66229   -4008.9485   -3991.3069   -623.27236    12504.367    1.3572681 
    1410     313.2074   -4008.8715   -3991.4223   -488.68474    12505.593    1.3661871 
    1420    304.06949   -4008.4929   -3991.5529   -348.72006    12505.546     1.374512 
    1430     295.2872   -4008.1376   -3991.6868   -264.89006    12504.584    1.3813142 
    1440    295.54444   -4008.2828   -3991.8177    -152.7349    12502.948    1.3869105 
    1450    295.66709   -4008.4168   -3991.9448   -2.1047813    12500.949    1.3919006 
    1460    293.82789    -4008.435   -3992.0655    25.685427    12498.937    1.3955711 
    1470    298.50065   -4008.8083   -3992.1785   -150.80687    12496.954    1.3963017 
    1480    306.56645   -4009.3676   -3992.2884   -271.57911    12494.609    1.3930909 
    1490    309.32947   -4009.6367   -3992.4036   -114.58069    12491.639     1.387143 
    1500    307.41249   -4009.6529   -3992.5266    139.46945    12488.422    1.3808519 
    1510    310.76354   -4009.9718   -3992.6588    245.55332     12485.57    1.3756366 
    1520    310.89856   -4010.1227   -3992.8022    202.85893    12483.345        1.372 
    1530    302.99058   -4009.8293   -3992.9493    176.39921    12481.684    1.3697396 
    1540    297.87077   -4009.6866   -3993.0918    18.926026    12480.472     1.368796 
    1550    291.64711   -4009.4737   -3993.2258   -177.36411     12479.32    1.3697374 
    1560     280.3783   -4008.9636   -3993.3435   -275.03945    12477.736    1.3720348 
    1570    273.76738   -4008.6883   -3993.4364   -267.17807    12475.479    1.3739004 
    1580    276.00563   -4008.8799   -3993.5033   -313.91467    12472.542    1.3741328 
    1590    280.98848   -4009.2029   -3993.5488   -452.80868    12468.795    1.3729503 
    1600    286.07609   -4009.5154   -3993.5777   -639.73904    12463.889    1.3712162 
    1610    291.29577   -4009.8237   -3993.5953   -771.65639    12457.377    1.3694982 
    1620    290.48825   -4009.7881   -3993.6047   -733.06284    12448.945    1.3678775 
    1630    286.77983   -4009.5813   -3993.6045   -509.22495     12438.73    1.3659503 
    1640    288.85405   -4009.6834    -3993.591   -381.97061    12427.243    1.3627954 
    1650    300.18788   -4010.2892   -3993.5654   -359.81828    12414.827    1.3573781 
    1660    304.77021   -4010.5121    -3993.533   -200.74379    12401.606    1.3496484 
    1670    302.32918   -4010.3402   -3993.4971     202.9249    12388.032     1.340012 
    1680    308.27557   -4010.6354   -3993.4611    557.50529    12375.049    1.3300498 
    1690    312.45934   -4010.8395    -3993.432    894.56165    12363.575    1.3229016 
    1700    307.89867   -4010.5691   -3993.4157    1041.0484    12354.408     1.319771 
    1710    304.72498   -4010.3864   -3993.4098    1035.8289    12347.927    1.3191193 
    1720    307.82384   -4010.5622    -3993.413    897.92107    12344.095     1.319686 
    1730    306.91167   -4010.5247   -3993.4263    815.25805    12342.591    1.3199764 
    1740    303.70021   -4010.3685    -3993.449    770.56091    12343.185    1.3177273 
    1750     304.3115   -4010.4316   -3993.4781    500.12871    12345.679    1.3130022 
    1760    307.18473   -4010.6279   -3993.5143    234.11313    12349.438    1.3080991 
    1770    300.91914   -4010.3224   -3993.5579    311.40691    12353.871    1.3048944 
    1780    291.07693   -4009.8186   -3993.6024    375.40698    12359.078    1.3032429 
    1790    287.98059   -4009.6818    -3993.638    177.35032    12365.179    1.3014633 
    1800    293.46282   -4010.0112   -3993.6621   -175.16461     12371.69    1.2977422 
    1810    297.19469    -4010.236    -3993.679    -351.3574    12377.792    1.2920258 
    1820    295.63647   -4010.1637   -3993.6934    -366.3644    12383.023    1.2851502 
    1830    294.84479   -4010.1306   -3993.7045   -488.39864     12387.27    1.2781002 
    1840    293.35628   -4010.0539   -3993.7107   -580.48646    12390.262    1.2719159 
    1850    286.40774   -4009.6651    -3993.709   -500.99393    12391.803      1.26781 
    1860     288.9951   -4009.7954   -3993.6952   -436.74883     12392.06    1.2654178 
    1870    297.54343    -4010.244   -3993.6675   -517.62804    12391.174    1.2621163 
    1880    303.71894   -4010.5559   -3993.6354   -592.60051    12388.968    1.2561228 
    1890    301.30034   -4010.3904   -3993.6046   -494.06713      12385.3     1.248927 
    1900    303.17725   -4010.4643    -3993.574   -355.24221     12380.39     1.242482 
    1910    305.65973   -4010.5723   -3993.5437   -226.28494    12374.576    1.2384955 
    1920    300.29426   -4010.2468   -3993.5171   -70.105963    12368.209    1.2384599 
    1930    299.19373   -4010.1604    -3993.492   -52.690923    12361.654    1.2413979 
    1940    311.60028   -4010.8276    -3993.468   -228.57209    12354.933    1.2447564 
    1950    325.14571    -4011.572   -3993.4578   -292.88902    12347.661    1.2477543 
    1960    322.58747   -4011.4463   -3993.4745   -57.343397    12339.729    1.2514511 
    1970    310.75109    -4010.826   -3993.5137     230.9837    12331.679    1.2555551 
    1980    302.51352   -4010.4162   -3993.5629    335.01849    12324.191    1.2588023 
    1990    297.48353   -4010.1884   -3993.6153    233.89623    12317.529    1.2611949 
    2000    288.01854   -4009.7107   -3993.6649    162.26133    12311.487    1.2641615 
    2010    277.19846    -4009.145    -3993.702    264.53539    12305.915    1.2682997 
    2020    274.11336   -4008.9889   -3993.7178    405.79364    12301.038    1.2729327 
    2030    282.10407   -4009.4278   -3993.7114    383.56518    12297.154    1.2779577 
    2040    293.22849   -4010.0231    -3993.687    357.27298    12294.247    1.2833363 
    2050    303.15637   -4010.5423   -3993.6531    452.29811    12292.277    1.2883899 
    2060    309.34279   -4010.8532   -3993.6194    580.87543    12291.464    1.2926483 
    2070    312.49273   -4011.0017   -3993.5924    604.59551    12292.107    1.2958963 
    2080      315.887   -4011.1757   -3993.5773     502.1544    12294.263    1.2984145 
    2090    319.58608   -4011.3857   -3993.5812    396.67341    12297.697    1.3010579 
    2100    311.11209   -4010.9396   -3993.6072    391.94597    12302.167    1.3048905 
    2110    305.85689   -4010.6902   -3993.6506    451.39687    12307.675    1.3098575 
    2120    311.34074   -4011.0536   -3993.7084     323.0748    12314.297    1.3163378 
    2130    311.11014   -4011.1154   -3993.7831    221.08277    12321.768    1.3252205 
    2140    305.73097   -4010.9072   -3993.8746    168.33796    12329.832    1.3362183 
    2150    303.95646   -4010.9115   -3993.9777    40.246248    12338.336    1.3485503 
    2160    311.44207   -4011.4446   -3994.0938   -263.92931    12346.936    1.3616275 
    2170    314.50555    -4011.752   -3994.2306   -462.99084    12354.918    1.3746456 
    2180    299.91659    -4011.094   -3994.3853   -339.61749    12361.822    1.3863483 
    2190    282.17222   -4010.2547   -3994.5346   -152.92478    12367.912    1.3948171 
    2200    280.20258    -4010.275   -3994.6646   -203.33951    12373.588    1.3984526 
    2210    283.95463   -4010.5956   -3994.7761   -415.07133    12378.721    1.3974943 
    2220    282.20422   -4010.5936   -3994.8717   -557.47078    12382.823    1.3942999 
    2230    278.28275   -4010.4524    -3994.949   -623.34757    12385.531    1.3918333 
    2240     280.7106    -4010.647   -3995.0083   -671.39738    12386.653    1.3921099 
    2250    278.27487   -4010.5512   -3995.0482   -567.83091    12386.095    1.3958117 
    2260    273.56009   -4010.3041   -3995.0638   -442.21184    12384.089    1.4012068 
    2270    285.00462   -4010.9308   -3995.0529   -448.36205    12380.916    1.4058828 
    2280    298.88241   -4011.6729   -3995.0218   -464.14564    12376.596    1.4104408 
    2290    297.92461   -4011.5787   -3994.9809    -322.4326    12371.123     1.416512 
    2300    296.22978   -4011.4357   -3994.9324   -54.507329    12364.849    1.4235328 
    2310    295.86661   -4011.3555   -3994.8725    205.12277    12358.435    1.4318741 
    2320    295.74421   -4011.2753   -3994.7991    376.78249    12352.535    1.4429437 
    2330    299.28739   -4011.3838   -3994.7101    389.91126    12347.568    1.4571148 
    2340    299.15648   -4011.2727   -3994.6064    396.95163    12343.597    1.4735375 
    2350    293.49557   -4010.8418   -3994.4908    447.61629     12340.66    1.4888214 
    2360    298.15359   -4010.9741   -3994.3636     300.3182    12338.807    1.4985223 
    2370    306.60538   -4011.3057   -3994.2244    255.70596     12337.74    1.5020325 
    2380    306.34352   -4011.1459   -3994.0792    621.74793    12337.428    1.5022124 
    2390    305.55666   -4010.9517   -3993.9288    985.86931    12338.702    1.5031018 
    2400    312.59203   -4011.1851   -3993.7703    1060.2374     12342.43    1.5085662 
    2410    315.54946   -4011.1861   -3993.6065    911.96008    12348.816     1.520609 
    2420    319.40234   -4011.2408   -3993.4466    607.21047     12357.51    1.5385506 
    2430    324.49077   -4011.3731   -3993.2954    213.88476    12367.744    1.5604888 
    2440    318.83589    -4010.923   -3993.1602   -92.021847    12378.556    1.5832253 
    2450    307.26584   -4010.1593   -3993.0411   -229.53497    12389.177    1.6020073 
    2460    302.77634   -4009.7956   -3992.9276   -227.50764    12399.246    1.6152261 
    2470     307.4762   -4009.9427   -3992.8128   -262.82741    12408.723    1.6251344 
    2480    317.21019   -4010.3721      -3992.7   -338.61564    12417.518    1.6342207 
    2490    319.21834   -4010.3836   -3992.5996   -381.91079    12425.449    1.6444873 
    2500    310.96422   -4009.8411   -3992.5169   -213.30407    12432.457    1.6559959 
    2510    310.37464   -4009.7345   -3992.4432    34.614226    12438.936    1.6669951 
    2520    319.49429   -4010.1701   -3992.3707    163.56834    12445.481     1.676416 
    2530    323.97243   -4010.3538   -3992.3049    167.20228    12452.429    1.6832413 
    2540    323.47841   -4010.2785   -3992.2571    149.92282    12459.824    1.6854839 
    2550    321.41802   -4010.1405   -3992.2339   -12.742379    12467.569     1.684071 
    2560    320.16446   -4010.0729   -3992.2362   -303.88245    12475.245    1.6828528 
    2570    325.64437   -4010.4099   -3992.2679   -512.28287    12482.149    1.6844131 
    2580    323.79509   -4010.3809   -3992.3419   -443.61834    12487.787    1.6890781 
    2590    309.22127   -4009.6896   -3992.4626    -262.1384    12492.291    1.6953987 
    2600    299.42284   -4009.3003   -3992.6191   -112.61506    12496.102     1.701353 
    2610    298.51388   -4009.4326   -3992.8021    71.513509    12499.645    1.7058583 
    2620    303.80075   -4009.9367   -3993.0116    195.56267    12503.363    1.7087945 
    2630    299.66887   -4009.9341   -3993.2392    284.90536    12507.595    1.7121113 
    2640    298.23616   -4010.0827   -3993.4676    241.19479    12512.552    1.7174707 
    2650    297.07251   -4010.2375   -3993.6873    134.01965    12518.132    1.7249331 
    2660    288.64741   -4009.9634   -3993.8825    70.679961    12524.088    1.7329486 
    2670      291.889   -4010.3097   -3994.0482   -127.29494    12530.211    1.7385089 
    2680     302.2955   -4011.0367   -3994.1955   -332.84648    12536.021    1.7407244 
    2690    298.71218   -4010.9717   -3994.3301   -328.54926    12541.023    1.7413673 
    2700    286.04278   -4010.3813   -3994.4455   -140.07253    12545.218    1.7421087 
    2710    281.01917   -4010.1918   -3994.5359    36.501347    12549.049    1.7443618 
    2720    286.90864   -4010.5889   -3994.6049    264.30321    12553.001     1.749293 
    2730    291.00688   -4010.8712   -3994.6589    515.93469    12557.673    1.7580177 
    2740    286.04829   -4010.6366   -3994.7006     686.7881    12563.719    1.7704544 
    2750    280.63547   -4010.3604   -3994.7259    659.99138    12571.573    1.7842585 
    2760    286.90786   -4010.7131   -3994.7291    237.96312    12581.113    1.7957507 
    2770      295.254   -4011.1589     -3994.71   -257.26597    12591.302    1.8029496 
    2780    296.58577   -4011.2005   -3994.6774   -428.74437    12600.924    1.8064614 
    2790    298.77742    -4011.285   -3994.6398   -420.41097    12609.464     1.807459 
    2800    295.39556    -4011.054   -3994.5972   -373.90144    12616.904    1.8078762 
    2810    294.56843   -4010.9589   -3994.5482     -552.735    12623.303    1.8093198 
    2820    302.83254   -4011.3646   -3994.4935   -842.66364    12628.218    1.8124159 
    2830    308.05801   -4011.6021   -3994.4398   -939.91313    12630.932    1.8179648 
    2840    304.07342   -4011.3341   -3994.3938   -790.91929      12631.2     1.826582 
    2850    300.08752   -4011.0719   -3994.3537   -570.65822    12629.384    1.8369182 
    2860    300.64964   -4011.0645    -3994.315   -424.07717    12626.026    1.8465259 
    2870    298.80248   -4010.9241   -3994.2775   -291.37696     12621.54    1.8543463 
    2880    291.80125    -4010.495   -3994.2384   -103.79988    12616.302    1.8612086 
    2890    287.00939   -4010.1799   -3994.1903    86.517375     12610.79    1.8682747 
    2900    288.31581    -4010.187   -3994.1246    236.60318     12605.51    1.8751767 
    2910    296.20578   -4010.5394   -3994.0374    225.20846    12600.826    1.8802789 
    2920    304.34511   -4010.8857   -3993.9302    248.79615    12596.763    1.8828552 
    2930     308.0259   -4010.9702   -3993.8097    304.74676    12593.358     1.883288 
    2940     308.1851   -4010.8524   -3993.6831    499.98029    12590.806    1.8825254 
    2950    302.53082   -4010.4089   -3993.5545    796.89132    12589.616    1.8821738 
    2960    299.16896   -4010.0911    -3993.424    1068.7321    12590.544    1.8837623 
    2970    306.09133   -4010.3406   -3993.2879    1171.9138     12594.27    1.8885138 
    2980    311.16901   -4010.4852   -3993.1496    1151.2075    12601.091    1.8962553 
    2990     309.0864   -4010.2364   -3993.0169    990.36792    12610.957    1.9046314 
    3000    308.65975   -4010.0853   -3992.8896    624.75707    12623.427    1.9109302 
    3010    301.54578   -4009.5627   -3992.7632    299.40006    12637.594    1.9149757 
    3020    291.51986   -4008.8757   -3992.6348    149.06904    12652.647    1.9178221 
    3030    296.37635   -4009.0067   -3992.4952   -72.634299    12668.122    1.9202655 
    3040    305.14734   -4009.3424   -3992.3423   -312.16163    12683.439    1.9237889 
    3050    313.63209   -4009.6625   -3992.1897   -552.71003    12697.951     1.929156 
    3060    318.32363   -4009.7852    -3992.051   -795.77237    12710.995    1.9350834 
    3070    318.43563   -4009.6771   -3991.9367   -968.41282    12721.931     1.938677 
    3080      321.871   -4009.7819   -3991.8501   -1104.9073    12730.275    1.9376316 
    3090    323.83575   -4009.8352   -3991.7939   -1224.0469    12735.638     1.932161 
    3100    312.07988   -4009.1542   -3991.7679    -1138.619    12737.744     1.924543 
    3110    301.30661    -4008.544   -3991.7579   -1008.4544    12736.779    1.9172243 
    3120    300.99961   -4008.5187   -3991.7497   -1029.6226    12733.037    1.9110405 
    3130    306.21342   -4008.8041   -3991.7446   -1030.0339    12726.509    1.9044599 
    3140    299.83125   -4008.4511   -3991.7472   -858.32983    12717.225    1.8944402 
    3150     289.3084   -4007.8682   -3991.7505   -691.51924    12705.625    1.8774762 
    3160    300.93853   -4008.5132   -3991.7475   -927.25937    12692.059    1.8521059 
    3170    312.33065   -4009.1429   -3991.7426   -1138.7507    12676.016     1.821488 
    3180     314.5221   -4009.2686   -3991.7462   -1021.6938    12657.023    1.7900056 
    3190     316.0738   -4009.3673   -3991.7584   -732.22508    12635.376    1.7619219 
    3200    326.00934   -4009.9467   -3991.7844   -419.94516    12611.862    1.7407461 
    3210    338.09432   -4010.6866    -3991.851   -338.87047    12587.272     1.727659 
    3220    337.05934   -4010.7737   -3991.9957   -455.08989    12561.863    1.7198694 
    3230    325.44097   -4010.3667    -3992.236   -475.16931    12535.437    1.7118336 
    3240    314.90378    -4010.106   -3992.5624   -334.87226    12507.956    1.6990042 
    3250    305.70273   -4009.9686   -3992.9376    45.981358     12479.84    1.6797944 
    3260    298.02209   -4009.9014   -3993.2982    587.51218    12452.073    1.6561305 
    3270    288.95981   -4009.6863   -3993.5881    1116.4395    12426.036    1.6327818 
    3280      286.959   -4009.7787   -3993.7919    1460.8733    12403.038     1.613812 
    3290    296.43904   -4010.4493   -3993.9343    1563.9252    12383.908    1.6011342 
    3300    306.93831   -4011.1471   -3994.0472    1610.7912    12368.919     1.594591 
    3310    304.34139   -4011.1034   -3994.1482    1644.0291    12358.157     1.591922 
    3320    298.84584   -4010.8907   -3994.2417    1520.1721    12351.624    1.5896198 
    3330    291.56774   -4010.5676    -3994.324    1377.9415    12349.009     1.586292 
    3340     280.5006    -4010.014    -3994.387    1079.9099    12349.872     1.583119 
    3350    282.31988   -4010.1556   -3994.4273    706.11401    12353.462    1.5809878 
    3360     296.7951   -4010.9857   -3994.4509    407.52065    12358.849    1.5800942 
    3370    308.97803   -4011.6837   -3994.4702    240.99429    12365.267    1.5803574 
    3380    311.31584    -4011.838   -3994.4943    265.35461    12372.311    1.5805232 
    3390    314.67098   -4012.0604   -3994.5297    217.29359    12379.969    1.5781411 
    3400    314.74389   -4012.1153   -3994.5805    141.89981    12388.127    1.5726911 
    3410    312.99899    -4012.085   -3994.6475   -13.676603    12396.575    1.5659199 
    3420    314.64426   -4012.2596   -3994.7304   -286.93421    12404.901     1.559546 
    3430    307.92025   -4011.9816    -3994.827   -497.48352    12412.443    1.5541909 
    3440    296.16308   -4011.4247   -3994.9252   -595.36785    12418.671    1.5488131 
    3450    292.67422   -4011.3201   -3995.0149   -511.01941    12423.358    1.5424175 
    3460    292.40231   -4011.3865   -3995.0964   -289.86765    12426.723    1.5357839 
    3470    290.63221   -4011.3634    -3995.172   -75.497766    12429.325     1.530087 
    3480    289.54265   -4011.3724   -3995.2417    5.4364795    12431.685    1.5263308 
    3490    289.11993   -4011.4107   -3995.3035   -9.9209329     12434.02    1.5255776 
    3500    290.90326   -4011.5624   -3995.3559   -144.22213    12436.283    1.5284981 
    3510    295.35133   -4011.8552   -3995.4008   -324.98038    12438.141    1.5349701 
    3520      296.107   -4011.9365   -3995.4401   -414.44171     12439.18    1.5444105 
    3530     298.9975   -4012.1343   -3995.4768   -457.71664    12439.154    1.5559333 
    3540    296.35132   -4012.0232   -3995.5131   -295.83221    12438.001    1.5680862 
    3550     288.2018   -4011.6018   -3995.5457   -113.66649    12436.107    1.5784916 
    3560    287.57181   -4011.5896   -3995.5686   -103.10332    12433.898    1.5854905 
    3570    286.44196   -4011.5361    -3995.578   -158.26121    12431.425    1.5897424 
    3580    283.79776   -4011.3838   -3995.5731   -155.63121    12428.571    1.5924167 
    3590    282.23109   -4011.2757   -3995.5523   -41.438926    12425.366    1.5944744 
    3600    277.98737   -4010.9967   -3995.5097     105.9611    12422.095    1.5966246 
    3610     283.4517   -4011.2335   -3995.4421    159.85113    12419.102     1.599104 
    3620    289.18458   -4011.4592   -3995.3484    303.09678    12416.565    1.6025567 
    3630    290.21064   -4011.4022   -3995.2343    612.63748    12414.855    1.6072622 
    3640    291.56691   -4011.3451   -3995.1016    925.09322     12414.74    1.6128908 
    3650    299.99623   -4011.6665   -3994.9534     1105.463    12416.979    1.6188405 
    3660     304.6834   -4011.7715   -3994.7973    1103.8787    12422.008    1.6249346 
    3670    305.73829   -4011.6779   -3994.6449     956.4536    12429.819    1.6307084 
    3680    303.75469   -4011.4236   -3994.5011    888.72189    12440.097    1.6355401 
    3690    303.87601   -4011.2971   -3994.3678    803.32689    12452.643    1.6395216 
    3700    307.54583   -4011.3781   -3994.2444    751.70958    12467.249    1.6442945 
    3710    307.42065   -4011.2606   -3994.1339    802.22331    12483.799    1.6520086 
    3720    307.92243   -4011.1933   -3994.0386    767.30529    12502.377    1.6635289 
    3730    308.40297    -4011.139   -3993.9575    635.11188    12522.903    1.6782838 
    3740     303.9402   -4010.8214   -3993.8885    328.00236    12545.012    1.6941477 
    3750    297.62964   -4010.4049   -3993.8236   -152.87448      12567.9    1.7083792 
    3760    299.87198   -4010.4608   -3993.7546   -643.38345    12590.328    1.7196824 
    3770    310.80932   -4010.9996   -3993.6841   -956.96304    12611.041     1.728698 
    3780     317.7609   -4011.3283   -3993.6255   -1032.5712    12629.207    1.7359754 
    3790    314.53337   -4011.1132   -3993.5902   -951.52455    12644.609    1.7412191 
    3800    306.29524   -4010.6384   -3993.5744   -980.99263    12657.394    1.7449749 
    3810    303.30879   -4010.4665   -3993.5689   -1147.0076    12667.473    1.7485994 
    3820    303.32584   -4010.4689   -3993.5703   -1366.8191    12674.438    1.7518615 
    3830    297.45706   -4010.1499   -3993.5782   -1518.6988    12677.726    1.7529679 
    3840    291.81381   -4009.8441   -3993.5868   -1443.3674    12676.989    1.7502764 
    3850    292.18829   -4009.8663   -3993.5882   -1219.6885    12672.415    1.7433402 
    3860    292.43893   -4009.8704   -3993.5783     -925.632    12664.614    1.7333256 
    3870    298.12742   -4010.1683   -3993.5593   -805.76162    12654.339    1.7218349 
    3880    307.34863   -4010.6619   -3993.5391   -915.43661    12641.905    1.7108232 
    3890    312.48347   -4010.9385   -3993.5297    -1043.261    12627.073    1.7015994 
    3900      311.799   -4010.9068   -3993.5362   -932.34969    12609.599    1.6938836 
    3910    309.07095    -4010.775   -3993.5563   -669.50461     12589.77    1.6868149 
    3920    302.61817   -4010.4437   -3993.5845   -269.29266    12568.294    1.6802742 
    3930    295.58494   -4010.0803   -3993.6129    96.003319    12546.203    1.6747114 
    3940    293.32037   -4009.9787   -3993.6375    306.97967    12524.443    1.6701518 
    3950     294.0139   -4010.0352   -3993.6554    516.83022    12503.625    1.6653777 
    3960    308.14114     -4010.84   -3993.6731    571.25259    12484.257    1.6584489 
    3970    324.10715   -4011.7689   -3993.7125    516.02479    12466.453     1.649616 
    3980    320.92309   -4011.6768   -3993.7978    750.58442    12450.173    1.6403937 
    3990    307.84573   -4011.0854   -3993.9349    975.59782    12435.927    1.6312154 
    4000    307.71801   -4011.2664   -3994.1231    1004.2225    12424.227    1.6220115 
    4010    314.67939   -4011.8984   -3994.3672    1102.9431     12415.19    1.6143446 
    4020    314.39959   -4012.1777   -3994.6621    1314.4988    12409.072    1.6101943 
    4030    303.96213   -4011.9086   -3994.9745    1292.8389    12406.304     1.609951 
    4040    295.55908     -4011.73   -3995.2641    1102.1117    12406.835    1.6122421 
    4050    291.77846   -4011.7644   -3995.5091    892.21929      12410.2    1.6149666 
    4060    293.31239    -4012.048   -3995.7072    756.69969    12415.877    1.6166334 
    4070    299.04619   -4012.5294   -3995.8692    684.43717    12423.507    1.6187232 
    4080    306.47114   -4013.0835   -3996.0096    661.52403    12432.903    1.6242843 
    4090    309.72933   -4013.3963   -3996.1409    574.21655    12443.973    1.6344465 
    4100    306.34789   -4013.3331   -3996.2661    315.57911    12456.458    1.6467132 
    4110     298.7163   -4013.0228    -3996.381    60.354166    12469.744    1.6574893 
    4120    286.47584   -4012.4395   -3996.4796   -66.160782    12483.185    1.6657455 
    4130    272.93185   -4011.7585   -3996.5531   -43.906905    12496.456    1.6729055 
    4140    266.68186    -4011.452   -3996.5949   -119.93938    12509.559     1.680279 
    4150    266.52261   -4011.4496   -3996.6013    -282.0039    12522.313    1.6882119 
    4160    272.70933   -4011.7674   -3996.5744   -470.80758    12534.302    1.6961364 
    4170    283.35468   -4012.3055   -3996.5194   -722.30348    12545.011    1.7029285 
    4180    293.79699   -4012.8137   -3996.4459   -910.60445    12553.819    1.7074081 
    4190    295.74179   -4012.8403   -3996.3642   -979.88737    12560.243    1.7092823 
    4200    290.82839   -4012.4813   -3996.2789   -977.41415    12564.079    1.7086702 
    4210    285.06925   -4012.0671   -3996.1855   -824.01713    12565.362    1.7063005 
    4220    283.43911   -4011.8696   -3996.0789   -603.84123    12564.491     1.703898 
    4230    284.39637   -4011.8004   -3995.9563   -450.00505    12562.027    1.7032475 
    4240    286.30058   -4011.7681    -3995.818   -418.37407    12558.361    1.7046119 
    4250    290.15661    -4011.831   -3995.6661   -439.28745    12553.593    1.7067196 
    4260    293.74246   -4011.8703   -3995.5056   -373.38419    12547.711     1.708036 
    4270    303.17194   -4012.2348   -3995.3447   -399.23564    12540.842    1.7073567 
    4280    312.27686    -4012.591   -3995.1937    -509.6595     12532.91    1.7040139 
    4290     315.3562   -4012.6344   -3995.0655   -479.94349    12523.707    1.6973859 
    4300    318.53955    -4012.712   -3994.9658   -606.90153    12513.232     1.687191 
    4310    328.22875   -4013.1837   -3994.8977   -801.50074    12501.177    1.6746634 
    4320     333.3489    -4013.439   -3994.8678   -857.19095    12487.071    1.6623932 
    4330    326.51247   -4013.0684    -3994.878   -577.36458    12470.842    1.6519853 
    4340     314.1773   -4012.4176   -3994.9144    -154.1399     12453.19    1.6437252 
    4350    311.57749   -4012.3219   -3994.9636    242.77524    12435.187    1.6383412 
    4360    313.33263   -4012.4784   -3995.0223    586.73824    12417.847    1.6373479 
    4370    309.65417   -4012.3431   -3995.0919    856.16359    12402.039     1.639533 
    4380    300.71489   -4011.9209   -3995.1677    956.65144    12388.429    1.6416789 
    4390    298.55809   -4011.8772   -3995.2442    920.41275    12377.285    1.6411104 
    4400    303.74309   -4012.2455   -3995.3237    921.23011    12368.529    1.6379122 
    4410    299.47948   -4012.0924   -3995.4081    999.03824    12362.158    1.6353924 
    4420    286.71416   -4011.4622    -3995.489    985.72334    12358.335    1.6368557 
    4430    280.94861   -4011.2073   -3995.5553    758.62645    12356.995      1.64318 
    4440    282.85226   -4011.3605   -3995.6025    375.34237    12357.561    1.6532365 
    4450    286.52253   -4011.5951   -3995.6327    136.65645    12359.128    1.6644283 
    4460    285.62917   -4011.5617    -3995.649    133.12962      12361.1    1.6739013 
    4470    274.35603   -4010.9316   -3995.6469    256.00731    12363.445    1.6801105 
    4480    273.57111   -4010.8589    -3995.618    289.47698    12366.426    1.6819509 
    4490    285.39276   -4011.4565   -3995.5569    248.91663    12370.145     1.680619 
    4500    297.56004   -4012.0486   -3995.4712    197.13203    12374.509     1.679594 
    4510    301.18426   -4012.1525   -3995.3732    160.13019    12379.398     1.681882 
    4520    298.49268   -4011.8984    -3995.269    95.014623    12384.709    1.6890923 
    4530    303.41459   -4012.0592   -3995.1556   -79.071321    12390.251    1.7006735 
    4540    314.75454   -4012.5674   -3995.0321   -356.13692    12395.574    1.7137333 
    4550    319.71361   -4012.7199   -3994.9083   -305.71895    12400.084    1.7251278 
    4560    316.45085   -4012.4247   -3994.7948   -9.3273748    12403.878    1.7334087 
    4570    316.94294   -4012.3483   -3994.6911     75.85656    12407.615    1.7387909 
    4580    318.21542    -4012.323   -3994.5948   -42.080628    12411.514    1.7425662 
    4590    310.84149   -4011.8225   -3994.5051   -172.67527    12415.314     1.745162 
    4600    307.82025   -4011.5653   -3994.4162    -259.9094    12418.699     1.745769 
    4610      309.048   -4011.5386   -3994.3212   -197.38256    12421.472    1.7444144 
    4620    314.56466   -4011.7454   -3994.2207   -111.33986     12423.76    1.7403816 
    4630    319.11911   -4011.8965    -3994.118   -92.496511    12425.759    1.7344489 
    4640    314.31623   -4011.5285   -3994.0176   -74.260229    12427.533    1.7312035 
    4650    304.20919   -4010.8647   -3993.9169    78.591666     12429.17    1.7330512 
    4660    305.11616   -4010.8041   -3993.8058    80.275323    12430.987    1.7380712 
    4670    318.60748   -4011.4314   -3993.6814   -213.96657    12432.966    1.7441451 
    4680    328.74422   -4011.8718   -3993.5571   -601.32548    12434.384    1.7515571 
    4690    337.26618   -4012.2444   -3993.4549   -815.33951    12434.301    1.7605708 
    4700    333.01011   -4011.9407   -3993.3883   -716.93761    12432.184    1.7695022 
    4710    325.17441    -4011.475   -3993.3591   -500.32509    12428.243     1.774273 
    4720    318.57235   -4011.1081   -3993.3601   -529.59797    12422.926     1.773001 
    4730    306.66234    -4010.467   -3993.3825   -413.71773     12416.27    1.7676419 
    4740    303.21112    -4010.309   -3993.4168   -259.10974    12408.521    1.7603334 
    4750    305.22272   -4010.4629   -3993.4586   -93.346878    12400.072    1.7523082 
    4760    309.32021   -4010.7447   -3993.5121    18.296458    12391.332    1.7451585 
    4770    309.28264   -4010.8128   -3993.5823    101.53423    12382.598     1.740454 
    4780     309.6434   -4010.9209   -3993.6703    189.26476    12374.087    1.7384675 
    4790    316.74018   -4011.4266   -3993.7806    241.35848        12366    1.7384575 
    4800    319.35279   -4011.7133   -3993.9218    500.70389     12358.53    1.7397478 
    4810    316.11218   -4011.7045   -3994.0935    869.77312     12352.33     1.741094 
    4820    323.50583   -4012.3196   -3994.2968    951.92212    12348.258    1.7411357 
    4830    330.64026   -4012.9569   -3994.5365    922.76109    12346.573    1.7414539 
    4840    320.90451    -4012.679    -3994.801    1087.4138    12347.287    1.7439152 
    4850    301.92355   -4011.8748   -3995.0543    1308.0972    12350.828    1.7473071 
    4860    296.21205   -4011.7765   -3995.2742    1184.2357    12357.681    1.7492503 
    4870    294.12037   -4011.8427   -3995.4569    906.86645    12367.628     1.749936 
    4880    287.20638   -4011.5994   -3995.5989    621.78234    12380.023    1.7512329 
    4890    286.06548   -4011.6408   -3995.7038     296.2599    12394.143    1.7538328 
    4900    287.58476   -4011.7988   -3995.7772   -50.459257     12409.17    1.7565655 
    4910    290.79145    -4012.026   -3995.8256   -322.19844    12424.247    1.7573409 
    4920    290.62916   -4012.0474   -3995.8561   -550.64989    12438.647    1.7557137 
    4930    285.75353   -4011.7911   -3995.8714   -609.33591    12451.806    1.7534814 
    4940    288.36237   -4011.9378   -3995.8728   -678.17143    12463.507    1.7518556 
    4950    296.21577    -4012.366   -3995.8635   -793.73286    12473.549    1.7507184 
    4960     301.7793   -4012.6647   -3995.8522   -873.40284     12481.64    1.7488971 
    4970    298.46228   -4012.4712   -3995.8436   -766.87706    12487.584    1.7458712 
    4980    299.22413   -4012.5062   -3995.8361   -614.14363     12491.59     1.741612 
    4990    304.57385   -4012.7952   -3995.8271   -507.33081    12494.031    1.7374989 
    5000    303.26176   -4012.7146   -3995.8196   -423.86845    12495.163    1.7360536 
Loop time of 1786.42 on 8 procs for 5000 steps with 432 atoms

Performance: 0.242 ns/day, 99.245 hours/ns, 2.799 timesteps/s
95.6% CPU use with 8 MPI tasks x 1 OpenMP threads

MPI task timing breakdown:
Section |  min time  |  avg time  |  max time  |%varavg| %total
---------------------------------------------------------------
Pair    | 1326.4     | 1514.1     | 1780.5     | 354.4 | 84.76
Bond    | 0.00057912 | 0.0012133  | 0.0022187  |   1.3 |  0.00
Neigh   | 0.059345   | 0.066409   | 0.077841   |   2.4 |  0.00
Comm    | 2.3991     | 245.61     | 397.33     | 892.1 | 13.75
Output  | 0.29146    | 0.30248    | 0.37912    |   5.3 |  0.02
Modify  | 0.37965    | 26.263     | 101.05     | 842.8 |  1.47
Other   |            | 0.02214    |            |       |  0.00

Nlocal:        54.0000 ave          58 max          49 min
Histogram: 1 0 1 1 0 1 2 0 0 2
Nghost:        456.500 ave         481 max         411 min
Histogram: 1 0 0 1 0 0 2 1 1 2
Neighs:         0.00000 ave           0 max           0 min
Histogram: 8 0 0 0 0 0 0 0 0 0
FullNghs:      1768.00 ave        1957 max        1592 min
Histogram: 1 2 0 1 0 1 1 0 0 2

Total # of neighbors = 14144
Ave neighs/atom = 32.740741
Ave special neighs/atom = 0.0000000
Neighbor list builds = 500
Dangerous builds = 500
System init for write_data ...
Total wall time: 0:29:50
