LAMMPS data file via write_data, version 2 Aug 2023, timestep = 50000, units = metal

1536 atoms
2 atom types

-0.7233466888094107 25.858317088827008 xlo xhi
-0.6638607975711217 25.79883119758866 ylo yhi
-7.587438062172858 82.992349262227 zlo zhi

Masses

1 35.45
2 39.0983

Atoms # full

481 0 2 1 5.283509522540213 -0.09643225743425465 -4.937729912763247 0 0 0
960 0 1 -1 15.578188757617756 -0.008690465772403067 -6.575698806296105 -1 0 1
1 0 2 1 20.959828615032933 2.3651722516613716 -5.770603332311394 -1 0 0
6 0 1 -1 25.41396768489287 0.15839075888348086 -5.61670433288951 -1 0 0
763 0 2 1 7.306317535831333 4.05037308476637 -6.385077388534391 0 0 1
1050 0 2 1 13.424208706649054 3.6455693472226063 -4.367052823450804 0 0 1
1156 0 2 1 16.997790536094723 2.746761070258879 -6.334748787284812 0 0 0
1256 0 1 -1 18.873491445758013 4.533845296740393 -4.612909003602713 0 0 0
669 0 1 -1 22.840187996635144 4.7382738153899195 -5.278329394463943 -1 0 1
1330 0 2 1 25.17560351951384 3.4721868276648538 -6.686601649516905 0 0 1
852 0 2 1 2.2710116042112127 7.272505173926808 -6.343133565220734 0 0 1
670 0 1 -1 0.0813655740136795 6.357397337561449 -4.815374556801773 0 0 1
382 0 1 -1 4.731672009565644 6.135620886973125 -5.751154885328588 0 0 1
872 0 1 -1 8.890064725057863 6.472564853986278 -6.08075047233171 0 0 0
961 0 2 1 6.343595908322441 8.582570545228597 -5.348379098719192 0 0 0
468 0 2 1 11.214071200320044 7.429187176004836 -4.880318038980981 -1 0 1
1429 0 1 -1 13.89543482992018 6.462529958369258 -5.797093940406665 0 0 1
860 0 2 1 16.610934249855926 7.511993911334107 -4.66596189564868 0 0 1
1139 0 2 1 20.50531713159929 6.476645086197017 -6.629699493696745 -1 1 1
96 0 1 -1 20.25364463353104 8.733975031446743 -4.366964261072473 -1 0 1
478 0 1 -1 1.8184515318246341 10.140674225566771 -5.650901145432439 0 0 1
951 0 1 -1 9.203086210923516 10.307518619295477 -6.13681947028145 0 0 1
362 0 2 1 12.31218399932887 11.70033558515961 -5.791619366102831 -1 0 1
1053 0 1 -1 15.31053031525942 10.288416190481975 -6.828189279686663 0 1 1
1252 0 2 1 18.61621401819004 10.165892833024381 -7.047022634999762 0 0 0
858 0 2 1 21.4875393858933 11.393963848691028 -5.154667668781309 -1 -1 1
104 0 1 -1 24.675200496682606 9.940565271414068 -4.414263586807671 -1 0 0
292 0 2 1 24.40463546244891 9.40731449988398 -7.570053750539728 -1 0 0
1241 0 2 1 -0.3961937595156054 12.617689800822534 -4.88603222559709 1 0 1
576 0 1 -1 0.32985695836604867 15.554822499289173 -5.287438503685548 0 -1 1
190 0 1 -1 4.733776711397953 12.581486860767097 -6.992194862458734 0 0 1
577 0 2 1 7.516748106434655 12.58519718628912 -5.2970995150497 0 0 0
767 0 1 -1 10.017938634458424 14.515512929283785 -6.398646496136081 0 0 1
1352 0 1 -1 18.191546896948502 12.960681812017214 -5.115562390030254 0 0 0
200 0 1 -1 21.63931225995397 14.878428983623815 -7.330315605597809 -1 0 0
193 0 2 1 0.9046702484125029 18.975272014357685 -5.976109857741991 0 0 0
1435 0 2 1 3.1154412689383983 16.225156213085604 -5.924262907953365 1 0 1
1426 0 2 1 7.748081734126847 17.275399334707597 -6.005726971954223 0 -1 1
1439 0 1 -1 13.841380122150836 17.59306128528414 -5.838023066996196 0 0 1
570 0 2 1 18.841456637393506 15.971517749225455 -6.339550154832951 0 -1 1
296 0 1 -1 22.698201408810792 17.704512166003838 -4.4032555612580735 -1 0 0
1145 0 2 1 24.079449052528652 16.1826009823253 -7.113041880836725 -1 0 1
1142 0 1 -1 0.6643516788782489 21.445573065746288 -4.353226963384834 1 0 1
91 0 2 1 3.5727726085234925 22.06032873893229 -4.4787282761603855 0 -1 1
663 0 1 -1 5.290143672111128 19.471029701108584 -6.199799614920009 -1 0 1
191 0 1 -1 9.795866956679388 20.134673887106477 -6.181871969635329 -1 -1 1
265 0 2 1 12.985288953218591 20.174008535784672 -7.458691781093876 -1 0 1
1244 0 2 1 16.88328587366669 20.475702666593065 -6.227071608811566 0 -1 1
288 0 1 -1 19.899477588074088 21.409055957876777 -5.62443215819442 -1 -1 1
857 0 2 1 23.101448734801792 20.653829854639742 -5.361429671487661 -1 -1 1
177 0 2 1 -0.0769934414168213 23.837499573550655 -5.921053609979491 0 -1 1
389 0 1 -1 3.2344018746805037 24.37182005730726 -6.178086156814556 0 -1 0
773 0 1 -1 11.514388471877954 25.28010864916745 -5.012888884053209 0 -1 0
946 0 2 1 9.714739724074164 23.216150432469885 -6.523942342919235 0 -1 1
1153 0 2 1 20.06070582470428 24.090539928102793 -5.699476536384282 0 -1 0
1045 0 1 -1 23.276082560685758 23.093318736749172 -6.7612478431550835 -1 0 1
485 0 1 -1 3.7855898242537123 -0.17002797889680166 -1.471140623969184 0 0 0
1339 0 2 1 9.24553321704661 1.2250797504549122 -2.3953985499533266 0 1 1
1160 0 1 -1 16.060038195342997 2.1864226181974913 -3.197363605492086 0 0 0
1249 0 2 1 18.001070532399147 0.46829638525549444 -1.2678794679033096 0 0 0
383 0 1 -1 21.116995068311088 -0.21484542697827774 -3.6764191499664096 -1 0 1
377 0 2 1 23.931144311558285 -0.25297975638377973 -2.7557336597811126 -1 0 1
758 0 1 -1 25.16174941627412 1.8426059810699194 -1.1331866672274034 -1 1 1
188 0 2 1 2.218506175717094 3.3903728708952716 -3.982719682560182 0 0 1
1526 0 1 -1 2.3578887973151943 5.076255396138435 -1.211549593285027 1 0 1
1534 0 1 -1 5.011026872246051 3.0338348814518974 -3.8448212458938356 1 0 1
870 0 1 -1 10.588524346487945 3.6117340830436886 -3.690174245769322 0 0 0
1344 0 1 -1 13.689364688233487 5.157551416923102 -1.3528559432808072 0 0 1
388 0 2 1 16.685415642584484 4.61249173835903 -2.1364874160748375 0 0 0
99 0 2 1 21.53444958349722 3.595368639437182 -2.2257421908617383 -1 0 0
1433 0 2 1 1.2469576864768823 8.42958853077616 -2.425781010500666 1 0 1
482 0 2 1 5.07041764292169 6.333011102962802 -1.3955418226512402 0 0 0
488 0 1 -1 3.9388963483415997 8.813792918517047 -2.9674648204432463 0 0 0
278 0 1 -1 11.640828927825577 9.240315754573915 -2.6851579422632925 -1 0 1
866 0 2 1 14.193319314823496 8.393352671566712 -1.2839955453126226 0 0 0
1046 0 1 -1 16.954149882991263 8.823047942007566 -1.9992393252344742 0 0 1
186 0 2 1 20.01408967214843 8.118043970509229 -1.3487232487729521 -1 0 1
282 0 2 1 24.02639257888462 6.942646924814277 -3.7952160716971006 -1 0 1
102 0 1 -1 0.8554673149688772 11.753798623591015 -2.355728400235689 0 0 0
1041 0 2 1 3.5870999757819515 11.971935010527757 -4.135911955950235 0 0 1
967 0 1 -1 7.817324212842742 11.198832556989574 -3.0533835219710124 0 0 0
964 0 2 1 9.973185569352253 11.356286603915496 -1.32439114856657 0 0 0
1428 0 2 1 15.744847195948335 12.119441009318201 -3.177889786835917 0 0 1
1348 0 2 1 24.699352192383387 11.294999537016505 -1.5598002061947378 0 0 0
765 0 1 -1 3.0343075054381217 14.894346028549258 -3.2512855980891144 0 0 1
965 0 1 -1 8.618895868951261 15.78749540316052 -3.3659242956761384 0 0 0
962 0 2 1 6.541552537021722 14.866841488652232 -1.761862719844843 0 0 0
761 0 2 1 11.585120733543132 15.77912025853309 -4.045063202117777 -1 0 1
1061 0 1 -1 12.153541029429121 12.588374500544528 -2.652922225090631 0 0 0
1531 0 2 1 19.87398992205453 15.030601713091503 -3.2028836749934193 0 0 1
197 0 1 -1 22.54277272981722 13.34559961487537 -3.1732605141815036 -1 0 0
476 0 2 1 3.966392477339327 17.191594866770803 -1.3283109915329518 0 -1 1
1245 0 1 -1 13.242192923834947 17.104350493050294 -1.954391023898566 0 -1 1
1441 0 2 1 15.839049422250376 18.356626624528154 -2.9396866011259233 0 0 0
1448 0 1 -1 18.200760732577713 18.6108671591387 -4.342688729139643 0 0 0
289 0 2 1 24.360705356728563 16.151300480840863 -2.6174072679416094 -1 0 0
567 0 1 -1 3.5117993409869186 20.2809287946883 -1.7381716147165314 0 -1 1
676 0 2 1 6.6994901979316275 21.204401751545262 -2.2802987615658132 0 0 0
769 0 2 1 11.577379721643513 19.360851612938113 -1.199059674470072 0 -1 0
1445 0 1 -1 13.092483637901845 21.948122675337547 -2.3597705118412673 0 0 0
1444 0 2 1 20.29711542157655 20.076434976559675 -2.0976099959599335 0 0 0
385 0 2 1 25.359299387323645 21.38163879307135 -1.8242558707533574 -1 -1 0
391 0 1 -1 7.614874756106861 25.355386347076134 -3.464002990491947 0 -1 0
1243 0 2 1 11.22103285739578 24.530218430991074 -1.8343043737424676 0 -1 1
851 0 2 1 14.807172340956974 25.708640020978137 -3.67426919971703 0 -1 1
1157 0 1 -1 22.563459297263645 22.739079449478577 -2.4371099412990844 0 -1 0
386 0 2 1 1.486802340033969 1.0994731162185933 -0.1807865726004776 0 0 0
865 0 2 1 5.561467125007463 2.3921551295698253 -0.7418805068142538 0 0 0
397 0 1 -1 6.773294140564875 0.9942826833348002 1.5274794436502468 0 0 0
776 0 1 -1 16.756889618677196 2.200008642814622 1.12976021278517 0 0 0
1255 0 1 -1 21.244089600544303 1.6732565745920045 -0.17498866028092586 0 0 0
392 0 1 -1 1.7944089804602612 3.141845626549015 2.076733747202285 0 0 0
483 0 2 1 3.646306637656993 5.175820287214241 1.600175209396964 0 0 0
279 0 1 -1 7.5031793922038155 4.457841983670313 -0.3164337421189414 -1 1 1
867 0 2 1 14.115715253304367 3.374588018641833 1.2344054284614767 0 0 0
1254 0 1 -1 18.82091780952388 5.255176687610336 -0.15533367546401067 0 0 0
1251 0 2 1 21.42534456529994 5.726518684957542 1.5389516543956177 0 0 0
4 0 2 1 25.806384349490394 4.56740187019157 0.2967866997876367 -1 0 0
103 0 1 -1 0.16011775345197465 8.189208168746427 1.0094872188625494 0 0 0
390 0 1 -1 5.793868377945883 7.783085751552891 0.9011038864218186 0 0 0
963 0 2 1 10.200139032710894 6.618217539397815 -0.5014910169288305 0 0 0
880 0 1 -1 12.417285587894511 8.303293159181449 1.221845115763399 0 0 0
1250 0 2 1 17.35529404646501 7.918424357081481 1.2090518208026069 0 0 0
1349 0 1 -1 20.704478979563063 8.875484812757113 1.5058507153226 0 0 0
1253 0 1 -1 22.687238006605938 6.407967273145179 -1.050068528244223 0 0 0
98 0 2 1 23.48620718309484 8.443902791109702 0.8441496196848828 -1 0 0
195 0 2 1 1.708884404901089 11.335740468796809 0.6629857294704706 0 0 0
100 0 2 1 5.7290549502605685 10.113414878843521 -0.8461825035497643 0 0 0
1345 0 2 1 13.026220505268586 11.254136653789319 1.9901433631456271 0 0 0
1351 0 1 -1 16.2079478344673 11.083806717431798 2.0476624422087397 0 0 0
199 0 1 -1 23.45965621363444 11.544053666230916 0.949621518329538 -1 0 0
659 0 2 1 1.1248338445530055 14.52859417688997 -1.0669575679706176 0 0 1
198 0 1 -1 0.3913474680143125 14.062121333825615 1.7743924652268177 0 0 0
581 0 1 -1 4.1730000480167115 12.841519941333253 -0.24136999443596618 0 0 0
582 0 1 -1 8.277154450291741 13.027129945371222 0.2983394374434516 0 0 0
1057 0 2 1 10.99248517024015 15.061678836830586 -0.014452281171033476 0 0 0
1346 0 2 1 16.612237227073187 14.695503988219325 0.557771023555576 0 0 0
1350 0 1 -1 19.30801077034958 14.274739121737849 -0.17098188451232676 0 0 0
194 0 2 1 23.692802732877315 14.682985005563632 1.6059957558858216 -1 0 0
293 0 1 -1 -0.47185687863736053 17.336121714839823 -0.9569963252748916 0 0 0
291 0 2 1 -0.3337235619166235 17.338862104341224 2.0679712074132954 0 0 0
1064 0 1 -1 6.776352344674129 18.01195876775881 -0.7039615214009212 0 0 0
1063 0 1 -1 10.593748392911191 17.493279779856923 1.322196097167394 0 0 0
1447 0 1 -1 16.74327621436081 17.966422219811285 -0.022917323534255907 0 0 0
1443 0 2 1 19.6538596668222 17.632770391979054 1.6959836715616952 0 0 0
295 0 1 -1 23.117249539755456 17.374908590785502 1.5724888842557707 -1 0 0
294 0 1 -1 -0.15196988559474833 21.15831803756775 1.9573335142552963 0 0 0
677 0 1 -1 7.377398636286253 21.635012888822665 0.5127096364044998 0 0 0
1060 0 2 1 9.848429575881315 21.812657573996862 1.9726679798961495 0 0 0
1062 0 1 -1 13.492526561864256 21.175129654233196 1.8489899045021936 0 0 0
1446 0 1 -1 19.616698563560828 20.598998665645276 1.7091026451758093 0 0 0
1434 0 2 1 2.3935899517925665 23.503434295025553 -0.7798569981078076 0 0 1
5 0 1 -1 -0.696992383298776 23.848207851719472 -1.0362271091466377 0 -1 0
487 0 1 -1 1.8628357060127172 24.787460606918106 1.8314969966261785 0 -1 0
387 0 2 1 5.399626185523026 24.664991012280222 0.7622572221030115 0 -1 0
680 0 1 -1 10.80457155759714 25.196602034736 1.0027854819924968 0 0 0
775 0 1 -1 15.116005514381834 25.424681206430556 -0.8349393770484212 0 -1 0
771 0 2 1 15.833592565586706 22.813022892281204 -0.03488400067478992 0 -1 0
1159 0 1 -1 19.304901006892464 24.208475648851074 0.47653594625087337 0 -1 0
1155 0 2 1 21.753819215715026 24.968513051816515 -0.547578887178374 0 -1 0
12 0 2 1 0.8654029570414405 2.2325815424715425 5.134037633557819 0 0 0
770 0 2 1 9.097359219707227 2.4932900621619645 2.2645865488416987 0 0 0
396 0 2 1 5.977471505034929 1.0038198886922969 4.455183882775996 0 0 0
1154 0 2 1 17.34857539422154 -0.16689033441421836 2.51529137873535 0 0 0
2 0 2 1 22.70041739811654 1.1906922811100191 2.7539958262642656 -1 0 0
493 0 1 -1 6.6978262916439695 4.306662555662255 5.1526641446173596 0 0 0
486 0 1 -1 11.297291247855092 4.245482942925175 2.3542132026079834 0 0 0
873 0 2 1 10.236423582780752 4.7239731514124585 4.910130298870611 0 0 0
877 0 1 -1 13.728303576830069 4.309374164770578 5.032476734577106 0 0 0
1261 0 1 -1 19.835882613374967 4.678813930732836 4.575101333989945 0 0 0
1158 0 1 -1 24.065152052961956 3.9741295867146462 2.4708011966392167 0 0 0
105 0 2 1 23.683108408568994 4.953837043554682 5.279684302951523 -1 0 0
108 0 2 1 0.1651672921107188 8.506685437622705 4.258175996088742 0 0 0
496 0 1 -1 3.92075243185793 7.870624480079343 5.042133253923069 0 0 0
492 0 2 1 6.955018650698961 7.661744394287373 5.096195368279824 0 0 0
871 0 1 -1 9.833113873187964 8.031461453684676 4.753590786518213 0 0 0
876 0 2 1 12.958214806078784 6.908910232516942 3.932513610534487 0 0 0
1264 0 1 -1 15.845655824322975 7.450383099672312 4.915308077543587 0 0 0
1260 0 2 1 19.9176020072063 8.253674244055034 4.669235473545571 0 0 0
112 0 1 -1 23.184323152021612 7.994115982463853 4.208417263914955 -1 0 0
583 0 1 -1 4.139128278425866 11.509595798517257 3.160921758382713 0 0 0
484 0 2 1 7.249862568898741 10.627283610961529 2.14321621209419 0 0 0
973 0 1 -1 13.201059295924889 10.991920743361382 4.8972936778527 0 0 0
1353 0 2 1 16.075224553850177 11.20109068900402 4.784968036704674 0 0 0
1347 0 2 1 19.70062339606537 12.370952950996285 2.127662573268733 0 0 0
1357 0 1 -1 20.35826055780815 11.43915616963879 5.080483741364494 0 0 0
578 0 2 1 3.3412402824301983 14.436703243457936 2.8337807373552053 0 0 0
966 0 1 -1 13.629416068499035 14.477112604378737 2.353892128075268 0 0 0
301 0 1 -1 -0.047783225279200314 18.07273680108913 5.257417818598929 0 0 0
679 0 1 -1 3.675028147255544 17.424948844030514 2.1846189338373865 0 0 0
675 0 2 1 6.565439398348855 18.424388473786248 2.4632985992523118 0 0 0
1065 0 2 1 10.358424440933081 17.41162877507488 4.396475273546283 0 0 0
1059 0 2 1 13.546779431570071 18.298696757835454 2.329924848258795 0 0 0
1453 0 1 -1 19.322429017943225 17.441599730363244 4.845640013218022 0 0 0
300 0 2 1 -0.331008515004594 21.272072341416823 5.228353862985388 0 0 0
674 0 2 1 2.8143094660000902 20.694315925990985 2.7195435481568655 0 0 0
290 0 2 1 22.927476335134045 20.670051334014378 2.46915209372302 -1 0 0
304 0 1 -1 22.690613455735225 20.262101441896963 5.122654766621517 -1 0 0
393 0 2 1 2.3248545613459486 24.661863377085535 5.152638466588408 0 -1 0
678 0 1 -1 4.859152264084352 23.093338460638087 3.4424730524494507 0 0 0
777 0 2 1 9.257122255132032 24.318521789342558 5.067805914004129 0 -1 0
1058 0 2 1 13.466771452168134 24.008145115323252 2.6058913846020317 0 0 0
774 0 1 -1 16.318372011397166 23.37002950168374 2.60493745059844 0 -1 0
1442 0 2 1 18.794694743285767 22.873117640384475 3.7736218755478124 0 0 0
7 0 1 -1 22.650887859762857 24.511681639463575 2.599191354529255 -1 -1 0
3 0 2 1 25.480459352616105 24.66082093320463 2.730867060815461 -1 -1 0
13 0 1 -1 -0.09905030749176558 -0.4043240701229593 5.415044126185599 0 0 0
400 0 1 -1 3.7042970334968235 0.9705101592891119 6.591622753872111 0 0 0
784 0 1 -1 9.207769026223302 0.7889325843340906 5.632581985188606 0 0 0
780 0 2 1 13.340960155694141 1.383253725230969 5.548295090383371 0 0 0
1168 0 1 -1 16.1185182263195 0.80821319940734 5.6643306667152675 0 0 0
1164 0 2 1 19.394318161980642 1.35817812828805 5.517370336800498 0 0 0
16 0 1 -1 22.33352447814869 1.227970417463298 5.8594519939630825 -1 0 0
1166 0 1 -1 19.525325174800958 1.7712363588069717 8.450100223511775 0 0 0
109 0 1 -1 0.39565154187572205 5.506037495553822 5.621983033787636 0 0 0
107 0 2 1 -0.10587885237150718 4.116071623265452 8.45578180091395 0 0 0
489 0 2 1 3.55902256993863 4.65102437096418 5.585652003704036 0 0 0
491 0 2 1 7.054006554436605 3.990978418566863 8.29304773059675 0 0 0
875 0 2 1 12.895743940871593 4.202004296313917 8.19481645757384 0 0 0
1257 0 2 1 17.030560423746568 4.800108839549713 5.882475191804051 0 0 0
1259 0 2 1 20.551746985453214 4.639970022527318 8.3329814824448 0 0 0
111 0 1 -1 23.336531957932742 4.948522087684624 8.425038206552717 -1 0 0
110 0 1 -1 0.053702173193816205 7.707524182658625 8.234595989728172 0 0 0
490 0 2 1 3.7370134386635216 8.10438545899452 8.52483246868093 0 0 0
494 0 1 -1 6.164736797548531 7.0271962052103625 7.941478323574019 0 0 0
874 0 2 1 10.225512692688048 7.896092890554753 8.316969846884279 0 0 0
1258 0 2 1 16.437694526734138 7.437783273134521 7.952079881929274 0 0 0
1262 0 1 -1 19.48246972704488 7.742544542999909 7.50138243556804 0 0 0
106 0 2 1 23.5799871278207 7.865597485763699 7.530837926635472 -1 0 0
205 0 1 -1 0.32700955920105024 11.086856046047615 5.871634071505804 0 0 0
585 0 2 1 3.8424043987170107 10.722370179629479 5.990546496728541 0 0 0
589 0 1 -1 7.116173404569335 11.38234755860362 6.366947073193364 0 0 0
969 0 2 1 10.252164044295379 11.163104425048699 5.531812479752045 0 0 0
1359 0 1 -1 16.643482373797376 10.565891210052886 8.241300733929377 0 0 0
201 0 2 1 23.1763158296407 11.14402789758517 5.7870777359805174 -1 0 0
204 0 2 1 0.33219403984355655 14.637847413090162 5.545377650367067 0 0 0
592 0 1 -1 3.80769570858895 14.765810107908338 5.8232560322496045 0 0 0
588 0 2 1 6.773350758953266 14.26133623295662 6.188764028375793 0 0 0
976 0 1 -1 9.861603796382251 14.588755184914573 5.686397039403074 0 0 0
972 0 2 1 13.380740897000678 13.975904881367692 5.6457215116740365 0 0 0
1360 0 1 -1 16.584311381655333 13.553856560148834 6.12162647078083 0 0 0
1356 0 2 1 19.272750762765185 14.291214491513252 5.878558004236178 0 0 0
208 0 1 -1 23.6550804399234 14.33821777430779 5.35783214614729 -1 0 0
299 0 2 1 -0.007201634823010283 17.91304543901232 8.452892753909332 0 0 0
681 0 2 1 3.4471097837498954 17.589052242607135 5.6078550716965605 0 0 0
685 0 1 -1 6.801427978168151 17.563139161833018 5.429713844644841 0 0 0
1071 0 1 -1 10.307354223611215 17.78351672369895 8.204033850692365 0 0 0
1069 0 1 -1 13.5336822222044 17.830864286601795 5.492497109263688 0 0 0
1449 0 2 1 16.42397921826963 17.08347942679256 5.470634106602056 0 0 0
1455 0 1 -1 17.183249448387205 17.583250229942784 8.298019569527884 0 0 0
297 0 2 1 23.520623927604113 17.337766367110607 5.562879985680727 -1 0 0
302 0 1 -1 -0.5182806991849269 21.33063807635931 8.169668406880469 0 0 0
688 0 1 -1 2.673544663023959 20.954976185446874 5.654765967640939 0 0 0
684 0 2 1 6.619339155649212 21.46033281552066 5.696484279136538 0 0 0
1072 0 1 -1 9.830541444239167 20.93105455566407 5.470069356809439 0 0 0
1068 0 2 1 13.223085103834627 21.038235063280187 5.66190426680704 0 0 0
1456 0 1 -1 16.619389736818608 21.368719264347526 5.914026916470428 0 0 0
1452 0 2 1 19.50423914402315 20.384773851459258 6.457505070109857 0 0 0
11 0 2 1 -0.23272358613560834 24.185926179376573 8.584723033883144 0 -1 0
399 0 1 -1 3.4029282091869897 23.680745619820012 8.56583076061968 0 -1 0
783 0 1 -1 9.10188732049958 24.261590311021305 8.097192676917343 0 -1 0
395 0 2 1 6.415227391055369 24.888170415046066 8.153609482534637 0 -1 0
781 0 1 -1 13.00199670950056 24.863443524563444 6.055509051604389 0 -1 0
1161 0 2 1 16.521631411928322 24.071268877352317 6.0906027887913226 0 -1 0
1165 0 1 -1 19.940379905887106 24.443571062497654 5.722684574166003 0 -1 0
9 0 2 1 23.257123734737572 24.682964105337987 5.8614856726495965 -1 -1 0
394 0 2 1 2.9016027552831916 1.5359784949217605 9.28694601919932 0 0 0
398 0 1 -1 6.267120489978421 1.3870160538395937 9.784975833397429 0 0 0
778 0 2 1 9.144183780807928 0.9284375071504616 9.71693764982664 0 0 0
782 0 1 -1 13.137907224948435 0.8949441531007689 9.044956908206313 0 0 0
1162 0 2 1 15.994172848275124 1.1882603892738464 9.172610045870709 0 0 0
14 0 1 -1 25.682896026148093 1.300827947947804 9.041498008188913 -1 0 0
10 0 2 1 22.888682779590823 1.7477160766079827 9.03469995586359 -1 0 0
495 0 1 -1 3.1869421920966188 4.41482747869296 8.861390680269285 0 0 0
879 0 1 -1 9.904724150243878 4.04703076317071 8.955908039345207 0 0 0
1263 0 1 -1 16.72067361706053 4.063539733432745 8.591339831187632 0 0 0
1265 0 2 1 16.722349944609764 4.771542928918785 11.808004338278487 0 0 0
1269 0 1 -1 19.848219440730453 4.528597253387761 11.22513533488425 0 0 0
117 0 1 -1 25.74385928901565 4.543096611633501 11.520935220776739 -1 0 0
116 0 2 1 -0.7158945011727091 7.478393567480797 11.267715815478773 0 0 0
504 0 1 -1 2.3537201635885596 7.472464908969602 11.689300600605549 0 0 0
500 0 2 1 5.629094758932061 7.912475456146602 11.629186911946668 0 0 0
878 0 1 -1 13.103139744597216 8.216272190942357 8.6251857155636 0 0 0
1272 0 1 -1 16.13245617897196 7.620412628112591 11.046407676556942 0 0 0
203 0 2 1 0.10155107548252584 10.679859082737487 9.152303559862567 0 0 0
213 0 1 -1 -0.711514241843922 10.375299830728808 11.731441443634125 0 0 0
591 0 1 -1 3.388946802515414 10.826501081368722 9.163873980142302 0 0 0
587 0 2 1 7.132578479568676 10.809341165694176 9.643622223075845 0 0 0
975 0 1 -1 10.186395817385531 11.383064671817253 8.74622238219025 0 0 0
971 0 2 1 13.29414241504518 11.051935593195013 8.606856177885255 0 0 0
1355 0 2 1 20.021182118710964 10.665825292456981 8.671610691978184 0 0 0
207 0 1 -1 22.903760394474176 10.915901215160297 8.766932124101523 -1 0 0
206 0 1 -1 -0.19827524575038746 14.310833815825848 8.887775581386482 0 0 0
586 0 2 1 3.5852161342826863 14.06748787053216 9.01735062072449 0 0 0
590 0 1 -1 6.4987986208314 14.5686159929621 9.748465531087415 0 0 0
970 0 2 1 9.447277203559997 14.676146253976787 8.950102764291241 0 0 0
974 0 1 -1 13.818402068969549 14.644610303815849 8.981957084215086 0 0 0
1354 0 2 1 16.78769131241569 13.776200875563484 9.276570679157 0 0 0
1358 0 1 -1 20.088337332849143 14.234731573252033 8.909531568256021 0 0 0
202 0 2 1 23.261434190866368 14.482513238474588 8.596826065388392 -1 0 0
309 0 1 -1 0.19935331658889777 17.862844095387807 11.735459462684943 0 0 0
687 0 1 -1 3.9813375009460863 17.572867150902113 9.01433827957515 0 0 0
683 0 2 1 7.380834828148039 17.6797158777063 8.947645688021634 0 0 0
1073 0 2 1 10.286326719661004 17.89409429130951 11.758021155585833 0 0 0
1067 0 2 1 13.36268292919834 17.52419620877381 8.790312396379804 0 0 0
1451 0 2 1 20.094345762111146 17.214764130188705 9.426409058012723 0 0 0
303 0 1 -1 23.538397684248054 17.558753947842 8.92720920471885 -1 0 0
682 0 2 1 3.4499449974859484 20.58642365762004 9.393571693416284 0 0 0
686 0 1 -1 7.005581217250255 20.79601765471013 8.771626859658191 0 0 0
692 0 2 1 7.152460894536203 21.298800420890956 11.795184981645328 0 0 0
1066 0 2 1 10.604489809212799 21.287502480012854 9.105120184570826 0 0 0
1070 0 1 -1 13.34007782250415 20.939790707951946 8.900075369015369 0 0 0
1450 0 2 1 16.591596897822143 21.272691442485463 9.764584130078322 0 0 0
1454 0 1 -1 20.333963123401034 20.484697210731312 9.324116670213595 0 0 0
298 0 2 1 23.13802040351923 20.49803529260657 8.836447274480232 -1 0 0
21 0 1 -1 0.1348470174928228 23.805683070566406 11.806863175961897 0 -1 0
779 0 2 1 12.8490114606075 24.575557840072744 9.22310172866261 0 -1 0
1167 0 1 -1 16.436021462589128 24.618687019185213 9.750756963865964 0 -1 0
1163 0 2 1 20.209768774662354 25.283589395389924 9.182977000504465 0 -1 0
15 0 1 -1 22.824998288484466 23.740716389732725 8.76131784512572 -1 -1 0
408 0 1 -1 2.445673378676195 1.2760667464036066 12.293968604772825 0 0 0
404 0 2 1 6.110411342771371 0.7755865935215429 12.899166174761138 0 0 0
792 0 1 -1 9.321170049464518 1.0869426168709284 12.893710209179783 0 0 0
788 0 2 1 13.881433075046461 1.5555464179257856 12.313619482624766 0 0 0
790 0 1 -1 13.360777133514205 -0.03416772910225607 14.880914728664322 0 0 0
1176 0 1 -1 17.045098530789893 0.6626920237170493 12.94605276555124 0 0 0
1172 0 2 1 19.86410091078655 1.3629337018081253 12.214679145261332 0 0 0
20 0 2 1 25.854294473077438 1.1614971827486804 12.048836283983217 -1 0 0
24 0 1 -1 22.635396087834017 0.5907216558911761 12.219476876128326 -1 0 0
497 0 2 1 2.5161458822762923 4.4320291649516905 12.257417091273567 0 0 0
501 0 1 -1 6.424979932238166 4.394460352133078 12.747766725612685 0 0 0
881 0 2 1 9.422680866115 4.1067239919508145 12.524391992113973 0 0 0
885 0 1 -1 13.256393916811168 4.604607205416762 12.840345198429137 0 0 0
1271 0 1 -1 17.334790193577604 5.664443353130699 14.635506372640734 0 0 0
113 0 2 1 22.61662830089722 4.532940968159521 12.211926249411007 -1 0 0
888 0 1 -1 9.804615506788647 7.580518041647116 12.26664935607949 0 0 0
884 0 2 1 13.332852489143932 7.80742365395105 11.904828049993458 0 0 0
1268 0 2 1 19.510032800215676 7.454976367521219 12.659307659900232 0 0 0
120 0 1 -1 23.206841411832976 7.283406669853274 12.508216258596036 -1 0 0
593 0 2 1 3.412031933078725 11.006508054548167 12.25715424651068 0 0 0
597 0 1 -1 6.757539040588298 10.92814849736456 12.602761453447943 0 0 0
977 0 2 1 9.901823976475582 10.654263386724839 12.27108593972735 0 0 0
981 0 1 -1 13.002298318308894 11.073039845098755 12.25137381284705 0 0 0
1361 0 2 1 16.06063784940816 10.492871309703602 11.987269580044039 0 0 0
1365 0 1 -1 19.834265836986287 10.321518024956381 12.231049640335495 0 0 0
215 0 1 -1 22.066330550561915 11.272265228165859 14.91336178426576 -1 0 0
209 0 2 1 22.71822340677591 10.524365436523786 12.257753106703603 -1 0 0
600 0 1 -1 2.264190829311696 13.81802014095126 12.039322250267581 0 0 0
596 0 2 1 6.853954374441003 14.691168681381592 12.64332790466056 0 0 0
984 0 1 -1 9.976282532302571 14.277193188564553 12.022979394750038 0 0 0
980 0 2 1 12.965315048326453 14.001034038453806 11.978093216787599 0 0 0
1368 0 1 -1 16.869941226586192 13.64130642143309 12.44384004104931 0 0 0
1364 0 2 1 19.89883729543399 13.462084688172917 11.983420996179643 0 0 0
212 0 2 1 25.46805207262512 13.253445168769217 12.126080348023017 -1 0 0
216 0 1 -1 22.81048006986295 13.961683908041346 12.526644779296848 -1 0 0
214 0 1 -1 25.794614855701496 14.025414412146986 14.987341718915825 -1 0 0
689 0 2 1 3.131250900381064 16.760006910302273 12.250447770009938 0 0 0
693 0 1 -1 7.24446247714773 17.693941890899687 12.204694326658718 0 0 0
1077 0 1 -1 13.07967022935683 17.444744659077916 12.472007810077173 0 0 0
1457 0 2 1 16.665367909791673 17.388063067086673 12.587847003044065 0 0 0
1461 0 1 -1 19.763356249686765 17.805969738285192 12.362258355751916 0 0 0
305 0 2 1 23.54547332269175 18.01919781403872 12.391601717643269 -1 0 0
308 0 2 1 0.5070021596458532 20.558365957554336 13.351385999385709 0 0 0
696 0 1 -1 3.575637156560136 20.758632136702328 12.49885464133547 0 0 0
1080 0 1 -1 10.165550761599983 21.031754940459372 12.973206086605998 0 0 0
1076 0 2 1 13.520817752342905 20.90921474989581 12.655918415256522 0 0 0
1464 0 1 -1 16.887113281980128 21.053077188393768 12.85374556673678 0 0 0
1460 0 2 1 19.875001232498537 21.110293363948585 12.579401957245487 0 0 0
312 0 1 -1 22.832069133362385 20.947732606209694 12.291525204865117 -1 0 0
19 0 2 1 0.048856103308711485 24.30485876683883 15.050468100038529 0 -1 0
401 0 2 1 3.00934696750206 23.82450982051733 12.374472045341559 0 -1 0
405 0 1 -1 7.030612584935179 23.794273253880906 13.272335881147438 0 -1 0
785 0 2 1 10.025345474506931 24.49994549809916 13.023996354198765 0 -1 0
789 0 1 -1 13.486804285155289 24.561572435594705 12.324705571475505 0 -1 0
1169 0 2 1 16.451585824056693 24.43026097719136 12.786781577019447 0 -1 0
1173 0 1 -1 19.67552691951919 24.613659198366378 12.366046354847388 0 -1 0
17 0 2 1 23.31770475736363 24.058411159288102 12.111150560408003 -1 -1 0
22 0 1 -1 -0.635527173825639 0.8908218820097749 15.31425384419741 0 0 0
402 0 2 1 2.5515900897649226 0.770447761678265 15.512803106821 0 0 0
406 0 1 -1 6.133350660555181 0.7703096403424636 15.673127563031848 0 0 0
786 0 2 1 10.177918030329042 1.1001776926121203 15.803971966546687 0 0 0
1170 0 2 1 16.333277705761322 1.130446088014139 15.567897534946784 0 0 0
1174 0 1 -1 19.964381597605176 0.5886221619187846 15.487012600774193 0 0 0
18 0 2 1 22.935914924767005 0.5354085687083581 15.2160045605144 -1 0 0
115 0 2 1 -0.6762869196405787 4.460688850174259 15.593440036237716 0 0 0
503 0 1 -1 2.466141388838333 4.206688409624541 15.44365741174617 0 0 0
499 0 2 1 5.992205119227507 4.470247868243621 16.155561204928556 0 0 0
887 0 1 -1 9.976901565413693 4.57067208084777 15.732022407580196 0 0 0
883 0 2 1 12.765380404600092 4.96503133291042 15.875943140366665 0 0 0
1267 0 2 1 19.209415711262125 3.9694540658602477 16.069184463613812 0 0 0
119 0 1 -1 22.15312576352659 3.876102744056623 15.453428288473855 -1 0 0
118 0 1 -1 0.045947835111204705 7.4485789610082715 15.408204359861926 0 0 0
498 0 2 1 2.82718572752122 7.34389936498885 16.20448018891742 0 0 0
502 0 1 -1 5.73445571081164 7.669429984967202 15.267948740414642 0 0 0
882 0 2 1 9.098625162287883 7.599178570598033 15.447536634837707 0 0 0
886 0 1 -1 12.137313848838856 8.254093876992686 15.21873068736814 0 0 0
1266 0 2 1 15.555936117115301 7.593053048052212 16.02733979460394 0 0 0
1270 0 1 -1 19.24979262591765 7.645914994790354 16.213229356613926 0 0 0
114 0 2 1 23.197229228531675 7.323748387657201 15.67183743782147 -1 0 0
211 0 2 1 -0.2003304263756699 10.638073213705015 15.215757845620065 0 0 0
599 0 1 -1 2.9023841348009705 10.986662259859676 16.13912413792477 0 0 0
595 0 2 1 6.348579825501086 10.563645256618846 15.836942301999745 0 0 0
983 0 1 -1 9.258945576620528 10.765623799799682 16.262565689023756 0 0 0
979 0 2 1 12.809190776110263 11.258771129560841 15.628111349836981 0 0 0
1367 0 1 -1 16.166513128475398 10.080525934220304 15.533058864922765 0 0 0
1363 0 2 1 19.14386284243141 10.878193732551525 15.514406214449433 0 0 0
594 0 2 1 2.579641647878112 13.859810357875315 16.062330271144685 0 0 0