LAMMPS (2 Aug 2023)
OMP_NUM_THREADS environment is not set. Defaulting to 1 thread. (src/comm.cpp:98)
  using 1 OpenMP thread(s) per MPI task
Reading data file ...
  orthogonal box = (0 0 0) to (93.342894 23.335724 46.671447)
  1 by 1 by 1 MPI processor grid
  reading atoms ...
  4096 atoms
Finding 1-2 1-3 1-4 neighbors ...
  special bond factors lj:    0        0        0       
  special bond factors coul:  0        0        0       
     0 = max # of 1-2 neighbors
     0 = max # of 1-3 neighbors
     0 = max # of 1-4 neighbors
     1 = max # of special neighbors
  special bonds CPU = 0.002 seconds
  read_data CPU = 0.042 seconds
2048 atoms in group gSolid
2048 atoms in group gLiquid
Neighbor list info ...
  update: every = 1 steps, delay = 10 steps, check = yes
  max neighbors/atom: 2000, page size: 100000
  master list distance cutoff = 6.3
  ghost atom cutoff = 6.3
  binsize = 3.15, bins = 30 8 15
  1 neighbor lists, perpetual/occasional/extra = 1 0 0
  (1) pair chgnet/gpu, perpetual
      attributes: full, newton on
      pair build: full/bin
      stencil: full/bin/3d
      bin: standard
Setting up Verlet run ...
  Unit style    : metal
  Current step  : 0
  Time step     : 0.0005
Per MPI rank memory allocation (min/avg/max) = 7.102 | 7.102 | 7.102 Mbytes
   Step          Temp          PotEng         TotEng         Press          Volume        c_msd[4]   
         0   300           -14944.133     -14785.337      32678.326      101660.86      0            
        10   296.23213     -14948.051     -14791.249      31511.326      101957.23      0.0018188957 
        20   287.15847     -14959.474     -14807.475      29164.087      102817.63      0.017296481  
        30   274.94917     -14974.658     -14829.122      25865.453      104089         0.067648831  
        40   262.48139     -14988.188     -14849.252      22610.536      105448.35      0.15767588   
        50   253.02588     -14998.527     -14864.596      20070.902      106657.07      0.26953398   
        60   249.03479     -15008.168     -14876.349      18162.112      107730.55      0.39407836   
        70   252.03205     -15019.751     -14886.345      16628.361      108761.21      0.53522047   
        80   262.27159     -15034.311     -14895.485      15407.658      109785.87      0.69578117   
        90   278.87163     -15051.528     -14903.916      14511.144      110792.04      0.87300078   
       100   300.18038     -15070.541     -14911.649      13972.348      111756.18      1.0613423    
       110   324.39898     -15090.562     -14918.852      13724.894      112668.23      1.2566202    
       120   349.4221      -15110.893     -14925.936      13700.139      113534.88      1.4578043    
       130   372.41744     -15130.521     -14933.392      13780.117      114371.79      1.6663366    
       140   391.52931     -15148.97      -14941.725      13833.759      115194.7       1.8844847    
       150   406.17859     -15166.126     -14951.127      13780.874      116014.09      2.1139807    
       160   416.0904      -15181.412     -14961.167      13545.874      116834.06      2.3554377    
       170   421.56386     -15194.326     -14971.184      13132.159      117652.88      2.6079719    
       180   423.14102     -15204.983     -14981.006      12561.224      118465.41      2.8692988    
       190   421.6134      -15213.766     -14990.597      11854.484      119265.28      3.1363695    
       200   417.60485     -15220.864     -14999.818      11023.825      120045.91      3.4058783    
       210   411.11957     -15226.127     -15008.513      10136.026      120801.11      3.6746819    
       220   402.80379     -15229.792     -15016.58       9239.1831      121526.02      3.9402237    
       230   394.68773     -15232.9       -15023.984      8334.8498      122217.42      4.2003957    
       240   388.41929     -15236.338     -15030.74       7424.4392      122872.8       4.4532745    
       250   382.98964     -15239.626     -15036.902      6564.9215      123490         4.697206     
       260   376.77914     -15241.957     -15042.52       5800.5635      124068.07      4.9310348    
       270   370.30698     -15243.66      -15047.649      5122.5689      124607.58      5.1541344    
       280   364.17936     -15245.135     -15052.367      4554.5717      125110.2       5.3662694    
       290   358.80148     -15246.633     -15056.712      4068.9968      125578.64      5.5676332    
       300   355.86421     -15249.117     -15060.751      3618.0726      126015.73      5.7586483    
       310   355.9976      -15252.997     -15064.56       3198.782       126423.58      5.9398302    
       320   357.15502     -15257.266     -15068.216      2822.7118      126803.72      6.1118856    
       330   357.87866     -15261.201     -15071.769      2483.904       127157.53      6.2756753    
       340   358.09264     -15264.779     -15075.234      2177.8449      127486.29      6.4317737    
       350   357.76793     -15268         -15078.626      1889.7806      127791.19      6.5803399    
       360   357.77197     -15271.338     -15081.962      1616.9673      128073.03      6.7211535    
       370   358.15182     -15274.817     -15085.24       1345.8972      128332.31      6.8539909    
       380   357.32493     -15277.616     -15088.477      1093.4337      128569.17      6.9787294    
       390   355.01492     -15279.564     -15091.648      869.39434      128783.64      7.095312     
       400   351.83577     -15280.986     -15094.753      668.10207      128976.08      7.2037528    
       410   348.42121     -15282.188     -15097.762      482.02702      129146.98      7.3041261    
       420   345.70759     -15283.674     -15100.684      302.80366      129296.74      7.3963376    
       430   344.15846     -15285.689     -15103.519      135.47462      129425.65      7.4799721    
       440   343.00974     -15287.875     -15106.313      14.332532      129534.09      7.5546558    
       450   341.25327     -15289.704     -15109.072     -85.620492      129623.15      7.6206218    
       460   338.94962     -15291.178     -15111.765     -145.27417      129694.14      7.6784644    
       470   335.94525     -15292.232     -15114.41      -182.32447      129748.91      7.7290214    
       480   332.55509     -15293.016     -15116.987     -184.39113      129789.53      7.7731845    
       490   330.08264     -15294.207     -15119.488     -165.81706      129818.41      7.8119202    
       500   329.21537     -15296.184     -15121.923     -155.53617      129838.08      7.8461152    
       510   328.5073      -15298.201     -15124.316     -164.78628      129850.32      7.8765397    
       520   326.87951     -15299.695     -15126.671     -142.64385      129856.27      7.9037803    
       530   324.33055     -15300.656     -15128.982     -111.17167      129857.45      7.9284879    
       540   321.9651      -15301.645     -15131.222     -77.009448      129855.41      7.951007     
       550   321.29644     -15303.476     -15133.407     -86.31914       129851.37      7.9712688    
       560   321.26141     -15305.595     -15135.545     -115.65355      129845.48      7.9887803    
       570   319.13353     -15306.586     -15137.662     -149.78528      129837.18      8.0029438    
       580   315.28318     -15306.598     -15139.712     -179.01381      129825.85      8.0131706    
       590   312.53562     -15307.111     -15141.68      -226.27975      129811.02      8.0188079    
       600   312.44774     -15308.967     -15143.582     -318.06669      129791.72      8.0188664    
       610   313.94933     -15311.624     -15145.444     -419.64115      129766.04      8.0119583    
       620   314.52373     -15313.775     -15147.292     -489.43492      129732.03      7.9969467    
       630   313.3873      -15315.02      -15149.137     -527.74743      129688.73      7.9735843    
       640   311.02642     -15315.59      -15150.957     -524.12429      129636.3       7.9425992    
       650   307.55282     -15315.521     -15152.727     -499.08993      129575.86      7.9052717    
       660   303.64481     -15315.145     -15154.419     -468.04652      129508.99      7.8628158    
       670   300.94445     -15315.309     -15156.013     -445.72895      129437.24      7.8161994    
       680   300.83892     -15316.749     -15157.509     -456.19357      129361.64      7.7662804    
       690   302.12142     -15318.851     -15158.932     -469.75199      129282.43      7.7136875    
       700   302.50376     -15320.437     -15160.315     -463.71932      129199.69      7.6589012    
       710   301.44123     -15321.197     -15161.638     -401.34451      129114.17      7.6025191    
       720   299.38928     -15321.395     -15162.922     -319.41562      129027.76      7.5457306    
       730   297.13616     -15321.404     -15164.124     -228.10863      128942.87      7.4901341    
       740   295.95962     -15321.884     -15165.226     -159.1507       128861.77      7.4373408    
       750   296.29421     -15323.079     -15166.245     -119.56722      128785.87      7.3885275    
       760   297.15274     -15324.496     -15167.207     -98.436047      128715.6       7.3442439    
       770   298.10172     -15325.896     -15168.104     -74.248606      128650.87      7.3046533    
       780   298.39871     -15326.917     -15168.969     -61.871122      128591.61      7.2695527    
       790   298.08114     -15327.569     -15169.789     -64.964411      128537.48      7.2381926    
       800   297.56287     -15328.08      -15170.574     -82.45446       128487.74      7.2093492    
       810   297.18465     -15328.633     -15171.327     -113.15424      128441.38      7.1818831    
       820   297.0434      -15329.273     -15172.042     -145.90944      128397.17      7.154876     
       830   296.46459     -15329.645     -15172.72      -161.67146      128354.01      7.1275014    
       840   295.46112     -15329.75      -15173.356     -154.25194      128311.29      7.0992231    
       850   295.6621      -15330.443     -15173.943     -150.90328      128269.07      7.0700456    
       860   297.23862     -15331.811     -15174.476     -162.83368      128227.35      7.0403664    
       870   298.63374     -15333.054     -15174.981     -202.01607      128185.63      7.0107466    
       880   299.37768     -15333.943     -15175.477     -220.1392       128142.98      6.9817113    
       890   299.69873     -15334.584     -15175.947     -224.65622      128098.97      6.9538954    
       900   299.69717     -15335.061     -15176.425     -214.36134      128053.59      6.9277893    
       910   299.26456     -15335.285     -15176.878     -186.02457      128007.27      6.9037953    
       920   298.40952     -15335.277     -15177.323     -136.30157      127960.92      6.8822181    
       930   297.85995     -15335.396     -15177.733     -61.953216      127915.89      6.8633319    
       940   298.61357     -15336.201     -15178.139     -6.016954       127873.91      6.8475347    
       950   300.50699     -15337.572     -15178.508      26.525105      127836.14      6.8349918    
       960   301.54127     -15338.509     -15178.897      57.924343      127803.07      6.8256003    
       970   300.19948     -15338.193     -15179.292      102.91113      127775.07      6.8192341    
       980   296.93678     -15336.862     -15179.688      154.24554      127752.8       6.8158543    
       990   294.06245     -15335.692     -15180.039      177.97919      127736.98      6.8154313    
      1000   293.43728     -15335.664     -15180.342      150.96141      127727.5       6.8176387    
      1010   294.47116     -15336.438     -15180.568      99.547694      127723.1       6.821758     
      1020   295.78845     -15337.308     -15180.741      29.610376      127721.81      6.826928     
      1030   297.17541     -15338.176     -15180.875     -32.21445       127721.48      6.8323228    
      1040   298.51535     -15338.983     -15180.973     -92.685569      127720.26      6.8372158    
      1050   299.48707     -15339.592     -15181.067     -129.90992      127716.6       6.8410355    
      1060   300.45511     -15340.18      -15181.143     -129.04517      127709.83      6.843654     
      1070   302.40064     -15341.3       -15181.233     -142.31966      127700.1       6.8454909    
      1080   304.72643     -15342.648     -15181.351     -150.84127      127687.38      6.8468783    
      1090   305.56582     -15343.257     -15181.515     -143.44266      127671.69      6.8479125    
      1100   304.2233      -15342.776     -15181.745     -109.09405      127653.57      6.8486346    
      1110   302.95305     -15342.361     -15182.002     -71.557398      127634.13      6.8491681    
      1120   304.02378     -15343.232     -15182.306     -74.332677      127614.38      6.8497129    
      1130   306.38362     -15344.833     -15182.658     -111.85323      127594.25      6.8502379    
      1140   308.12148     -15346.176     -15183.081     -154.24063      127572.79      6.8505574    
      1150   308.24075     -15346.742     -15183.584     -177.30734      127549.01      6.8505162    
      1160   307.22121     -15346.797     -15184.178     -197.55553      127522.39      6.8501424    
      1170   305.6866      -15346.651     -15184.845     -243.44926      127492.48      6.8494091    
      1180   303.44736     -15346.175     -15185.554     -265.25601      127458.51      6.8479401    
      1190   300.77621     -15345.491     -15186.284     -273.53957      127420.2       6.8452696    
      1200   298.43721     -15344.992     -15187.023     -254.06813      127377.83      6.8410383    
      1210   296.63851     -15344.744     -15187.727     -220.21209      127332.2       6.8352326    
      1220   295.51247     -15344.799     -15188.378     -175.44376      127284.46      6.8280223    
      1230   295.14032     -15345.199     -15188.975     -120.63406      127235.98      6.8197362    
      1240   295.02946     -15345.682     -15189.517     -51.670123      127188.28      6.8108718    
      1250   294.94709     -15346.124     -15190.003      5.4791862      127143.13      6.8020273    
      1260   294.78076     -15346.46      -15190.427      60.379331      127101.93      6.7935948    
      1270   295.37161     -15347.158     -15190.812      96.562965      127065.76      6.7857087    
      1280   297.65602     -15348.695     -15191.14       102.37925      127035.16      6.7783036    
      1290   300.68796     -15350.615     -15191.455      95.580862      127009.82      6.7711444    
      1300   302.41012     -15351.85      -15191.778      101.89659      126989.22      6.7640741    
      1310   301.81559     -15351.886     -15192.129      110.65568      126973.11      6.7571681    
      1320   299.35511     -15350.949     -15192.494      126.49996      126961.39      6.7506924    
      1330   297.37976     -15350.261     -15192.852      123.84009      126954.07      6.7451351    
      1340   298.38985     -15351.119     -15193.175      56.435741      126950.57      6.7408645    
      1350   302.03577     -15353.359     -15193.486     -30.435194      126948.88      6.737648     
      1360   305.34398     -15355.441     -15193.817     -116.71787      126946.44      6.7348877    
      1370   306.35254     -15356.365     -15194.207     -175.34769      126941.03      6.7318676    
      1380   305.42195     -15356.321     -15194.655     -210.75754      126931.36      6.7280079    
      1390   303.36782     -15355.737     -15195.159     -233.28374      126916.77      6.723039     
      1400   300.9447      -15354.989     -15195.693     -254.00502      126897.01      6.7168737    
      1410   298.85547     -15354.422     -15196.232     -273.84297      126871.96      6.7093914    
      1420   297.53301     -15354.232     -15196.742     -297.8954       126841.52      6.7004918    
      1430   296.99871     -15354.438     -15197.23      -311.78423      126805.53      6.6901562    
      1440   297.24862     -15355.024     -15197.685     -323.85444      126764         6.6785399    
      1450   297.77993     -15355.726     -15198.105     -323.81012      126717.07      6.6658782    
      1460   297.23718     -15355.844     -15198.51      -292.18947      126665.25      6.6523791    
      1470   295.1465      -15355.11      -15198.883     -220.90318      126609.85      6.6383503    
      1480   292.83975     -15354.202     -15199.196     -142.84357      126553.01      6.6242529    
      1490   291.90635     -15353.944     -15199.432     -67.546814      126496.96      6.6104419    
      1500   292.39706     -15354.37      -15199.598      3.6158428      126443.72      6.5972269    
      1510   293.63358     -15355.1       -15199.673      48.324573      126394.92      6.5848709    
      1520   295.08507     -15355.882     -15199.687      72.063813      126351.38      6.5735711    
      1530   296.10019     -15356.392     -15199.66       104.27336      126313.41      6.5636497    
      1540   297.02163     -15356.803     -15199.583      129.49857      126281.29      6.5556667    
      1550   298.87686     -15357.662     -15199.461      135.08878      126255.24      6.5502352    
      1560   301.7008      -15359.025     -15199.329      118.22441      126234.89      6.5477929    
      1570   304.00065     -15360.137     -15199.223      82.073874      126219.29      6.548507     
      1580   304.30489     -15360.213     -15199.138      72.266047      126207.23      6.5523485    
      1590   302.17249     -15359.047     -15199.101      87.687108      126198.12      6.5592247    
      1600   298.29828     -15356.985     -15199.09       124.38568      126192.12      6.5690443    
      1610   294.29862     -15354.832     -15199.054      154.05699      126189.92      6.581835     
      1620   292.0389      -15353.546     -15198.964      164.90644      126192.01      6.5976938    
      1630   292.25303     -15353.493     -15198.798      139.39851      126198.29      6.6166311    
      1640   294.33613     -15354.346     -15198.548      104.02173      126207.83      6.6384047    
      1650   296.94897     -15355.417     -15198.236      46.987349      126219.37      6.662547     
      1660   298.44619     -15355.866     -15197.893      7.2638878      126231.35      6.6882629    
      1670   298.24314     -15355.399     -15197.533     -3.3820993      126242.66      6.7146172    
      1680   297.18593     -15354.457     -15197.15       8.6591171      126253.01      6.7408011    
      1690   296.47401     -15353.684     -15196.754      28.596775      126262.79      6.7662637    
      1700   297.59559     -15353.84      -15196.316      25.63022       126272.55      6.7906362    
      1710   300.19467     -15354.768     -15195.868      4.1786619      126282.24      6.8135439    
      1720   302.32752     -15355.442     -15195.414     -32.931664      126291.24      6.8346254    
      1730   303.40176     -15355.575     -15194.978     -58.995588      126298.69      6.8535746    
      1740   304.19219     -15355.604     -15194.588     -80.446928      126303.96      6.8703222    
      1750   305.36983     -15355.875     -15194.237     -118.04138      126306.57      6.8849253    
      1760   307.10121     -15356.507     -15193.952     -163.68852      126305.74      6.8973547    
      1770   308.99174     -15357.295     -15193.739     -198.63107      126300.56      6.9075453    
      1780   310.36928     -15357.907     -15193.622     -206.29713      126290.41      6.9156743    
      1790   311.13099     -15358.303     -15193.615     -187.8153       126275.46      6.9222832    
      1800   311.53112     -15358.631     -15193.731     -159.14405      126256.53      6.928028     
      1810   311.17296     -15358.686     -15193.975     -128.17692      126234.65      6.9335968    
      1820   309.61695     -15358.219     -15194.332     -115.4321       126210.8       6.9397362    
      1830   307.65439     -15357.643     -15194.795     -96.293735      126185.55      6.9470485    
      1840   305.77145     -15357.169     -15195.318     -97.294512      126159.36      6.955904     
      1850   303.6831      -15356.65      -15195.905     -113.26885      126132.34      6.9662104    
      1860   301.69213     -15356.209     -15196.517     -131.89211      126104.16      6.9773094    
      1870   300.41926     -15356.156     -15197.138     -149.99101      126074.35      6.9882999    
      1880   300.0774      -15356.591     -15197.754     -175.46725      126042.51      6.9984019    
      1890   300.53534     -15357.443     -15198.364     -174.59349      126008.19      7.0070649    
      1900   301.01329     -15358.307     -15198.974     -159.21529      125971.5       7.0142015    
      1910   300.65898     -15358.74      -15199.595     -137.72522      125933.02      7.0200351    
      1920   299.59891     -15358.791     -15200.207     -110.35433      125893.44      7.0249257    
      1930   298.60534     -15358.862     -15200.804     -98.509223      125853.49      7.0293123    
      1940   297.81386     -15359.012     -15201.373     -90.274199      125813.55      7.0335608    
      1950   296.88154     -15359.06      -15201.914     -78.207867      125773.88      7.0379234    
      1960   295.99906     -15359.1       -15202.421     -75.866385      125734.72      7.04244      
      1970   295.65352     -15359.37      -15202.875     -61.634123      125696.16      7.0469539    
      1980   295.7323      -15359.823     -15203.286     -43.414839      125658.54      7.0514581    
      1990   295.9714      -15360.31      -15203.646     -20.163302      125622.21      7.0561097    
      2000   296.47019     -15360.896     -15203.969     -11.0181        125587.68      7.0612486    
      2010   297.06752     -15361.494     -15204.25       8.8729822      125555.16      7.0672334    
      2020   297.36962     -15361.912     -15204.508      45.135464      125525.06      7.0743832    
      2030   297.77319     -15362.35      -15204.732      54.072967      125498.04      7.0828669    
      2040   299.1639      -15363.297     -15204.943      39.947182      125474.19      7.0924471    
      2050   300.97059     -15364.457     -15205.147      20.880361      125452.98      7.1026122    
      2060   301.42844     -15364.911     -15205.359      9.9594458      125433.72      7.112852     
      2070   300.02581     -15364.387     -15205.577      1.1344195      125415.95      7.1229143    
      2080   298.07004     -15363.571     -15205.797      8.3328834      125399.39      7.1328244    
      2090   297.1246      -15363.271     -15205.996      15.805733      125384.14      7.1428596    
      2100   297.65405     -15363.716     -15206.161     -7.698312       125370.21      7.1533322    
      2110   298.53839     -15364.336     -15206.314     -47.353751      125356.9       7.1642301    
      2120   298.43065     -15364.41      -15206.445     -57.494662      125343.22      7.1753141    
      2130   296.66939     -15363.59      -15206.557     -40.318295      125328.89      7.1863522    
      2140   294.25958     -15362.399     -15206.642     -2.2618714      125314.43      7.197153     
      2150   292.89333     -15361.701     -15206.667      23.868393      125300.79      7.207679     
      2160   293.70742     -15362.086     -15206.621      22.860581      125288.57      7.2180223    
      2170   296.47178     -15363.438     -15206.51      -29.315887      125277.53      7.2281453    
      2180   299.30709     -15364.789     -15206.36      -76.784598      125266.4       7.237725     
      2190   300.86367     -15365.458     -15206.205     -123.2135       125253.86      7.2464386    
      2200   301.39265     -15365.59      -15206.057     -133.59769      125238.89      7.2540048    
      2210   300.8947      -15365.185     -15205.915     -147.23001      125221.19      7.260404     
      2220   299.52411     -15364.332     -15205.788     -142.39412      125200.66      7.2656345    
      2230   298.16119     -15363.474     -15205.651     -145.88831      125177.48      7.2697785    
      2240   297.61861     -15363.028     -15205.493     -157.28842      125151.74      7.2729619    
      2250   298.52549     -15363.337     -15205.321     -180.31332      125123.32      7.2753867    
      2260   300.65442     -15364.272     -15205.13      -193.74585      125091.86      7.2773703    
      2270   302.3382      -15364.965     -15204.931     -187.11234      125057.24      7.279299     
      2280   303.25831     -15365.283     -15204.762     -166.22969      125019.8       7.2815547    
      2290   304.08053     -15365.591     -15204.635     -164.02326      124980.13      7.2843587    
      2300   304.35343     -15365.633     -15204.532     -132.2659       124938.62      7.287783     
      2310   303.42209     -15365.099     -15204.491     -107.15971      124896.12      7.2918937    
      2320   301.82565     -15364.238     -15204.476     -83.386775      124853.38      7.2965333    
      2330   300.5488      -15363.569     -15204.483     -71.560327      124811         7.3013656    
      2340   300.14766     -15363.369     -15204.495     -58.322281      124769.38      7.3060568    
      2350   300.81907     -15363.743     -15204.514     -54.68322       124728.7       7.3103943    
      2360   302.41575     -15364.61      -15204.536     -44.256368      124689.11      7.3144002    
      2370   304.029       -15365.521     -15204.592     -22.381488      124650.87      7.3184301    
      2380   304.52192     -15365.876     -15204.686      8.8665875      124614.41      7.3229726    
      2390   303.8715      -15365.674     -15204.828      43.155322      124580.39      7.3284487    
      2400   302.54351     -15365.154     -15205.012      89.276415      124549.67      7.3351035    
      2410   300.86516     -15364.475     -15205.221      119.76006      124523.14      7.3430161    
      2420   299.02249     -15363.717     -15205.438      150.45989      124501.44      7.3519908    
      2430   297.42462     -15363.078     -15205.645      145.63606      124484.96      7.3616583    
      2440   297.12062     -15363.1       -15205.828      102.0289       124473.25      7.3714757    
      2450   297.94675     -15363.686     -15205.976      24.690064      124464.85      7.3808419    
      2460   298.92258     -15364.349     -15206.123     -49.977177      124457.61      7.3891654    
      2470   299.8396      -15364.967     -15206.256     -131.20547      124449.41      7.3960673    
      2480   300.43856     -15365.408     -15206.38      -192.15874      124438.27      7.4014808    
      2490   300.09878     -15365.361     -15206.513     -233.15338      124422.72      7.4056782    
      2500   298.98169     -15364.901     -15206.644     -269.12113      124401.94      7.4090096    
      2510   297.88158     -15364.442     -15206.768     -298.66103      124375.29      7.4116515    
      2520   297.13473     -15364.144     -15206.864     -337.16455      124342.28      7.4136602    
      2530   296.95314     -15364.114     -15206.931     -394.61681      124302.3       7.4149805    
      2540   297.8699      -15364.641     -15206.972     -449.06196      124254.35      7.4153698    
      2550   299.65135     -15365.615     -15207.004     -507.49334      124197.44      7.4144329    
      2560   301.1336      -15366.422     -15207.026     -548.67189      124130.64      7.4117052    
      2570   300.97029     -15366.38      -15207.07      -533.95414      124053.64      7.4068725    
      2580   299.16437     -15365.475     -15207.121     -465.56116      123967.44      7.3999726    
      2590   297.09912     -15364.42      -15207.159     -377.81033      123874.4       7.3914119    
      2600   296.42256     -15364.068     -15207.166     -303.67941      123777.28      7.3817334    
      2610   297.63937     -15364.685     -15207.138     -238.01796      123678.36      7.3714514    
      2620   299.50372     -15365.613     -15207.08      -158.89584      123579.58      7.3610968    
      2630   300.48327     -15366.058     -15207.006     -36.766345      123483.21      7.3513124    
      2640   301.00095     -15366.265     -15206.939      95.745503      123392.23      7.342861     
      2650   302.10172     -15366.781     -15206.873      205.00615      123309.74      7.3364747    
      2660   303.58434     -15367.518     -15206.824      291.42854      123238.03      7.3327297    
      2670   304.57759     -15368.038     -15206.819      364.3112       123178.64      7.332095     
      2680   304.54305     -15368.066     -15206.866      419.42987      123132.63      7.334963     
      2690   303.84253     -15367.789     -15206.959      449.29783      123100.44      7.3415522    
      2700   303.34298     -15367.666     -15207.1        452.81516      123081.96      7.3518695    
      2710   303.02993     -15367.682     -15207.282      430.9382       123076.36      7.3657485    
      2720   301.89866     -15367.293     -15207.492      408.75311      123082.23      7.3828738    
      2730   300.09866     -15366.566     -15207.718      390.46911      123098.23      7.4029699    
      2740   298.59325     -15366.003     -15207.951      370.42747      123123.22      7.4258256    
      2750   297.63518     -15365.705     -15208.161      340.57223      123156.07      7.4511643    
      2760   296.77359     -15365.438     -15208.349      317.86658      123195.53      7.4786036    
      2770   295.80818     -15365.091     -15208.514      290.63058      123240.54      7.5077826    
      2780   294.7355      -15364.636     -15208.626      255.45902      123290.03      7.5384035    
      2790   293.52242     -15364.049     -15208.681      208.20353      123342.76      7.5701908    
      2800   292.33676     -15363.404     -15208.665      149.03158      123397.26      7.6027663    
      2810   291.6776      -15362.968     -15208.577      71.285347      123451.86      7.6356551    
      2820   291.60039     -15362.744     -15208.394     -27.086526      123504.56      7.6682949    
      2830   292.49041     -15362.942     -15208.121     -125.7174       123552.99      7.7000871    
      2840   295.12801     -15363.995     -15207.778     -238.06212      123594.78      7.7304157    
      2850   298.95635     -15365.611     -15207.368     -345.03315      123627.54      7.7586311    
      2860   302.36484     -15366.986     -15206.938     -429.29803      123649.14      7.7841552    
      2870   304.11706     -15367.526     -15206.551     -501.6522       123658.04      7.806545     
      2880   304.32344     -15367.285     -15206.201     -529.72913      123653.31      7.8255009    
      2890   303.53385     -15366.568     -15205.902     -528.70249      123635.11      7.8409629    
      2900   302.81281     -15365.928     -15205.643     -501.61039      123604.36      7.8530626    
      2910   303.4502      -15366.045     -15205.423     -457.13938      123562.62      7.8621193    
      2920   305.37045     -15366.877     -15205.238     -396.71164      123511.79      7.8686088    
      2930   307.74927     -15368.005     -15205.107     -338.69139      123453.96      7.8731201    
      2940   309.70807     -15368.998     -15205.063     -263.70167      123391.19      7.8762385    
      2950   310.05155     -15369.237     -15205.121     -172.3805       123325.76      7.8786112    
      2960   308.38308     -15368.512     -15205.278     -78.787988      123260.13      7.8809936    
      2970   305.80698     -15367.394     -15205.524      17.257509      123196.77      7.8841568    
      2980   303.64887     -15366.559     -15205.831      101.67879      123138.03      7.8887461    
      2990   302.49729     -15366.29      -15206.172      160.08811      123085.76      7.8951255    
      3000   302.71011     -15366.771     -15206.54       158.60429      123040.89      7.9032216    
      3010   303.5228      -15367.605     -15206.945      128.93301      123002.95      7.9124757    
      3020   303.07006     -15367.797     -15207.376      107.30513      122970.83      7.9222311    
      3030   300.6919      -15367.001     -15207.839      109.73135      122943.59      7.9319546    
      3040   297.88356     -15365.986     -15208.311      111.25581      122920.9       7.9413251    
      3050   296.217       -15365.542     -15208.748      91.292126      122902.48      7.9502647    
      3060   296.03598     -15365.846     -15209.148      36.885725      122887.54      7.9588981    
      3070   296.5628      -15366.48      -15209.504     -29.615771      122874.45      7.9674084    
      3080   297.19866     -15367.127     -15209.814     -100.03651      122861.39      7.9759147    
      3090   298.04627     -15367.861     -15210.099     -164.04645      122846.58      7.9844004    
      3100   298.39289     -15368.32      -15210.375     -205.76644      122828.51      7.9927026    
      3110   297.35774     -15368.023     -15210.626     -208.07559      122806.34      8.0006515    
      3120   295.11158     -15367.052     -15210.843     -182.55982      122780.25      8.0082552    
      3130   292.95221     -15366.075     -15211.01      -156.52693      122751.07      8.0156333    
      3140   291.77038     -15365.541     -15211.101     -110.87075      122719.75      8.022931     
      3150   291.15264     -15365.22      -15211.107     -70.819312      122687.49      8.0303812    
      3160   291.20423     -15365.151     -15211.011     -64.38218       122655.36      8.0381536    
      3170   293.14212     -15366.008     -15210.842     -67.559584      122623.6       8.0461424    
      3180   296.17725     -15367.363     -15210.591     -91.911712      122592.03      8.0541049    
      3190   298.46931     -15368.293     -15210.307     -110.49239      122560.04      8.0616289    
      3200   299.80128     -15368.688     -15209.998     -106.50859      122527.3       8.0682505    
      3210   301.05839     -15369.037     -15209.681     -92.93267       122493.95      8.0736634    
      3220   302.26624     -15369.37      -15209.374     -60.058891      122460.38      8.0778308    
      3230   302.87824     -15369.415     -15209.095     -0.16388704     122427.4       8.0811128    
      3240   303.39182     -15369.43      -15208.838      62.231813      122396.45      8.0842518    
      3250   305.2477      -15370.197     -15208.623      99.645895      122368.95      8.0880751    
      3260   308.09238     -15371.538     -15208.459      92.931579      122345.58      8.0932068    
      3270   310.22069     -15372.587     -15208.381      86.52938       122326.02      8.0999705    
      3280   310.27001     -15372.645     -15208.412      115.63079      122310.02      8.108543     
      3290   308.45902     -15371.815     -15208.542      152.31059      122297.98      8.1190807    
      3300   306.31624     -15370.92      -15208.781      179.11353      122290.57      8.1315518    
      3310   304.72851     -15370.379     -15209.08       185.81984      122288.17      8.1457291    
      3320   303.74975     -15370.205     -15209.424      167.24767      122290.55      8.1613059    
      3330   303.35871     -15370.395     -15209.821      132.99721      122297.01      8.1780093    
      3340   303.05878     -15370.662     -15210.247      77.854717      122306.41      8.1955176    
      3350   302.16661     -15370.639     -15210.696      21.776446      122317.21      8.2133139    
      3360   300.04279     -15369.973     -15211.154     -17.580499      122327.91      8.230806     
      3370   296.62341     -15368.619     -15211.61      -32.757633      122337.58      8.2475137    
      3380   293.1604      -15367.196     -15212.021     -41.326333      122345.84      8.2631383    
      3390   291.23954     -15366.515     -15212.356     -55.472371      122352.53      8.2775339    
      3400   291.32943     -15366.811     -15212.604     -72.358944      122357.38      8.2906457    
      3410   292.91688     -15367.803     -15212.756     -96.514272      122360.05      8.3025097    
      3420   295.06808     -15369.021     -15212.836     -126.97005      122360.03      8.3132664    
      3430   296.79661     -15369.975     -15212.874     -146.69044      122356.71      8.3231204    
      3440   297.56308     -15370.385     -15212.879     -137.91619      122349.86      8.3323834    
      3450   297.45368     -15370.299     -15212.851     -130.31675      122339.81      8.3414512    
      3460   297.59259     -15370.32      -15212.799     -125.23059      122326.97      8.3506607    
      3470   298.59272     -15370.777     -15212.726     -135.90117      122311.51      8.3602026    
      3480   299.33054     -15371.068     -15212.627     -144.35597      122293.38      8.3700897    
      3490   298.95379     -15370.769     -15212.526     -120.84656      122272.61      8.3802072    
      3500   298.19715     -15370.263     -15212.421     -78.397042      122249.88      8.3904783    
      3510   298.53044     -15370.307     -15212.288     -42.121938      122226.36      8.4009447    
      3520   299.94077     -15370.9       -15212.136     -25.507122      122202.95      8.4116068    
      3530   301.38189     -15371.515     -15211.987     -21.654716      122180.07      8.4223081    
      3540   302.2236      -15371.821     -15211.848     -0.37390117     122157.91      8.4327797    
      3550   302.40353     -15371.8       -15211.731      9.031522       122136.9       8.4428624    
      3560   302.18666     -15371.59      -15211.636      7.9657887      122117.24      8.4524335    
      3570   301.75047     -15371.288     -15211.565     -7.3811943      122098.76      8.4613671    
      3580   300.98292     -15370.83      -15211.514     -37.372389      122081.01      8.4695059    
      3590   300.3014      -15370.418     -15211.462     -43.063597      122063.32      8.4766986    
      3600   300.4976      -15370.474     -15211.414     -59.489329      122045.43      8.4829372    
      3610   301.17331     -15370.79      -15211.373     -64.591486      122026.98      8.4883096    
      3620   301.50163     -15370.936     -15211.345     -46.95814       122007.89      8.4930188    
      3630   301.61264     -15370.985     -15211.336     -16.027857      121988.55      8.4972563    
      3640   301.7282      -15371.047     -15211.336      13.613421      121969.76      8.5011506    
      3650   301.31907     -15370.846     -15211.351      57.269349      121952.31      8.5047847    
      3660   300.31834     -15370.352     -15211.387      104.40018      121937.2       8.5083118    
      3670   299.34185     -15369.879     -15211.431      148.12575      121925.51      8.5119665    
      3680   298.3974      -15369.412     -15211.464      168.94146      121918.11      8.5160185    
      3690   297.14707     -15368.773     -15211.487      171.83566      121915.36      8.5207019    
      3700   295.89925     -15368.103     -15211.477      148.30575      121917.08      8.5261266    
      3710   294.93516     -15367.547     -15211.432      112.07647      121922.5       8.5322226    
      3720   294.15034     -15367.023     -15211.324      87.625253      121930.56      8.5388262    
      3730   293.4609      -15366.492     -15211.157      72.92897       121940.47      8.5458653    
      3740   292.82967     -15365.917     -15210.916      69.002497      121951.79      8.5533474    
      3750   292.15963     -15365.255     -15210.609      88.321344      121964.41      8.5612263    
      3760   291.23457     -15364.37      -15210.214      98.236793      121978.63      8.5694982    
      3770   290.51091     -15363.502     -15209.729      92.564897      121994.61      8.5782002    
      3780   290.63589     -15363.003     -15209.163      74.111594      122012.13      8.5874176    
      3790   291.71654     -15362.934     -15208.522      48.798561      122030.73      8.5972161    
      3800   293.65527     -15363.263     -15207.825      4.4427011      122049.63      8.6076736    
      3810   296.81349     -15364.201     -15207.092     -57.186036      122067.69      8.6189095    
      3820   301.04138     -15365.716     -15206.369     -124.20594      122083.43      8.630986     
      3830   305.06818     -15367.181     -15205.702     -192.54722      122095.22      8.6437484    
      3840   307.79499     -15368.051     -15205.129     -236.50081      122101.53      8.6568172    
      3850   308.96053     -15368.201     -15204.662     -240.86844      122101.53      8.6698326    
      3860   308.6992      -15367.702     -15204.301     -215.35933      122095.41      8.6826047    
      3870   306.9743      -15366.537     -15204.049     -170.85259      122084.06      8.6950862    
      3880   304.73731     -15365.182     -15203.878     -114.89023      122068.82      8.7071798    
      3890   303.74622     -15364.527     -15203.748     -71.244833      122051.24      8.7187393    
      3900   303.88915     -15364.523     -15203.669     -42.547783      122032.52      8.7295902    
      3910   303.79853     -15364.436     -15203.629     -12.821964      122013.5       8.7395405    
      3920   303.51727     -15364.283     -15203.625      23.127892      121994.98      8.7484346    
      3930   303.55226     -15364.338     -15203.662      66.280442      121977.87      8.7563263    
      3940   303.37117     -15364.316     -15203.736      96.585144      121963.13      8.763484     
      3950   302.55907     -15363.999     -15203.848      146.11458      121951.56      8.7701677    
      3960   301.05719     -15363.352     -15203.996      208.21871      121944.26      8.7765793    
      3970   299.53166     -15362.688     -15204.14       271.37761      121942.59      8.7829322    
      3980   299.35501     -15362.75      -15204.295      312.35307      121947.9       8.7896264    
      3990   300.71458     -15363.626     -15204.452      321.97475      121960.97      8.7971895    
      4000   302.18393     -15364.564     -15204.612      307.65964      121981.74      8.8059185    
      4010   302.40378     -15364.873     -15204.805      280.98814      122009.52      8.8157774    
      4020   301.48795     -15364.598     -15205.014      241.63444      122043.38      8.8265738    
      4030   300.41196     -15364.262     -15205.248      194.22695      122082.12      8.8381314    
      4040   300.15794     -15364.357     -15205.478      110.25645      122124.26      8.8503272    
      4050   301.29706     -15365.211     -15205.728     -2.0929233      122167.51      8.8629579    
      4060   302.88009     -15366.298     -15205.977     -120.73453      122208.9       8.8757629    
      4070   303.05668     -15366.679     -15206.265     -214.02668      122245.54      8.8885517    
      4080   301.3376      -15366.088     -15206.584     -258.01897      122275.31      8.901183     
      4090   299.07338     -15365.217     -15206.911     -301.9383       122297.15      8.9134623    
      4100   296.95756     -15364.412     -15207.226     -335.9773       122310.31      8.9249435    
      4110   294.7188      -15363.512     -15207.511     -354.84141      122314.25      8.9349586    
      4120   292.40577     -15362.516     -15207.739     -343.308        122308.86      8.9428698    
      4130   291.37731     -15362.122     -15207.89      -344.48743      122294.66      8.9483162    
      4140   292.47859     -15362.781     -15207.966     -340.88104      122272.07      8.9511874    
      4150   294.19878     -15363.687     -15207.961     -335.99321      122241.46      8.9516829    
      4160   294.73697     -15363.902     -15207.892     -299.55977      122203.31      8.9502347    
      4170   294.42684     -15363.613     -15207.767     -232.38641      122158.83      8.9474389    
      4180   294.26876     -15363.334     -15207.572     -140.79939      122110.03      8.9440137    
      4190   294.60456     -15363.258     -15207.318     -62.404         122059.38      8.940664     
      4200   295.43541     -15363.375     -15206.995      9.7814548      122009.02      8.9378617    
      4210   296.87421     -15363.762     -15206.62       72.360481      121960.75      8.9358297    
      4220   298.64191     -15364.292     -15206.215      127.61492      121916.12      8.9346136    
      4230   300.20187     -15364.701     -15205.798      166.38024      121876.41      8.9341525    
      4240   300.94786     -15364.676     -15205.378      208.39439      121842.44      8.934397     
      4250   300.95279     -15364.274     -15204.974      250.79876      121815.07      8.9355223    
      4260   300.80792     -15363.821     -15204.598      287.03826      121795.19      8.9378801    
      4270   301.29497     -15363.729     -15204.247      304.216        121783.36      8.9418591    
      4280   302.43873     -15363.994     -15203.907      305.1244       121779.73      8.9477645    
      4290   303.44813     -15364.233     -15203.612      300.64176      121784.06      8.9557508    
      4300   304.18001     -15364.363     -15203.355      300.70549      121795.99      8.965814     
      4310   305.39808     -15364.798     -15203.144      261.9162       121815.11      8.9778152    
      4320   306.46626     -15365.214     -15202.995      226.83619      121840.32      8.991359     
      4330   306.20349     -15364.998     -15202.918      189.02381      121870.47      9.0059608    
      4340   305.11303     -15364.406     -15202.904      150.88005      121904.45      9.0211224    
      4350   304.0985      -15363.904     -15202.939      98.98676       121941.14      9.0364081    
      4360   303.25356     -15363.54      -15203.022      36.616202      121979.09      9.05133      
      4370   302.04093     -15363.012     -15203.135     -23.242128      122016.7       9.0653362    
      4380   300.37925     -15362.269     -15203.272     -91.844983      122052.38      9.0779319    
      4390   299.09972     -15361.739     -15203.42      -152.40103      122084.47      9.0887819    
      4400   298.786       -15361.715     -15203.561     -210.24349      122111.53      9.0977654    
      4410   298.55134     -15361.729     -15203.699     -253.14817      122132.25      9.1048834    
      4420   297.87003     -15361.496     -15203.827     -281.04138      122145.66      9.1101555    
      4430   297.11327     -15361.193     -15203.925     -286.85064      122151.33      9.1135627    
      4440   297.08158     -15361.263     -15204.011     -289.66305      122149.4       9.115047     
      4450   298.21095     -15361.916     -15204.067     -288.27388      122140.07      9.1145186    
      4460   299.72807     -15362.76      -15204.108     -278.21664      122123.56      9.1119707    
      4470   301.01687     -15363.479     -15204.144     -235.84727      122100.44      9.1075143    
      4480   302.21388     -15364.169     -15204.201     -161.37619      122072.04      9.1014614    
      4490   303.42726     -15364.896     -15204.285     -85.351168      122040.41      9.0942813    
      4500   304.67222     -15365.688     -15204.418     -17.770428      122007.6       9.0864139    
      4510   305.59056     -15366.359     -15204.604      49.382487      121975.37      9.0781489    
      4520   305.47021     -15366.56      -15204.868      118.31133      121945.46      9.0696759    
      4530   304.90954     -15366.617     -15205.222      169.25913      121919.52      9.0612759    
      4540   305.08092     -15367.133     -15205.647      185.25261      121898.67      9.0533116    
      4550   305.51675     -15367.873     -15206.157      190.84839      121883.23      9.0461091    
      4560   304.91224     -15368.129     -15206.733      192.85714      121873.17      9.0399688    
      4570   302.65251     -15367.557     -15207.357      211.68292      121868.47      9.035137     
      4580   299.27288     -15366.389     -15207.977      229.24342      121869.39      9.0317646    
      4590   296.04801     -15365.248     -15208.544      246.58523      121876.17      9.0299331    
      4600   293.68312     -15364.459     -15209.007      253.55046      121889.05      9.029859     
      4610   291.98692     -15363.922     -15209.367      254.96468      121908.02      9.0317352    
      4620   290.88163     -15363.566     -15209.597      259.1489       121932.97      9.0356573    
      4630   290.72413     -15363.599     -15209.712      228.35736      121963.76      9.0416807    
      4640   291.7658      -15364.174     -15209.736      172.41971      121999.42      9.0496521    
      4650   293.57001     -15365.064     -15209.672      95.244773      122038.38      9.0592616    
      4660   295.12837     -15365.764     -15209.546     -0.5349833      122078.57      9.0699254    
      4670   295.67339     -15365.885     -15209.379     -93.137274      122117.52      9.0808072    
      4680   295.25547     -15365.458     -15209.173     -166.63614      122152.97      9.0910322    
      4690   294.83705     -15364.999     -15208.936     -248.86894      122183.01      9.0998777    
      4700   295.97873     -15365.32      -15208.653     -330.20746      122205.64      9.1067566    
      4710   298.31399     -15366.262     -15208.358     -398.38285      122218.98      9.11123      
      4720   300.58759     -15367.158     -15208.051     -430.14571      122221.66      9.1130694    
      4730   302.32607     -15367.799     -15207.772     -433.00123      122213.09      9.1122686    
      4740   303.17918     -15368.022     -15207.544     -395.13444      122193.54      9.1089838    
      4750   302.65304     -15367.545     -15207.345     -340.16149      122164.28      9.103516     
      4760   301.42134     -15366.743     -15207.195     -253.66533      122127.13      9.096231     
      4770   301.19973     -15366.492     -15207.061     -182.21928      122084.41      9.087712     
      4780   302.50366     -15367.072     -15206.951     -127.91583      122038.12      9.0786377    
      4790   304.42054     -15368.004     -15206.868     -79.844846      121989.81      9.0696466    
      4800   305.94172     -15368.774     -15206.833     -38.128616      121940.73      9.0612237    
      4810   306.5827      -15369.135     -15206.854      22.388539      121892.09      9.0536528    
      4820   305.8874      -15368.867     -15206.955      100.43176      121845.43      9.0471278    
      4830   304.73303     -15368.408     -15207.107      201.02786      121802.74      9.04181      
      4840   303.89461     -15368.171     -15207.313      297.68342      121766.42      9.0379077    
      4850   303.06472     -15367.967     -15207.548      400.27997      121738.82      9.0356738    
      4860   302.15017     -15367.762     -15207.828      482.18972      121722.26      9.0353919    
      4870   301.66318     -15367.805     -15208.128      534.11217      121718.54      9.0373472    
      4880   301.67792     -15368.14      -15208.455      526.23361      121728.55      9.041738     
      4890   301.88419     -15368.593     -15208.799      489.30048      121751.8       9.048474     
      4900   302.01629     -15369.03      -15209.167      421.76718      121786.95      9.0572943    
      4910   301.68123     -15369.238     -15209.552      340.81916      121832.05      9.0679195    
      4920   300.95415     -15369.246     -15209.945      248.92843      121884.75      9.0800975    
      4930   300.029       -15369.145     -15210.333      161.40264      121942.47      9.0935071    
      4940   298.44045     -15368.664     -15210.693      92.489323      122002.88      9.1076691    
      4950   296.0761      -15367.731     -15211.012      41.447959      122064.15      9.1219979    
      4960   293.70293     -15366.731     -15211.269      5.4693108      122124.94      9.1358454    
      4970   292.31758     -15366.153     -15211.424     -16.996228      122184.34      9.1486318    
      4980   292.01504     -15366.063     -15211.494     -53.013015      122241.72      9.1599419    
      4990   292.8508      -15366.488     -15211.476     -80.550391      122296.26      9.1695117    
      5000   295.01499     -15367.552     -15211.394     -113.31908      122347.25      9.177273     
      5010   298.00461     -15369.014     -15211.274     -150.65854      122394         9.183293     
      5020   300.52696     -15370.238     -15211.163     -191.84551      122435.61      9.1876342    
      5030   301.43566     -15370.632     -15211.076     -207.14943      122471.19      9.1904085    
      5040   300.6922      -15370.179     -15211.016     -196.64452      122500.48      9.1918586    
      5050   299.68908     -15369.607     -15210.976     -173.4476       122523.87      9.1922615    
      5060   299.57622     -15369.518     -15210.946     -156.87566      122542.11      9.1918057    
      5070   300.30236     -15369.871     -15210.915     -155.31864      122555.77      9.1904925    
      5080   301.04724     -15370.244     -15210.894     -169.72661      122564.98      9.1881781    
      5090   301.66949     -15370.557     -15210.877     -175.17087      122569.53      9.1846678    
      5100   302.55575     -15371.045     -15210.896     -178.65909      122569.34      9.1798929    
      5110   303.30151     -15371.469     -15210.925     -186.1012       122564.43      9.1739478    
      5120   303.27312     -15371.518     -15210.989     -181.56786      122554.77      9.1670754    
      5130   302.23907     -15371.073     -15211.092     -149.63463      122540.64      9.15963      
      5140   300.2325      -15370.115     -15211.196     -101.78509      122522.95      9.1519684    
      5150   298.26852     -15369.191     -15211.312     -56.161227      122503.01      9.1443228    
      5160   297.80287     -15369.033     -15211.4       -37.838098      122481.98      9.1368231    
      5170   299.09357     -15369.79      -15211.474     -41.510915      122460.34      9.1295308    
      5180   300.95906     -15370.838     -15211.534     -26.07221       122438.12      9.1224064    
      5190   302.39396     -15371.671     -15211.608     -10.336691      122415.69      9.1154117    
      5200   302.73597     -15371.947     -15211.703      24.907789      122393.53      9.1084734    
      5210   301.9189      -15371.647     -15211.836      89.918531      122372.58      9.101684     
      5220   300.54682     -15371.062     -15211.976      156.0987       122354.41      9.0954492    
      5230   299.47416     -15370.665     -15212.147      210.85702      122340.67      9.0903924    
      5240   298.81205     -15370.47      -15212.302      260.41695      122332.69      9.0871408    
      5250   297.77657     -15370.09      -15212.471      299.5283       122331.67      9.0861865    
      5260   296.29367     -15369.445     -15212.611      325.11843      122338.51      9.0877952    
      5270   295.1324      -15368.944     -15212.725      329.17596      122353.69      9.0919941    
      5280   294.85865     -15368.873     -15212.798      296.26997      122377.09      9.0986726    
      5290   295.11957     -15369.039     -15212.826      224.06283      122407.68      9.1075715    
      5300   295.51095     -15369.221     -15212.801      130.1792       122443.51      9.1182412    
      5310   296.07808     -15369.439     -15212.719      28.768128      122482.07      9.1299914    
      5320   296.94696     -15369.761     -15212.581     -78.818572      122520.61      9.1419757    
      5330   297.66848     -15369.949     -15212.387     -146.08044      122556.48      9.1533613    
      5340   297.47551     -15369.597     -15212.137     -199.76304      122587.85      9.1634263    
      5350   297.06993     -15369.066     -15211.821     -221.85958      122613.46      9.1714701    
      5360   297.74094     -15369.043     -15211.443     -237.11574      122632.78      9.1770667    
      5370   299.77288     -15369.663     -15210.987     -259.97002      122645.44      9.1800382    
      5380   302.02022     -15370.342     -15210.476     -283.36239      122650.93      9.1803178    
      5390   303.10352     -15370.375     -15209.936     -282.43148      122648.86      9.177914     
      5400   302.58806     -15369.578     -15209.412     -258.19237      122639.39      9.1728893    
      5410   300.87973     -15368.153     -15208.892     -209.71026      122623.33      9.1653621    
      5420   299.10108     -15366.708     -15208.388     -159.22946      122602.02      9.1555209    
      5430   298.68524     -15365.983     -15207.883     -114.71971      122576.87      9.1436133    
      5440   300.32965     -15366.354     -15207.383     -95.960279      122549.02      9.1300109    
      5450   303.0974      -15367.348     -15206.912     -79.778631      122519.08      9.1151425    
      5460   304.80278     -15367.85      -15206.511     -42.166628      122487.58      9.0994728    
      5470   304.08921     -15367.14      -15206.179      19.481145      122455.51      9.0834421    
      5480   301.96722     -15365.762     -15205.924      117.33652      122424.56      9.0675777    
      5490   300.34424     -15364.688     -15205.709      202.39021      122397.12      9.0526123    
      5500   300.56972     -15364.625     -15205.527      257.87334      122375.35      9.03937      
      5510   302.95042     -15365.72      -15205.362      270.20538      122360.6       9.0285026    
      5520   305.97823     -15367.21      -15205.249      265.88175      122353.15      9.0203015    
      5530   307.86618     -15368.163     -15205.203      272.02319      122352.8       9.0147362    
      5540   307.9449      -15368.242     -15205.241      290.28342      122359.62      9.0116879    
      5550   306.69259     -15367.703     -15205.365      295.86065      122373.94      9.0110526    
      5560   305.17847     -15367.084     -15205.547      276.46486      122395.73      9.012672     
      5570   303.98501     -15366.672     -15205.766      249.3315       122424.47      9.016304     
      5580   303.13664     -15366.474     -15206.017      206.18638      122459.32      9.0216682    
      5590   302.58488     -15366.448     -15206.284      173.32473      122499.16      9.0284259    
      5600   301.58307     -15366.196     -15206.562      135.32813      122542.98      9.0362952    
      5610   299.75014     -15365.49      -15206.826      111.14705      122589.8       9.0450616    
      5620   297.67373     -15364.642     -15207.077      89.359284      122638.9       9.0545606    
      5630   296.31345     -15364.113     -15207.269      47.034128      122689.62      9.0646578    
      5640   296.28164     -15364.253     -15207.425     -22.777553      122740.86      9.0750769    
      5650   297.38028     -15364.926     -15207.516     -96.744683      122790.84      9.0854401    
      5660   298.78353     -15365.729     -15207.576     -175.55376      122837.55      9.0954105    
      5670   299.96949     -15366.401     -15207.621     -249.1116       122878.96      9.1047312    
      5680   300.62645     -15366.79      -15207.662     -303.23068      122913.21      9.1131302    
      5690   300.8248      -15366.925     -15207.692     -349.30705      122938.91      9.1203152    
      5700   300.75185     -15366.927     -15207.733     -360.51905      122955.07      9.125949     
      5710   300.81081     -15367.006     -15207.781     -354.03648      122961.46      9.1297405    
      5720   301.2408      -15367.288     -15207.835     -328.95005      122958.42      9.1314142    
      5730   301.52084     -15367.504     -15207.903     -290.50539      122946.71      9.1307438    
      5740   300.98635     -15367.3       -15207.982     -250.80463      122927.41      9.1276068    
      5750   299.94035     -15366.82      -15208.056     -193.156        122901.76      9.1220461    
      5760   299.21408     -15366.51      -15208.13      -127.75975      122871.4       9.1143858    
      5770   299.26982     -15366.6       -15208.19      -75.098983      122838.08      9.1051975    
      5780   299.56195     -15366.807     -15208.242     -21.328632      122803.31      9.0951939    
      5790   299.33725     -15366.718     -15208.272      46.138204      122768.56      9.0851305    
      5800   298.79934     -15366.459     -15208.298      109.35406      122735.58      9.0756475    
      5810   298.24085     -15366.168     -15208.303      167.44009      122706.07      9.0671139    
      5820   297.52918     -15365.778     -15208.29       224.32457      122681.45      9.0596881    
      5830   296.41071     -15365.151     -15208.255      283.58783      122663.17      9.0533912    
      5840   295.47922     -15364.592     -15208.189      325.73121      122652.62      9.048242     
      5850   295.39704     -15364.443     -15208.084      338.38711      122650.72      9.0442905    
      5860   295.97181     -15364.602     -15207.938      316.77152      122657.66      9.0415295    
      5870   296.65427     -15364.796     -15207.771      270.0536       122672.77      9.0398132    
      5880   297.54188     -15365.094     -15207.599      226.76112      122694.79      9.0389573    
      5890   298.6844      -15365.515     -15207.415      175.94363      122722.44      9.03879      
      5900   299.9673      -15366.02      -15207.241      118.73118      122754.3       9.0391576    
      5910   300.96482     -15366.393     -15207.086      46.203549      122788.74      9.0398836    
      5920   301.7737      -15366.696     -15206.961     -18.309236      122823.85      9.0406672    
      5930   302.89143     -15367.208     -15206.881     -88.863084      122857.9       9.0411355    
      5940   304.25471     -15367.879     -15206.831     -176.36477      122889.03      9.0408844    
      5950   305.0662      -15368.319     -15206.842     -245.95367      122915.06      9.0395154    
      5960   304.67832     -15368.163     -15206.891     -273.93792      122934.25      9.0368005    
      5970   303.27605     -15367.509     -15206.979     -275.10642      122945.94      9.0327199    
      5980   301.91013     -15366.888     -15207.081     -233.86374      122950.26      9.0273921    
      5990   300.72313     -15366.366     -15207.187     -193.36289      122948.26      9.0211671    
      6000   299.60489     -15365.886     -15207.299     -130.14543      122941.25      9.014388     
      6010   298.8289      -15365.563     -15207.387     -57.573996      122930.87      9.0073686    
      6020   298.71533     -15365.565     -15207.449      26.770981      122919.12      9.0004486    
      6030   299.24856     -15365.891     -15207.492      92.343556      122908.17      8.994106     
      6040   300.10735     -15366.382     -15207.529      153.01226      122899.82      8.9888444    
      6050   300.66463     -15366.711     -15207.563      195.00792      122895.57      8.9850776    
      6060   300.11928     -15366.458     -15207.599      237.91098      122896.52      8.9830508    
      6070   298.9033      -15365.855     -15207.64       281.39165      122903.78      8.9829493    
      6080   298.38401     -15365.605     -15207.665      295.93251      122918.35      8.9848431    
      6090   299.31975     -15366.112     -15207.676      256.99884      122940.41      8.9885449    
      6100   301.44253     -15367.242     -15207.683      186.57519      122968.93      8.9935343    
      6110   303.72943     -15368.472     -15207.702      90.006893      123002         8.9991681    
      6120   304.85838     -15369.124     -15207.756     -2.2770903      123037.1       9.0048762    
      6130   304.37075     -15368.975     -15207.865     -57.207352      123071.84      9.0103518    
      6140   303.17644     -15368.495     -15208.018     -88.689112      123104.71      9.0155404    
      6150   302.70439     -15368.434     -15208.206     -118.9395       123134.85      9.0203976    
      6160   303.15787     -15368.913     -15208.445     -148.40345      123161.49      9.0246677    
      6170   303.6193      -15369.441     -15208.73      -173.10918      123183.89      9.0280257    
      6180   303.05304     -15369.477     -15209.064     -183.38698      123201.46      9.0302245    
      6190   301.07344     -15368.818     -15209.454     -159.38267      123214.03      9.031224     
      6200   298.4095      -15367.833     -15209.879     -129.79163      123222.18      9.0312913    
      6210   296.8723      -15367.435     -15210.294     -114.96117      123226.73      9.0307788    
      6220   296.40538     -15367.581     -15210.688     -129.16657      123228.06      9.0299562    
      6230   295.87231     -15367.678     -15211.067     -142.75225      123225.87      9.0288727    
      6240   295.36196     -15367.747     -15211.406     -136.36287      123219.93      9.0273445    
      6250   295.37668     -15368.045     -15211.696     -107.45915      123210.48      9.0250928    
      6260   295.87023     -15368.566     -15211.956     -83.288197      123198.29      9.0219228    
      6270   296.20411     -15368.955     -15212.168     -52.47848       123184.06      9.01774      
      6280   295.59552     -15368.806     -15212.341      6.6496025      123168.67      9.0127066    
      6290   293.42459     -15367.775     -15212.46       83.501181      123153.7       9.0072893    
      6300   290.71181     -15366.387     -15212.507      168.80736      123141.23      9.0021232    
      6310   289.45771     -15365.675     -15212.459      230.22719      123133.41      8.9978653    
      6320   290.27238     -15365.939     -15212.292      243.14949      123131.68      8.9950131    
      6330   292.03737     -15366.564     -15211.983      224.26666      123136.32      8.993834     
      6340   293.93251     -15367.111     -15211.527      206.68172      123146.83      8.9943334    
      6350   295.99069     -15367.588     -15210.914      190.82371      123162.63      8.9962683    
      6360   298.05233     -15367.904     -15210.139      148.54216      123183.1       8.9992315    
      6370   299.45961     -15367.765     -15209.255      102.17755      123207.09      9.002705     
      6380   300.40541     -15367.326     -15208.315      67.39323       123233.36      9.0062201    
      6390   301.3123      -15366.923     -15207.432      30.179742      123260.89      9.009403     
      6400   302.01557     -15366.545     -15206.682     -14.020127      123288.66      9.0118713    
      6410   301.70175     -15365.785     -15206.088     -35.956021      123315.56      9.0131607    
      6420   300.16179     -15364.536     -15205.654     -41.839948      123341.03      9.0128716    
      6430   298.70441     -15363.433     -15205.322     -52.238606      123364.91      9.0107345    
      6440   298.90449     -15363.269     -15205.052     -77.771514      123386.93      9.0067523    
      6450   299.99081     -15363.616     -15204.825     -113.71121      123406.45      9.0011214    
      6460   300.12079     -15363.494     -15204.634     -130.89788      123422.61      8.9940556    
      6470   299.50615     -15363.015     -15204.48      -130.39227      123435.03      8.985876     
      6480   299.10498     -15362.65      -15204.328     -128.54163      123443.75      8.9769662    
      6490   299.31725     -15362.62      -15204.185     -115.18233      123448.89      8.9676696    
      6500   300.13451     -15362.912     -15204.045     -96.843478      123450.83      8.9582264    
      6510   300.68599     -15363.069     -15203.91      -56.25384       123450.19      8.9487765    
      6520   300.11609     -15362.637     -15203.779      9.17706        123448.08      8.93952      
      6530   298.78817     -15361.822     -15203.668      78.821487      123446.24      8.930801     
      6540   297.53531     -15361.023     -15203.532      119.61621      123446.47      8.9231021    
      6550   296.52917     -15360.331     -15203.372      139.38406      123449.86      8.9168442    
      6560   295.97548     -15359.84      -15203.174      134.35883      123456.82      8.9122699    
      6570   296.67916     -15359.974     -15202.935      84.465349      123467.11      8.9093928    
      6580   298.54019     -15360.666     -15202.643      15.409155      123479.46      8.9079804    
      6590   300.31342     -15361.308     -15202.346     -55.335583      123491.99      8.9076904    
      6600   301.25834     -15361.502     -15202.04      -99.692149      123502.87      8.9081212    
      6610   301.26766     -15361.209     -15201.742     -113.03813      123510.95      8.9089453    
      6620   301.06358     -15360.824     -15201.465     -111.68428      123515.88      8.909873     
      6630   301.39797     -15360.729     -15201.193     -87.223331      123517.79      8.9105636    
      6640   302.20581     -15360.902     -15200.939     -46.25457       123517.37      8.9107159    
      6650   303.09836     -15361.149     -15200.713      3.5382906      123515.7       8.9102421    
      6660   304.18649     -15361.533     -15200.521      72.595289      123514.19      8.9093339    
      6670   305.15115     -15361.88      -15200.357      131.27064      123514.57      8.9084802    
      6680   305.09662     -15361.751     -15200.257      203.74294      123518.48      8.9082907    
      6690   304.44802     -15361.354     -15200.203      253.61882      123527.69      8.9094032    
      6700   304.49609     -15361.373     -15200.197      265.36552      123543.45      8.9122295    
      6710   305.28214     -15361.824     -15200.232      241.14584      123565.99      8.9168764    
      6720   305.83567     -15362.219     -15200.334      199.68054      123594.56      8.9231815    
      6730   305.58204     -15362.257     -15200.506      152.41064      123628.01      8.9309003    
      6740   304.49304     -15361.928     -15200.753      97.1932        123665.04      8.93979      
      6750   302.71568     -15361.301     -15201.067      42.008472      123704.09      8.9495583    
      6760   300.53195     -15360.508     -15201.43      -13.158195      123743.62      8.9598771    
      6770   298.31762     -15359.738     -15201.833     -77.002548      123782.13      8.9703769    
      6780   296.56958     -15359.215     -15202.235     -152.06962      123817.92      8.9805915    
      6790   295.63428     -15359.119     -15202.634     -225.17804      123849         8.9899737    
      6800   295.05299     -15359.185     -15203.007     -293.70399      123873.47      8.9979518    
      6810   294.71575     -15359.338     -15203.339     -336.79208      123889.73      9.0039635    
      6820   294.94064     -15359.755     -15203.637     -362.2644       123896.72      9.0074901    
      6830   295.97132     -15360.564     -15203.901     -362.06901      123893.9       9.0080439    
      6840   297.83843     -15361.79      -15204.138     -354.93394      123881.4       9.0052746    
      6850   300.34582     -15363.341     -15204.362     -321.07745      123859.66      8.9990271    
      6860   302.34595     -15364.658     -15204.62      -262.73409      123829.74      8.9895012    
      6870   302.95306     -15365.272     -15204.913     -171.28968      123793.35      8.977214     
      6880   302.41635     -15365.34      -15205.265     -61.396789      123753.03      8.9629413    
      6890   301.39283     -15365.208     -15205.675      52.064154      123711.8       8.9476307    
      6900   300.35208     -15365.133     -15206.15       164.02797      123672.71      8.9323319    
      6910   299.8171      -15365.362     -15206.663      262.50868      123638.73      8.91806      
      6920   300.12914     -15366.073     -15207.209      320.43434      123612.34      8.9056101    
      6930   300.87429     -15367.048     -15207.789      351.03058      123594.95      8.8954709    
      6940   300.80682     -15367.624     -15208.401      357.51119      123587.2       8.8879652    
      6950   299.34766     -15367.449     -15208.998      364.75212      123589.18      8.8832709    
      6960   296.96644     -15366.754     -15209.564      359.2053       123600.81      8.8814394    
      6970   294.8667      -15366.131     -15210.052      348.45764      123621.81      8.8823248    
      6980   294.35796     -15366.244     -15210.434      288.06142      123651.6       8.8855897    
      6990   295.83761     -15367.312     -15210.719      203.95375      123688.53      8.8906478    
      7000   297.88149     -15368.59      -15210.915      120.29515      123730.33      8.8968602    
      7010   299.11309     -15369.377     -15211.05       44.271651      123774.62      8.9037048    
      7020   299.45679     -15369.673     -15211.164     -11.346298      123819.36      8.9108183    
      7030   299.15392     -15369.594     -15211.246     -49.515383      123863.04      8.9179521    
      7040   298.30463     -15369.201     -15211.302     -83.777924      123904.6       8.9249097    
      7050   296.85454     -15368.465     -15211.334     -106.18614      123943.18      8.9315186    
      7060   294.77607     -15367.366     -15211.335     -115.06975      123978.22      8.9376546    
      7070   292.33353     -15366.017     -15211.279     -119.31932      124009.48      8.9431638    
      7080   290.26987     -15364.803     -15211.157     -107.75363      124036.95      8.9478494    
      7090   289.13203     -15364         -15210.957     -102.29303      124060.94      8.9515991    
      7100   289.11198     -15363.708     -15210.675     -119.57705      124081.6       8.9543407    
      7110   289.9474      -15363.787     -15210.312     -143.21269      124098.61      8.9560141    
      7120   290.74226     -15363.781     -15209.885     -164.72455      124111.44      8.9567061    
      7130   291.30587     -15363.598     -15209.404     -175.72164      124119.57      8.9566395    
      7140   291.85892     -15363.382     -15208.895     -185.86201      124122.78      8.9561585    
      7150   292.33071     -15363.115     -15208.379     -184.24886      124120.92      8.9555345    
      7160   292.86032     -15362.868     -15207.851     -190.73153      124114.11      8.9549       
      7170   293.24771     -15362.568     -15207.346     -182.06293      124102.36      8.9541585    
      7180   293.51069     -15362.204     -15206.843     -163.33931      124085.95      8.9531615    
      7190   293.76254     -15361.858     -15206.364     -124.251        124065.53      8.9518322    
      7200   294.31137     -15361.681     -15205.896     -85.653166      124042.16      8.9502519    
      7210   295.84077     -15362.039     -15205.445     -64.849151      124016.87      8.9486218    
      7220   298.57287     -15363.05      -15205.009     -73.011192      123990.22      8.9471823    
      7230   301.45955     -15364.188     -15204.619     -77.223072      123962.15      8.9461866    
      7240   303.06448     -15364.699     -15204.281     -55.662386      123932.61      8.9459079    
      7250   302.85707     -15364.314     -15204.006     -19.717646      123902.15      8.9465714    
      7260   301.20103     -15363.218     -15203.786      45.952662      123871.83      8.9483493    
      7270   299.04348     -15361.882     -15203.592      104.8376       123843.32      8.951414     
      7280   297.4436      -15360.841     -15203.398      159.46664      123818.19      8.9558831    
      7290   296.80872     -15360.293     -15203.186      198.5757       123797.78      8.9617682    
      7300   296.83014     -15360.065     -15202.947      236.36913      123783.1       8.9689492    
      7310   297.08911     -15359.938     -15202.682      262.344        123775.02      8.9772551    
      7320   297.7952      -15360.02      -15202.39       267.55196      123774.08      8.9865166    
      7330   299.38614     -15360.551     -15202.08       237.90722      123780.2       8.9965934    
      7340   301.41085     -15361.312     -15201.77       192.37932      123792.51      9.0073533    
      7350   302.89593     -15361.811     -15201.482      141.35791      123809.73      9.0186879    
      7360   303.65274     -15361.941     -15201.212      98.264609      123830.37      9.0305299    
      7370   303.80456     -15361.803     -15200.993      79.329911      123853.22      9.0429252    
      7380   303.78906     -15361.621     -15200.819      77.081146      123877.69      9.0560122    
      7390   304.2663      -15361.729     -15200.674      61.5436        123903.61      9.0699054    
      7400   305.14534     -15362.111     -15200.592      41.686688      123930.55      9.0845797    
      7410   305.74467     -15362.381     -15200.544      29.576214      123957.99      9.0998705    
      7420   305.92467     -15362.508     -15200.576      29.043584      123985.54      9.1154656    
      7430   306.01448     -15362.635     -15200.655      29.37197       124013.16      9.1310539    
      7440   305.94962     -15362.753     -15200.808      30.318307      124040.86      9.1463467    
      7450   305.67144     -15362.826     -15201.028      28.54358       124068.61      9.1609565    
      7460   305.28069     -15362.909     -15201.318      18.134528      124096.33      9.1744309    
      7470   304.53763     -15362.871     -15201.673     -6.3141049      124123.71      9.1863474    
      7480   303.13629     -15362.553     -15202.097     -21.007302      124150.21      9.1964452    
      7490   300.74869     -15361.753     -15202.561     -23.397658      124175.47      9.204796     
      7500   297.76943     -15360.66      -15203.045     -23.181093      124199.42      9.2116635    
      7510   295.10061     -15359.696     -15203.494     -23.186393      124222.09      9.2173423    
      7520   293.46757     -15359.222     -15203.883     -33.400464      124243.48      9.2221117    
      7530   292.79565     -15359.179     -15204.196     -57.503178      124263.33      9.2261499    
      7540   292.2349      -15359.107     -15204.422     -76.380167      124281.1       9.229577     
      7550   291.59924     -15358.915     -15204.566     -76.165719      124296.4       9.2325838    
      7560   291.66237     -15359.007     -15204.624     -89.187325      124309.21      9.235498     
      7570   292.51673     -15359.418     -15204.583     -119.3039       124319.23      9.2384846    
      7580   293.60981     -15359.891     -15204.477     -146.4793       124325.76      9.2414983    
      7590   294.67815     -15360.28      -15204.301     -158.84116      124328.22      9.2444319    
      7600   295.76675     -15360.621     -15204.066     -174.25275      124326.3       9.2471228    
      7610   297.01756     -15361.018     -15203.8       -182.95701      124319.7       9.2492795    
      7620   297.91157     -15361.185     -15203.494     -164.03349      124308.37      9.2505784    
      7630   298.36879     -15361.099     -15203.166     -134.4844       124292.92      9.2507964    
      7640   299.0815      -15361.135     -15202.825     -95.148373      124274.2       9.2497549    
      7650   300.03654     -15361.293     -15202.478     -61.377213      124253.29      9.2474877    
      7660   300.51731     -15361.206     -15202.136     -12.942706      124231.23      9.2442581    
      7670   300.00885     -15360.609     -15201.809      61.747149      124209.39      9.2404865    
      7680   299.3489      -15359.939     -15201.488      131.5996       124189.71      9.2367228    
      7690   299.49491     -15359.721     -15201.192      191.36585      124174.01      9.2335362    
[...]
      9960   301.64187     -15366.831     -15207.166      190.8546       123815.27      10.247125    
      9970   300.93924     -15366.516     -15207.222      117.17086      123904.4       10.277474    
      9980   301.00881     -15366.611     -15207.281      26.710509      123995.79      10.309277    
      9990   301.68748     -15367.025     -15207.336     -76.065843      124086.96      10.341854    
     10000   301.96144     -15367.23      -15207.396     -181.46679      124175.11      10.374284    
Loop time of 11430.2 on 1 procs for 10000 steps with 4096 atoms

Performance: 0.038 ns/day, 635.011 hours/ns, 0.875 timesteps/s, 3.583 katom-step/s
92.7% CPU use with 1 MPI tasks x 1 OpenMP threads

MPI task timing breakdown:
Section |  min time  |  avg time  |  max time  |%varavg| %total
---------------------------------------------------------------
Pair    | 10777      | 10777      | 10777      |   0.0 | 94.28
Bond    | 0.037512   | 0.037512   | 0.037512   |   0.0 |  0.00
Neigh   | 5.1912     | 5.1912     | 5.1912     |   0.0 |  0.05
Comm    | 0.89407    | 0.89407    | 0.89407    |   0.0 |  0.01
Output  | 645.03     | 645.03     | 645.03     |   0.0 |  5.64
Modify  | 2.0168     | 2.0168     | 2.0168     |   0.0 |  0.02
Other   |            | 0.4185     |            |       |  0.00

Nlocal:           4096 ave        4096 max        4096 min
Histogram: 1 0 0 0 0 0 0 0 0 0
Nghost:           4633 ave        4633 max        4633 min
Histogram: 1 0 0 0 0 0 0 0 0 0
Neighs:              0 ave           0 max           0 min
Histogram: 1 0 0 0 0 0 0 0 0 0
FullNghs:       131698 ave      131698 max      131698 min
Histogram: 1 0 0 0 0 0 0 0 0 0

Total # of neighbors = 131698
Ave neighs/atom = 32.152832
Ave special neighs/atom = 0
Neighbor list builds = 997
Dangerous builds = 972
Setting up Verlet run ...
  Unit style    : metal
  Current step  : 10000
  Time step     : 0.0005
Per MPI rank memory allocation (min/avg/max) = 8.52 | 8.52 | 8.52 Mbytes
   Step          Temp          PotEng         TotEng         Press          Volume        c_msd[4]   
     10000   301.96144     -15367.227     -15207.392     -181.46766      124175.11      10.374284    
     10010   301.8443      -15367.18      -15207.407     -161.92782      124174.73      10.378821    
     10020   302.35356     -15367.453     -15207.411     -165.05841      124173.87      10.382596    
     10030   303.58911     -15368.118     -15207.422     -179.51328      124172.74      10.385577    
     10040   304.84166     -15368.788     -15207.429     -188.15511      124171.35      10.387842    
     10050   305.63966     -15369.215     -15207.434     -189.58307      124169.81      10.389581    
     10060   305.54386     -15369.165     -15207.434     -174.94715      124168.41      10.391053    
     10070   304.2648      -15368.492     -15207.439     -149.32637      124167.62      10.392578    
     10080   302.27763     -15367.406     -15207.405     -116.33013      124167.95      10.394462    
     10090   300.0957      -15366.185     -15207.338     -92.405127      124169.73      10.396952    
     10100   298.33883     -15365.116     -15207.199     -84.951917      124173.2       10.40026     
     10110   297.59464     -15364.497     -15206.974     -83.694685      124178.49      10.404551    
     10120   297.87507     -15364.32      -15206.649     -110.36851      124185.55      10.409898    
     10130   298.9211      -15364.438     -15206.212     -144.83634      124194.11      10.416235    
     10140   300.34942     -15364.676     -15205.695     -180.32433      124203.77      10.423341    
     10150   301.77929     -15364.908     -15205.17      -211.97208      124214.11      10.430954    
     10160   302.95808     -15365.053     -15204.691     -241.01261      124224.67      10.438846    
     10170   303.75976     -15365.066     -15204.28      -262.82623      124234.97      10.446874    
     10180   304.15445     -15364.921     -15203.926     -275.26562      124244.51      10.454906    
     10190   304.34308     -15364.695     -15203.6       -276.01709      124252.89      10.462815    
     10200   304.8251      -15364.606     -15203.256     -267.66019      124259.88      10.47051     
     10210   305.95525     -15364.845     -15202.896     -266.99527      124265.33      10.477966    
     10220   307.40714     -15365.217     -15202.5       -255.15427      124269.07      10.485125    
     10230   308.62172     -15365.427     -15202.067     -242.53871      124271         10.491868    
     10240   309.15835     -15365.245     -15201.601     -229.5817       124271.14      10.497958    
     10250   308.73387     -15364.531     -15201.112     -203.10643      124269.56      10.503113    
     10260   307.84459     -15363.55      -15200.601     -179.41643      124266.48      10.507172    
     10270   307.77179     -15362.983     -15200.074     -173.02241      124262.33      10.510167    
     10280   308.78431     -15362.969     -15199.523     -194.86203      124257.46      10.512277    
     10290   310.00943     -15363.045     -15198.951     -214.80061      124252.04      10.513658    
     10300   310.51693     -15362.742     -15198.379     -219.45011      124246.04      10.514379    
     10310   310.29537     -15362.034     -15197.789     -204.39065      124239.35      10.514482    
     10320   309.88232     -15361.222     -15197.195     -177.95037      124231.96      10.514048    
     10330   309.61831     -15360.467     -15196.58      -144.33169      124223.95      10.513198    
     10340   309.13112     -15359.578     -15195.949     -100.51776      124215.53      10.512079    
     10350   308.32659     -15358.502     -15195.298     -49.386425      124207.07      10.510839    
     10360   307.81995     -15357.561     -15194.625      4.0734617      124199.04      10.509633    
     10370   307.99289     -15356.959     -15193.932      45.700309      124191.93      10.508604    
     10380   308.6093      -15356.578     -15193.225      80.026065      124186.11      10.507871    
     10390   309.63956     -15356.396     -15192.497      106.0714       124181.83      10.507506    
     10400   311.4577      -15356.606     -15191.746      109.50022      124179.29      10.507568    
     10410   313.86442     -15357.121     -15190.986      106.0205       124178.6       10.508114    
     10420   316.26458     -15357.613     -15190.208      99.908834      124179.86      10.509227    
     10430   318.43692     -15357.967     -15189.412      101.91403      124183.04      10.511039    
     10440   320.26671     -15358.136     -15188.612      103.87819      124187.97      10.513747    
     10450   321.61719     -15358.038     -15187.8        102.05053      124194.47      10.517556    
     10460   322.4856      -15357.683     -15186.984      98.464847      124202.38      10.522606    
     10470   323.35532     -15357.314     -15186.156      102.30569      124211.65      10.52893     
     10480   324.79881     -15357.227     -15185.304      84.718824      124222.38      10.536445    
     10490   326.63322     -15357.344     -15184.45       59.446625      124234.51      10.544908    
     10500   327.94304     -15357.172     -15183.585      39.661595      124247.67      10.553958    
     10510   328.52469     -15356.597     -15182.702      24.235289      124261.29      10.563171    
     10520   328.78593     -15355.85      -15181.817      22.761584      124274.78      10.572165    
     10530   328.87848     -15355         -15180.918      28.474099      124287.84      10.580712    
     10540   329.02229     -15354.167     -15180.009      35.536707      124300.4       10.588674    
     10550   329.53259     -15353.509     -15179.081      29.282212      124312.55      10.595933    
     10560   330.46452     -15353.066     -15178.145      26.252108      124324.29      10.602399    
     10570   331.56072     -15352.69      -15177.189      17.473389      124335.7       10.608122    
     10580   332.4386      -15352.195     -15176.229      18.316163      124346.78      10.613242    
     10590   333.03283     -15351.527     -15175.246      23.897092      124357.7       10.617985    
     10600   333.4447      -15350.752     -15174.253      35.702285      124368.68      10.62261     
     10610   333.99426     -15350.045     -15173.255      45.247146      124379.98      10.627343    
     10620   335.17529     -15349.66      -15172.245      42.419137      124391.79      10.632376    
     10630   336.96402     -15349.575     -15171.213      27.147476      124404.07      10.637831    
     10640   338.71096     -15349.455     -15170.168      12.643452      124416.53      10.643754    
     10650   339.90713     -15349.031     -15169.112      9.0888432      124428.7       10.65006     
     10660   340.67456     -15348.376     -15168.05       16.325965      124440.08      10.656498    
     10670   341.46562     -15347.722     -15166.977      20.922885      124450.3       10.662769    
     10680   342.46949     -15347.176     -15165.9        23.878501      124459.22      10.668737    
     10690   343.54797     -15346.65      -15164.803      35.359216      124466.91      10.674445    
     10700   344.55635     -15346.082     -15163.701      51.581599      124473.54      10.679994    
     10710   345.60313     -15345.518     -15162.583      67.614235      124479.27      10.685438    
     10720   347.19004     -15345.232     -15161.458      73.709777      124484.38      10.690767    
     10730   349.33691     -15345.226     -15160.314      80.403761      124489.23      10.695869    
     10740   351.2966      -15345.116     -15159.168      77.104561      124494.17      10.700593    
     10750   352.86472     -15344.785     -15158.007      83.580757      124499.4       10.704859    
     10760   354.12585     -15344.284     -15156.838      57.92293       124504.94      10.708719    
     10770   355.19349     -15343.677     -15155.666      33.124292      124510.46      10.712248    
     10780   356.3482      -15343.11      -15154.488      1.7655255      124515.67      10.715597    
     10790   357.66581     -15342.621     -15153.301     -36.538399      124520.31      10.718807    
     10800   359.17476     -15342.222     -15152.103     -64.569556      124524.08      10.721766    
     10810   360.84347     -15341.893     -15150.891     -79.484449      124526.76      10.724288    
     10820   362.32671     -15341.461     -15149.674     -73.306122      124528.24      10.726214    
     10830   363.10685     -15340.654     -15148.454     -38.741391      124528.6       10.727491    
     10840   362.88835     -15339.314     -15147.23       8.3466264      124528.05      10.728158    
     10850   361.45196     -15337.32      -15145.996      75.907148      124526.71      10.728301    
     10860   359.04511     -15334.811     -15144.761      166.31635      124524.87      10.728133    
     10870   357.33705     -15332.65      -15143.505      245.84119      124523         10.728026    
     10880   358.08123     -15331.764     -15142.224      288.59198      124521.62      10.728312    
     10890   360.90447     -15331.943     -15140.909      303.73833      124521.09      10.729253    
     10900   364.10864     -15332.303     -15139.573      319.40928      124521.7       10.731141    
     10910   366.91978     -15332.45      -15138.232      331.07352      124523.78      10.73429     
     10920   369.46941     -15332.445     -15136.878      339.05763      124527.57      10.738906    
     10930   371.3435      -15332.074     -15135.515      344.69634      124533.09      10.744924    
     10940   371.45183     -15330.771     -15134.154      361.73246      124540.06      10.751903    
     10950   369.92115     -15328.596     -15132.789      404.12584      124548.28      10.759307    
     10960   369.0108      -15326.755     -15131.43       430.76444      124557.89      10.766729    
     10970   370.06234     -15325.928     -15130.046      424.12572      124569.07      10.773978    
     10980   372.50423     -15325.802     -15128.628      386.32148      124581.72      10.780973    
     10990   375.71547     -15326.076     -15127.202      344.98246      124595.3       10.787634    
     11000   379.28479     -15326.52      -15125.756      308.25393      124609.13      10.793872    
     11010   382.57383     -15326.814     -15124.31       283.79553      124622.61      10.799746    
     11020   384.82924     -15326.551     -15122.853      280.33668      124635.39      10.80552     
     11030   386.24656     -15325.849     -15121.4        288.03647      124647.27      10.811575    
     11040   387.43275     -15325.023     -15119.947      304.38772      124658.34      10.81825     
     11050   387.95812     -15323.858     -15118.504      337.2097       124669         10.825796    
     11060   387.04666     -15321.925     -15117.053      386.15872      124680.04      10.834409    
     11070   385.68249     -15319.75      -15115.6        415.3018       124692.4       10.844155    
     11080   386.32793     -15318.623     -15114.132      405.51423      124706.72      10.854878    
     11090   388.64129     -15318.346     -15112.63       366.68485      124723.06      10.866204    
     11100   390.30983     -15317.719     -15111.12       325.98972      124740.92      10.877669    
     11110   390.95775     -15316.534     -15109.592      296.23099      124759.49      10.888807    
     11120   391.65858     -15315.367     -15108.054      265.37609      124777.93      10.89925     
     11130   392.99712     -15314.537     -15106.516      231.17898      124795.44      10.90884     
     11140   395.2945      -15314.194     -15104.957      202.46841      124811.4       10.917661    
     11150   398.27343     -15314.199     -15103.385      187.79877      124825.3       10.925852    
     11160   401.0219      -15314.07      -15101.801      196.79159      124836.68      10.933441    
     11170   403.0736      -15313.576     -15100.221      231.98288      124845.34      10.940402    
     11180   404.79318     -15312.912     -15098.647      279.167        124851.42      10.94678     
     11190   406.1552      -15312.061     -15097.074      327.8877       124855.43      10.952774    
     11200   406.85929     -15310.855     -15095.497      399.26998      124857.94      10.958568    
     11210   407.72677     -15309.739     -15093.921      459.56035      124859.73      10.964397    
     11220   408.83438     -15308.747     -15092.343      514.71408      124861.62      10.970592    
     11230   409.15162     -15307.312     -15090.74       559.75543      124864.41      10.977486    
     11240   409.37428     -15305.837     -15089.147      589.46088      124868.73      10.985161    
     11250   411.04417     -15305.104     -15087.53       596.64614      124874.83      10.993365    
     11260   414.0817      -15305.08      -15085.898      567.80887      124882.5       11.001749    
     11270   417.41602     -15305.199     -15084.252      535.66881      124891.33      11.010079    
     11280   420.3068      -15305.079     -15082.602      511.48331      124901.13      11.018347    
     11290   422.00127     -15304.334     -15080.96       526.96719      124912         11.026707    
     11300   422.13843     -15302.771     -15079.324      574.79912      124924.12      11.035321    
     11310   421.4556      -15300.776     -15077.691      625.39576      124937.53      11.044134    
     11320   420.34065     -15298.552     -15076.057      683.98808      124952.14      11.052893    
     11330   419.3621      -15296.391     -15074.414      720.35506      124968.13      11.061445    
     11340   420.34914     -15295.245     -15072.746      731.78041      124985.85      11.069853    
     11350   422.61939     -15294.75      -15071.049      709.7428       125005.43      11.07831     
     11360   424.35951     -15293.952     -15069.33       689.15086      125026.74      11.087108    
     11370   426.11743     -15293.157     -15067.605      682.45885      125049.55      11.096523    
     11380   428.72361     -15292.799     -15065.867      678.24276      125073.72      11.106806    
     11390   431.44801     -15292.498     -15064.124      690.66322      125099.31      11.118136    
     11400   433.59235     -15291.89      -15062.38       711.07489      125126.72      11.130678    
     11410   434.6171      -15290.699     -15060.648      729.59348      125156.31      11.144532    
     11420   434.94898     -15289.135     -15058.907      728.01481      125188.25      11.159663    
     11430   435.89125     -15287.896     -15057.17       714.2998       125222.44      11.175914    
     11440   437.58129     -15287.035     -15055.414      686.54961      125258.36      11.1931      
     11450   439.562       -15286.318     -15053.649      637.90272      125295.14      11.21099     
     11460   442.0999      -15285.89      -15051.877      590.734        125331.65      11.229022    
     11470   445.09417     -15285.691     -15050.094      539.17622      125366.88      11.246395    
     11480   448.45469     -15285.687     -15048.31       492.08762      125399.95      11.262374    
     11490   451.48971     -15285.519     -15046.536      455.11591      125430.35      11.276699    
     11500   453.18704     -15284.654     -15044.773      424.60423      125457.78      11.28962     
     11510   453.27919     -15282.963     -15043.033      394.23857      125481.94      11.301499    
     11520   452.96136     -15281.068     -15041.307      378.2026       125502.4       11.312512    
     11530   453.891       -15279.825     -15039.571      356.66502      125518.74      11.322708    
     11540   455.64101     -15279.011     -15037.831      350.40706      125530.54      11.332139    
     11550   456.98675     -15277.979     -15036.086      351.26482      125537.53      11.340837    
     11560   457.71398     -15276.62      -15034.343      371.68664      125539.52      11.348651    
     11570   458.1287      -15275.09      -15032.593      402.41262      125536.69      11.355316    
     11580   459.45904     -15274.047     -15030.846      446.14372      125529.55      11.360586    
     11590   462.17151     -15273.717     -15029.08       494.40738      125518.86      11.3644      
     11600   465.05303     -15273.469     -15027.307      571.44463      125505.6       11.366957    
     11610   467.60887     -15273.05      -15025.535      681.28418      125490.99      11.368697    
     11620   469.6981      -15272.392     -15023.771      801.75111      125476.39      11.370167    
     11630   471.57899     -15271.629     -15022.013      929.12481      125463.07      11.371768    
     11640   474.09971     -15271.206     -15020.255      1031.3607      125451.96      11.373681    
     11650   477.04243     -15271.019     -15018.51       1096.2062      125443.51      11.375942    
     11660   478.07105     -15269.837     -15016.784      1152.423       125437.95      11.378704    
     11670   477.10457     -15267.602     -15015.06       1189.3873      125435.63      11.382283    
     11680   476.73992     -15265.698     -15013.35       1222.3912      125436.67      11.386905    
     11690   477.07118     -15264.152     -15011.629      1210.5374      125440.81      11.392562    
     11700   478.08362     -15262.957     -15009.898      1184.4663      125447.54      11.399097    
     11710   480.66342     -15262.573     -15008.148      1154.0847      125456.63      11.406502    
     11720   483.70396     -15262.412     -15006.378      1124.6966      125468.02      11.415041    
     11730   485.82371     -15261.766     -15004.609      1102.8437      125481.68      11.425019    
     11740   487.95791     -15261.127     -15002.841      1099.0206      125497.6       11.436516 