LAMMPS data file via write_data, version 2 Aug 2023, timestep = 80000, units = metal

1536 atoms
3 atom types

-0.44650446066576244 25.377116705563957 xlo xhi
-0.2999542277549132 25.230566472653756 ylo yhi
-1.8661910792421992 76.6580278139397 zlo zhi

Masses

1 35.44999999088069
2 39.09829998994218
3 6.939999998214724

Atoms # full

16 0 1 -1 2.6957763390930927 1.9193203814515347 -0.9428332999142254 0 0 0
12 0 2 1 5.557224473434885 2.5554908518120474 -1.2906950501315837 0 0 0
400 0 1 -1 8.78032087303023 2.352687188747663 -1.137737380324926 0 0 0
397 0 1 -1 11.934323984693084 0.18159657764789788 -0.9534323386661001 0 0 0
784 0 1 -1 14.86885072018705 2.7346508291512905 -0.7227827304866874 0 0 0
777 0 2 1 15.293475609623627 -0.2688753439649735 -0.575173762772712 0 0 0
780 0 2 1 18.86999566633363 2.5784202131927603 -0.8561386588953794 0 0 0
1164 0 2 1 24.974818262985963 2.348115205564418 -0.8383431825289855 0 0 0
105 0 2 1 2.749638337605693 5.739588997452622 -0.8421050289301955 0 0 0
109 0 1 -1 6.073929112268363 5.373171648892549 -1.323655819039048 0 0 0
489 0 2 1 9.466003139880035 5.262447771807447 -0.5544066911415109 0 0 0
493 0 1 -1 12.25961981947383 5.918224118617653 -1.2438137233643456 0 0 0
396 0 3 1 12.628011523861971 2.892957897640552 -0.8581158484606257 0 0 0
873 0 2 1 15.124019661991658 5.961017763544478 -1.312048271203178 0 0 0
877 0 1 -1 18.625204781916338 5.63821061095538 -1.22325189449101 0 0 0
1168 0 1 -1 21.812014016847222 3.1981546686029745 -0.41238703629851625 0 0 0
1257 0 3 1 22.444718927704457 5.078185755428895 -1.5034343539536006 0 0 0
1261 0 1 -1 25.168532615519858 5.281977175055358 -0.9795608341279433 0 0 0
112 0 1 -1 1.8916912068652105 8.745399425739295 -0.05669320363130481 0 0 0
108 0 3 1 6.841403011067644 7.679447198405592 -1.1302127419657584 0 0 0
496 0 1 -1 8.92585832722263 8.343071233799972 -0.44290135003106923 0 0 0
492 0 2 1 11.99364523171299 8.695514144325527 -0.9972106587540736 0 0 0
880 0 1 -1 15.810204932422264 8.924060545192932 -0.8486718799801547 0 0 0
876 0 2 1 19.16616025122279 8.565557578106489 -0.9354939210567307 0 0 0
1264 0 1 -1 21.81100381621377 7.414529657794175 -0.5216435769350598 0 0 0
1260 0 2 1 24.739615501315164 8.573872013825092 -0.7131276380735532 0 0 0
201 0 2 1 2.327937551877958 11.760206272071509 -0.21169062342590705 0 0 0
205 0 1 -1 5.602905976229628 12.215466585978165 -0.3072747214260181 0 0 0
585 0 2 1 8.706671467685085 11.494816049375638 -0.9775340885422339 0 0 0
589 0 1 -1 11.811441559469701 11.625019526685548 -0.7918137770526095 0 0 0
969 0 3 1 16.470008366716975 11.395208526664456 -0.6772530075550789 0 0 0
973 0 1 -1 18.827129321627652 12.070185802488549 -0.6854553651892434 0 0 0
1353 0 2 1 22.065402291917216 12.209825836260332 -0.5003405517856307 0 0 0
1357 0 1 -1 25.30945557160527 11.749661986982876 -0.610823777116164 0 0 0
1356 0 2 1 -0.4403330549959905 14.908543897610436 -1.0964716837917536 1 0 0
204 0 2 1 5.711987987310675 15.055201486490056 -0.5965218828543288 0 0 0
592 0 1 -1 8.86172906392723 14.686885349591346 -0.3787910199252613 0 0 0
588 0 2 1 12.301181267009921 14.711941364502172 -0.37820193233457955 0 0 0
972 0 2 1 18.575224455042495 15.258944701637372 -0.7453047741182866 0 0 0
1360 0 1 -1 21.802801672571526 15.233311038857027 -0.8773487635516989 0 0 0
208 0 1 -1 2.5487563626415417 15.73488670375728 -0.6924319773866308 0 0 0
297 0 3 1 1.957734584140812 17.953342001049 -0.7137338986531783 0 0 0
301 0 1 -1 6.865360588508107 18.03022643078704 -0.7454206348269359 0 0 0
299 0 3 1 8.72215082613409 16.858295104863224 0.38665319269184995 0 0 0
685 0 1 -1 10.600118710392968 17.602215234520564 -0.4722898530676316 0 0 0
976 0 1 -1 15.258657146143442 16.174980754536453 -0.7690881621034722 0 0 0
1065 0 3 1 15.845498041074132 18.420808043652418 0.0034010412417890823 0 0 0
1069 0 1 -1 18.455374394946638 18.53687622219606 -0.5641709156151635 0 0 0
1449 0 2 1 21.92309114726222 18.48898546027712 -0.6077942451926797 0 0 0
1453 0 1 -1 25.16075943072731 17.951998193625386 -0.17524888948145034 0 0 0
304 0 1 -1 2.413555756403564 20.217900292942147 -0.6653008979206927 0 0 0
300 0 2 1 5.57357284387019 21.226548525394143 -0.6879388741748407 0 0 0
586 0 3 1 8.742466059594332 19.196671249330834 -1.5925361416121646 0 0 0
688 0 1 -1 8.126603388546094 21.607026716171745 -1.8260129155864036 0 0 0
1072 0 1 -1 15.265431952348026 21.175319123186647 -0.34472819973239566 0 0 0
1068 0 2 1 18.880202272870847 21.789946165721425 -0.28217337203296067 0 0 0
1456 0 1 -1 21.9936460563247 21.679414356764568 -0.2743243303049361 0 0 0
1452 0 2 1 25.26927235666254 21.34547642372132 -0.6550549187838322 0 0 0
9 0 2 1 2.5140434160169196 24.13827446851037 -0.8676715879447651 0 -1 0
13 0 1 -1 5.327884043528822 24.530148312421094 -0.6289720106277519 0 -1 0
393 0 2 1 10.831041186282961 22.51064338873321 -0.1822263568077116 0 -1 0
781 0 1 -1 18.248143791255238 24.920833299165732 -0.5293548191259447 0 -1 0
1161 0 3 1 22.953246470368114 24.258289376466447 -0.45464418843535803 0 -1 0
1165 0 1 -1 25.205729087266192 24.512635050571433 -0.8555964900262429 0 -1 0
10 0 2 1 2.378573100100962 2.0688189028819304 2.713133738610207 0 0 0
14 0 1 -1 5.704351944805993 1.9689391309538489 1.989173798444063 0 0 0
394 0 2 1 8.465500968024008 2.0683494221958463 1.8383626113827307 0 0 0
398 0 1 -1 11.319430796359933 2.7976545686781544 1.6103000779728158 0 0 0
395 0 2 1 12.090440879428195 0.15070989284685488 2.463549388204548 0 0 0
782 0 1 -1 18.692676795502926 2.6776745676505507 3.401849040097824 0 0 0
1162 0 2 1 22.36431663533515 2.101951411810599 2.746834504169069 0 0 0
1166 0 1 -1 25.00952142017269 2.362667485363983 2.7990628043299264 0 0 0
111 0 1 -1 2.653310158220014 5.102407979112601 2.013154375415716 0 0 0
107 0 2 1 5.9254037233937 5.16597230925918 1.7458385892083177 0 0 0
495 0 1 -1 8.806547234956401 4.833544062078651 3.367624525465377 0 0 0
491 0 3 1 10.403730214110121 3.205544444461096 4.335041780157458 0 0 0
881 0 2 1 13.050058335720438 5.10656990476765 3.249684029664671 0 0 0
778 0 3 1 16.59937012734494 3.5558978875175207 4.0315748759269034 0 0 0
879 0 1 -1 15.851411903442875 5.539681830130932 3.1451545145124733 0 0 0
875 0 2 1 19.041501152137165 5.415013420159586 2.2494884065842076 0 0 0
1263 0 1 -1 22.03227349056381 5.585841186726104 3.5690880101765226 0 0 0
1259 0 2 1 24.811775480941307 5.80668972047087 2.2496308570124732 0 0 0
106 0 3 1 1.3705385871233555 8.78081331306739 2.2926215612504395 0 0 0
120 0 1 -1 2.175504169221349 8.742745280539632 4.47356382598181 0 0 0
110 0 1 -1 6.068347106976352 8.08004611927675 2.2184729274005575 0 0 0
490 0 2 1 9.025864890327052 8.224465237411463 2.63027101828075 0 0 0
494 0 1 -1 12.22208637089315 7.789506258614097 3.294130722779463 0 0 0
874 0 2 1 15.741872486557318 8.96934454944125 2.452424460969528 0 0 0
878 0 1 -1 18.616875460134935 8.975924240185877 2.352276585954985 0 0 0
1258 0 2 1 21.60004315926694 8.588489913688777 2.513148930787528 0 0 0
1262 0 1 -1 24.8625898540218 8.996197541808176 2.180804302800034 0 0 0
207 0 1 -1 2.32878920035307 12.116754854144293 2.7680366901828437 0 0 0
203 0 2 1 5.521165862906945 11.021109009051298 2.6835003164723936 0 0 0
591 0 1 -1 8.814816066856697 11.61266854051728 2.4844215544054986 0 0 0
587 0 2 1 12.417022291749861 11.422097359968596 2.1978154635710263 0 0 0
975 0 1 -1 15.374579216028664 11.948852464469677 1.7446227910635037 0 0 0
971 0 2 1 18.76943192292319 11.980682648862567 2.007688073717508 0 0 0
1359 0 1 -1 21.79271831028565 11.731384902230914 2.413280857788963 0 0 0
1355 0 2 1 24.8239037613559 12.11003880268683 2.830803755772126 0 0 0
202 0 2 1 2.464439757513453 15.26305037972023 2.6049312635413973 0 0 0
683 0 3 1 9.603671269796429 13.715818849599682 2.513779820941351 0 0 0
590 0 1 -1 11.603156812418296 14.90247058125315 2.495822988119512 0 0 0
970 0 2 1 15.64443434696433 14.971876009910416 2.221192400381687 0 0 0
974 0 1 -1 18.593804737965293 15.455888832683208 2.793783501389923 0 0 0
1354 0 2 1 21.976903118105973 15.456950263922296 2.844069197140173 0 0 0
1358 0 1 -1 25.02928210771396 15.292084994849034 2.6698816012920865 0 0 0
303 0 1 -1 1.8992520526443921 18.053101877761748 3.9338908506534978 0 0 0
206 0 1 -1 5.336452444997101 16.138261633307398 2.6274370230183166 0 0 0
681 0 3 1 6.171858581294735 18.226135199398154 3.101448030726048 0 0 0
687 0 1 -1 8.477498570692596 18.389935236928757 2.537651330979366 0 0 0
684 0 2 1 11.586845021971621 17.964853182945575 2.5857596385085264 0 0 0
1071 0 1 -1 15.356204609996272 18.295998349542327 2.347175056035069 0 0 0
1067 0 2 1 18.90589567939918 18.712264504175142 2.589855991205451 0 0 0
1455 0 1 -1 22.18417066693059 18.30197942717382 2.3857328065207772 0 0 0
1451 0 3 1 24.511969626649588 17.98802615420809 2.223593133692308 0 0 0
298 0 2 1 2.276929581633528 21.018937695943627 2.4562421280198503 0 0 0
302 0 1 -1 6.168205039306591 21.36082384209159 2.577857541003243 0 0 0
682 0 3 1 8.577376212216643 21.05249020177037 3.1375321696795657 0 0 0
686 0 1 -1 11.264652672871014 21.02268065083549 2.615227593081049 0 0 0
1066 0 2 1 14.966610449025787 21.61910459254625 2.524444470700942 0 0 0
1070 0 1 -1 18.807258922045683 21.78899918525589 2.993358480581194 0 0 0
1450 0 2 1 21.94615985836397 21.386924189157718 3.071880809598496 0 0 0
1454 0 1 -1 25.18154552562401 20.89511132337444 2.5684146278963125 0 0 0
15 0 1 -1 2.573260688632305 24.139067541255443 2.8141993922568425 0 -1 0
11 0 2 1 6.172214056094041 24.289171631242557 2.255711808423581 0 -1 0
399 0 1 -1 9.167891844077753 24.273227336079124 1.858837981426126 0 -1 0
783 0 1 -1 15.196542689781976 24.49968164227932 2.3758588755131846 0 -1 0
779 0 2 1 18.578221046480948 25.016362000840598 2.5130278882223944 0 -1 0
1167 0 1 -1 22.14421576391947 24.578678549888853 1.9913050101989138 0 -1 0
1163 0 2 1 25.104533011211117 24.35372388147132 2.782539684152682 0 -1 0
24 0 1 -1 2.534571325760326 2.3549708271808987 5.653086955818208 0 0 0
20 0 2 1 5.412995610706102 2.3649760686961177 5.344960790683456 0 0 0
408 0 1 -1 8.72768807403171 1.772045916879231 5.348301637119162 0 0 0
405 0 1 -1 12.2802161082563 -0.27835474192147425 5.365640149971432 0 0 0
792 0 1 -1 15.568437399840269 2.274549090901863 6.120068465809181 0 0 0
404 0 3 1 13.189028826289396 1.9934033589028677 6.382534528803996 0 0 0
788 0 2 1 18.87592496147026 2.1986003984761395 6.400458986505779 0 0 0
1176 0 1 -1 21.89323888168962 2.0795874611807132 5.888617377476664 0 0 0
1172 0 2 1 24.990979590087484 2.1727177184728093 6.004161604382662 0 0 0
113 0 2 1 2.3207381082154153 5.621924833917117 5.544321443631176 0 0 0
117 0 1 -1 5.726649766431428 5.445971359956328 5.53172761428196 0 0 0
497 0 3 1 8.25029745627809 5.67130467324641 5.582733800119764 0 0 0
501 0 1 -1 12.267554216165 4.071946592844154 5.9653974746454175 0 0 0
885 0 1 -1 18.272948105846986 5.144968762844261 5.661918412855869 0 0 0
883 0 3 1 16.698351722950477 4.207320387088491 7.673633975101305 0 0 0
1265 0 3 1 22.017303294861968 4.496772603190545 5.771810054661637 0 0 0
1271 0 1 -1 21.528482604363447 5.4199161381397145 7.778545226659881 0 0 0
1269 0 1 -1 25.254796715507297 5.841063528219701 6.061797722220093 0 0 0
116 0 2 1 5.332720672558553 8.65192350253886 5.806568117260024 0 0 0
504 0 1 -1 8.421376792936254 8.172544446824812 5.470870330670765 0 0 0
884 0 2 1 18.47314419138911 8.231477204707183 5.37172222241779 0 0 0
1272 0 1 -1 21.69006278276518 9.078927774840073 6.010274022670328 0 0 0
1266 0 3 1 20.790882750669553 7.525393708942958 7.831646591673204 0 0 0
1268 0 2 1 24.732810259759532 8.654624925825239 5.631736209184046 0 0 0
209 0 2 1 2.225716452335172 11.780212670475194 5.534057303882827 0 0 0
213 0 1 -1 5.54534467902032 11.571032175199083 5.742550240089538 0 0 0
593 0 2 1 8.535035178513601 11.565264810455632 5.483672203293657 0 0 0
597 0 1 -1 12.073942707110294 11.489341297655997 5.583824371315002 0 0 0
500 0 3 1 12.914586896848386 9.320829234006089 5.56523186108272 0 0 0
888 0 1 -1 15.214189456531686 9.536266184966065 5.722448861720676 0 0 0
981 0 1 -1 18.05159654212568 11.83967623783712 5.594448230829987 0 0 0
977 0 3 1 15.947189564092783 12.226554862662342 6.25408513904865 0 0 0
1361 0 2 1 21.412648204494026 12.08481672436775 5.175775848682081 0 0 0
216 0 1 -1 3.043981534353816 15.028180707537452 5.806721628161745 0 0 0
212 0 2 1 5.917583378961463 14.741765617918604 5.864618532633403 0 0 0
600 0 1 -1 9.097730281679219 14.573587591470794 5.076153754187002 0 0 0
596 0 2 1 12.187808245026755 14.685208081487634 5.493059857310509 0 0 0
984 0 1 -1 15.392123912170545 14.602474333581942 5.549248505096711 0 0 0
980 0 2 1 18.60616100510498 15.254157820905196 5.830061111718197 0 0 0
1368 0 1 -1 21.897746717353556 15.114219325865363 5.996579108806576 0 0 0
1365 0 1 -1 24.836929899346742 12.628820982110282 5.623899875904557 0 0 0
1364 0 2 1 -0.16349978750624394 15.803839417509366 6.069321864556849 1 0 0
305 0 3 1 3.7210995175955235 17.07983163452167 5.334903609996371 0 0 0
309 0 1 -1 5.675832555672878 18.112929404639555 5.661376059224084 0 0 0
689 0 2 1 8.995441731020453 17.95951162597528 5.81691748093645 0 0 0
693 0 1 -1 11.835826181763364 18.258149604236696 5.917345553561792 0 0 0
1073 0 2 1 15.036128297979491 18.120994041298204 5.8294190691514105 0 0 0
1077 0 1 -1 18.144042301031263 18.18695712977511 5.824881319100639 0 0 0
1461 0 1 -1 24.488092342407406 18.621159929223566 6.19863362876886 0 0 0
312 0 1 -1 1.9868948899084975 21.400385663036193 5.783153008506634 0 0 0
1460 0 3 1 -0.06843361034998463 20.01336402854106 4.791420247292928 1 0 0
308 0 2 1 4.841762640202845 21.666155946994504 5.625070812332455 0 0 0
696 0 1 -1 8.361564527342649 21.344417937869473 5.233598806345084 0 0 0
692 0 2 1 12.091746509311124 21.485578018864096 5.885662263272348 0 0 0
1080 0 1 -1 15.014742093327957 21.746033819701633 5.879805398940883 0 0 0
1076 0 2 1 18.343518566576805 21.419281505873663 5.740605918834622 0 0 0
1464 0 1 -1 21.51308731518011 21.265823338535125 6.195602136485279 0 0 0
1457 0 3 1 22.579357067709886 19.457707903139127 6.9200267771088075 0 0 0
17 0 2 1 1.9331620235850338 24.54928175467297 6.060417762819742 0 -1 0
21 0 1 -1 5.6071152031305385 24.485812335573105 5.652235836074999 0 -1 0
401 0 2 1 9.008831654055433 24.25340921709109 5.8669701389801165 0 -1 0
785 0 2 1 15.223358787413037 24.686971543332284 5.427204274498072 0 -1 0
789 0 1 -1 18.59025387760616 24.756986545354415 5.787994101156359 0 -1 0
1169 0 2 1 21.971731513793344 24.573653829392708 6.109679587428861 0 -1 0
1173 0 1 -1 24.9075801682284 24.723555893613337 5.737820605629036 0 -1 0
23 0 1 -1 2.3283272687091525 -0.23140344457166842 9.281356708218 0 0 0
22 0 1 -1 5.415260529997242 2.2845869836531283 8.452855680911899 0 0 0
402 0 2 1 9.153334074186287 1.7565363961208567 8.762554594554533 0 0 0
406 0 1 -1 12.223177071027456 1.9635846568385 8.557396387472506 0 0 0
786 0 2 1 15.972925137930007 1.8926467394523159 9.417745135241665 0 0 0
1170 0 2 1 21.693123346497472 2.550235571252492 9.328094595690656 0 0 0
1174 0 1 -1 25.043990911967484 2.5415007098858924 8.857521736380416 0 0 0
18 0 2 1 2.5776399056835984 2.9323612905465026 9.088915045885441 0 0 0
119 0 1 -1 2.4652067181540267 5.956356852731207 8.618989578053927 0 0 0
115 0 2 1 5.785822928543303 5.2748517533091315 8.834371314012204 0 0 0
503 0 1 -1 9.110940305099511 5.108516742069913 8.955586164410276 0 0 0
499 0 2 1 12.147317041015567 5.371970713279053 8.810883338412255 0 0 0
887 0 1 -1 14.997242684002991 5.148319975953589 9.55383690810683 0 0 0
790 0 1 -1 18.352939530525333 3.456806285744879 8.87617451541069 0 0 0
1267 0 2 1 24.61872220225466 5.597489190809234 9.043313544976995 0 0 0
1270 0 1 -1 -0.0836047064854254 8.826865410417907 8.698186341165531 1 0 0
114 0 3 1 2.0447151825506977 8.16908104479297 9.558842162635115 0 0 0
118 0 1 -1 5.671901150475275 8.332984064953648 8.831067591324548 0 0 0
498 0 2 1 9.261722961854646 8.384100366097025 8.363926050216264 0 0 0
502 0 1 -1 12.479710702507747 8.46398759532879 8.87967867770675 0 0 0
882 0 2 1 15.96728357941606 8.381866195330261 8.871289977821665 0 0 0
886 0 1 -1 18.95299367480002 8.584872509469891 8.727092696093607 0 0 0
215 0 1 -1 2.478238340451687 11.83621860025062 9.02045279400571 0 0 0
217 0 3 1 2.3638566558360634 11.259663191578236 11.178339715389356 0 0 0
211 0 2 1 5.362503922666034 11.474536701058163 9.311835027588923 0 0 0
599 0 1 -1 8.396812423058044 11.182051209276212 8.450354107242969 0 0 0
595 0 2 1 11.743888441182557 11.706346218215385 8.515838878046587 0 0 0
983 0 1 -1 15.612981227550195 11.398323294982909 8.738622699499455 0 0 0
979 0 2 1 18.69078250110028 11.376043012215844 8.96776662274884 0 0 0
1367 0 1 -1 21.96902862274252 11.516024980483401 8.731792848347267 0 0 0
1363 0 2 1 24.979443914690478 11.752838771750737 9.030769948758515 0 0 0
1366 0 1 -1 -0.30899757234403774 14.809492336815834 9.063046950847754 1 0 0
210 0 2 1 2.8144292908113115 15.053069696161444 8.999238645238451 0 0 0
214 0 1 -1 6.016118275801484 14.812187371397009 8.747274738752548 0 0 0
594 0 2 1 9.108479044435962 14.685260555867494 9.318433445743132 0 0 0
598 0 1 -1 12.38970415231607 14.519114835790834 8.686341573146949 0 0 0
978 0 2 1 15.372583108557473 14.844867342317038 8.747985441862642 0 0 0
982 0 1 -1 18.99752661228203 14.689494465123735 9.178601615398822 0 0 0
1362 0 2 1 21.79743059517064 14.963819266519463 9.107012994007547 0 0 0
1459 0 2 1 -0.4322120114436529 17.961641443900678 9.241301490159994 1 0 0
311 0 1 -1 2.4239833258033108 18.283296894671313 8.35453541798125 0 0 0
307 0 2 1 5.3758887126452395 18.42198917101944 8.877583212289826 0 0 0
695 0 1 -1 8.893692479646024 17.927438030056926 8.939959071378913 0 0 0
691 0 2 1 11.995306653517279 17.913086584928315 9.321692197562019 0 0 0
1079 0 1 -1 15.734337309575652 17.86690735384171 8.65415597414703 0 0 0
1075 0 2 1 18.888003467176745 17.92859891984108 8.513699683922354 0 0 0
1463 0 1 -1 22.284240049273073 18.445219503391783 8.984414463870111 0 0 0
306 0 3 1 2.2037025719882744 20.460361576848634 8.171740902243274 0 0 0
1462 0 1 -1 0.049790943025953105 21.518094966461764 9.1392562185564 1 0 0
310 0 1 -1 4.536166390490925 21.664552635660204 8.834765787070696 0 0 0
694 0 1 -1 13.138467275915325 21.245931427447488 9.405682620216405 0 0 0
1078 0 1 -1 17.88584449892428 21.64444957696491 9.267243919817506 0 0 0
1458 0 2 1 20.909169292595443 21.935387229416442 9.36312506480667 0 0 0
316 0 3 1 2.404960181484865 23.00268781766307 9.742496556634084 0 0 0
19 0 2 1 5.44964326099773 25.01755015640465 9.03984288367748 0 -1 0
407 0 1 -1 8.31773683200358 24.494464375553918 8.726076157551285 0 -1 0
403 0 2 1 12.254210917284784 24.271899928888704 9.334520229062127 0 -1 0
1074 0 3 1 15.597132241364433 22.154496605876666 8.158892754228818 0 0 0
791 0 1 -1 15.293679311290846 24.487316739768538 8.86698422740802 0 -1 0
787 0 3 1 17.266070425520198 23.713501283920102 9.845279838075422 0 -1 0
1175 0 1 -1 22.091835944689265 24.985341716553513 9.166076396707195 0 -1 0
1171 0 2 1 24.99834715696052 24.594963197222334 8.816955063518018 0 -1 0
32 0 1 -1 3.010228728244844 1.9130601122038677 12.403403118459774 0 0 0
28 0 2 1 5.934781322462278 2.544963965950531 11.733003421426949 0 0 0
416 0 1 -1 9.339106522058362 2.2629264005693086 12.263487600760177 0 0 0
412 0 2 1 12.39241884346181 2.2933594590334616 11.796220473966013 0 0 0
793 0 3 1 14.447959325240648 0.58494355290094 13.45431455221009 0 0 0
800 0 1 -1 15.543291712337664 2.7735352273781433 12.444095241592223 0 0 0
1184 0 1 -1 21.78605330021302 2.8039790132071283 12.416944725192137 0 0 0
1180 0 2 1 25.34321415083233 2.2191405980504344 12.278103922707528 0 0 0
1277 0 1 -1 -0.1895984198682576 5.317244848965341 12.018301139753449 1 0 0
121 0 2 1 2.978121333367021 5.171251381096555 12.320331409348787 0 0 0
125 0 1 -1 5.734434830911239 5.382411462618773 11.8760139420703 0 0 0
505 0 2 1 8.88468650027434 5.593281212259155 11.996949334942869 0 0 0
509 0 1 -1 12.158262775588524 5.368979152200588 12.313516423678795 0 0 0
889 0 2 1 15.5982306146835 5.68352347756308 12.577540427966383 0 0 0
796 0 2 1 18.851585617630924 3.3201378042186036 12.066966054412609 0 0 0
893 0 1 -1 18.88144677320051 6.060901110927021 12.495344294876421 0 0 0
1273 0 2 1 22.0500045318839 5.7103461537291516 12.6179132361807 0 0 0
128 0 1 -1 2.7084912113572974 8.843522196775993 11.93566931210529 0 0 0
124 0 2 1 6.000608743965969 8.963685048152435 12.124513173968799 0 0 0
508 0 2 1 12.423588311437605 8.465700209321827 11.732115484621147 0 0 0
512 0 1 -1 9.529154005765228 9.024047475014573 12.26483649577307 0 0 0
896 0 1 -1 16.057025347390876 8.715759351328979 12.00462965359965 0 0 0
892 0 2 1 18.957641246003192 9.064411447754797 11.740586495980859 0 0 0
1280 0 1 -1 22.308106737054807 8.754316001518198 12.112339500813455 0 0 0
1276 0 2 1 25.124327832114226 8.85314166840654 11.672577523297605 0 0 0
1373 0 1 -1 -0.02160982709290299 11.997180786434804 11.783947754681392 1 0 0
221 0 1 -1 5.486930414208002 12.053499915543059 12.618159963669365 0 0 0
601 0 3 1 9.927190306288542 11.71654735549118 12.703147198075355 0 0 0
605 0 1 -1 12.076285095863424 11.487943835848995 12.029362754238086 0 0 0
985 0 2 1 15.995923338789856 11.872659102308852 12.34460263301306 0 0 0
989 0 1 -1 19.460213381430997 11.778833125972715 12.261164903856212 0 0 0
1369 0 2 1 22.166094531269124 12.04524576725255 12.019654352369086 0 0 0
1372 0 2 1 -0.1459584763380024 15.084416528140459 12.073989166127873 1 0 0
224 0 1 -1 2.9785946251703552 15.631879788604031 11.94581108444141 0 0 0
220 0 2 1 6.154820224514436 15.113592762421373 12.053903733972533 0 0 0
604 0 2 1 12.438644673569216 14.457002780643538 12.295268878419554 0 0 0
608 0 1 -1 9.272325213255499 14.570068026819872 12.221586227378026 0 0 0
992 0 1 -1 16.333714196654284 14.868045233150822 12.565004764571468 0 0 0
988 0 3 1 18.34461389927806 15.016878788351947 11.411968170344853 0 0 0
1376 0 1 -1 22.376307184946974 15.244520099800773 12.033944328435421 0 0 0
1469 0 1 -1 0.14422506215147735 18.65039891888126 12.090436723845732 1 0 0
317 0 1 -1 6.396235075673897 18.691429709458685 12.028841099699228 0 0 0
701 0 1 -1 12.341967162046828 17.777219978047434 12.439794021947623 0 0 0
697 0 2 1 9.52032779407583 18.286901649254297 12.068786716479051 0 0 0
1081 0 2 1 15.786641042657392 18.28388695239379 11.85173476189008 0 0 0
1085 0 1 -1 19.043849612021923 17.44041557332725 11.747281722455659 0 0 0
1465 0 2 1 22.109159175255634 18.4051774555998 12.195637961409442 0 0 0
313 0 2 1 3.142266671230582 19.006043795121524 12.13552397940771 0 0 0
690 0 2 1 6.445698021660042 21.825415808870144 11.780671962569366 0 0 0
704 0 1 -1 9.338201481715485 21.846354905224178 12.483126335531244 0 0 0
700 0 2 1 12.663805156058295 21.528676590072017 12.307224212699403 0 0 0
1088 0 1 -1 15.912631627973814 21.802262040674343 12.88156687497472 0 0 0
1472 0 1 -1 22.3574412673064 21.777788626755555 12.294321763326755 0 0 0
1468 0 2 1 25.23025730203795 21.818917446552565 12.034968249406822 0 0 0
320 0 1 -1 2.715275495905248 22.47740176372492 12.077329402778858 0 0 0
25 0 3 1 2.0857807926951417 25.145097949027836 12.635918919413895 0 -1 0
29 0 1 -1 6.31385255807253 24.980929267464525 12.468390862261604 0 -1 0
409 0 2 1 9.835946035141703 24.924547730857146 12.519649010062771 0 -1 0
413 0 1 -1 12.835593432344954 25.016586450341837 12.188812140451063 0 -1 0
797 0 1 -1 18.57621599751792 24.715883875816715 11.263375768273258 0 -1 0
1084 0 3 1 17.43572754008381 23.858690005389363 13.603744186020325 0 0 0
1177 0 2 1 21.61774928417627 24.727153819999184 12.287305817819545 0 -1 0
1181 0 1 -1 24.777117559791115 24.871177645932683 12.242900011158103 0 -1 0
26 0 2 1 3.1860476018095474 2.4904442697785396 15.558105914166259 0 0 0
30 0 1 -1 6.588035071840378 2.5827028495130877 15.17355194894575 0 0 0
411 0 3 1 13.00702285086054 0.08279463923527791 15.934529025356888 0 0 0
414 0 1 -1 13.5143342961133 2.1868006285249817 14.895556513712975 0 0 0
798 0 1 -1 18.49332206014852 2.6334488361684056 15.264511589698575 0 0 0
794 0 3 1 16.273772889580776 2.874045381924363 14.706947154428278 0 0 0
795 0 3 1 20.35223235690429 0.33796396938325046 15.876731070517138 0 0 0
1185 0 3 1 22.867870441474132 2.8736014683714797 15.93005177245228 0 0 0
1183 0 1 -1 22.378911819312123 0.045923956043214476 15.277386200209154 0 0 0
1275 0 2 1 -0.044426975323737294 5.774100007689136 15.674017018386294 1 0 0
127 0 1 -1 3.0085783098155314 5.598567585326064 15.543795565254776 0 0 0
410 0 3 1 8.97552299161945 3.0046713144494355 15.57737936864432 0 0 0
123 0 2 1 6.273819392142678 5.8419895425561625 15.241071831912784 0 0 0
511 0 1 -1 9.591357507959541 5.195667122794716 15.520588527557365 0 0 0
895 0 1 -1 15.624796795465892 5.283209712601267 15.698893612160518 0 0 0
507 0 2 1 12.88853394482245 5.298559031179251 15.796506048792534 0 0 0
1182 0 1 -1 25.327663157578378 3.009982587471233 15.685237759000042 0 0 0
1279 0 1 -1 22.36690042945102 5.695513007055982 15.859227155405435 0 0 0
1278 0 1 -1 -0.27954878035367375 9.13452223390051 15.136725523625064 1 0 0
122 0 2 1 2.82953124656034 9.077049346793357 14.918342109118218 0 0 0
126 0 1 -1 5.954534290629424 9.0392266940912 14.780455852834521 0 0 0
506 0 2 1 9.46938025999479 8.659595942145733 15.42161982540878 0 0 0
510 0 1 -1 12.528805657337514 8.527265898845823 15.427366091526519 0 0 0
890 0 2 1 15.980821482854195 8.39053269135466 15.082356421369894 0 0 0
894 0 1 -1 18.896233009220467 9.101410117403756 15.278825752230969 0 0 0
891 0 2 1 18.9378580341749 6.100836386699448 15.745734911637573 0 0 0
1274 0 2 1 22.577606493616067 8.911468274045271 15.363154715126615 0 0 0
1371 0 2 1 -0.4401508040215625 12.20201471195663 15.168007255254931 1 0 0
223 0 1 -1 2.9895490504246243 11.941810879756087 15.966713373464444 0 0 0
219 0 3 1 5.3572899336425275 12.429748576228244 14.775989399207504 0 0 0
607 0 1 -1 9.579564840495394 11.904711076259485 15.388483292764047 0 0 0
603 0 2 1 12.870136856908832 11.739553921201999 15.456295121985793 0 0 0
991 0 1 -1 16.008188043620024 11.67215830785109 15.342274091681222 0 0 0
987 0 3 1 19.038865686484407 11.830431925637114 14.69527274742767 0 0 0
1375 0 1 -1 22.192036249666835 12.159802656868353 15.023115479115724 0 0 0
1374 0 1 -1 0.13608175135720957 15.470452878615413 15.594560962323946 1 0 0
218 0 2 1 2.9919085125473033 15.645543716776169 14.945388268601974 0 0 0
222 0 1 -1 6.167719815264532 14.700788814036294 15.544577647723521 0 0 0
602 0 2 1 9.258092925167817 14.913374324590144 15.321441324222771 0 0 0
606 0 1 -1 12.481418848599132 14.799450780789371 15.388474058390127 0 0 0
1083 0 2 1 16.263732552328946 15.427080067774511 15.590456639343024 0 0 0
990 0 1 -1 19.1497873026415 13.82792148650284 16.017982168531525 0 0 0
1370 0 2 1 22.212959052912396 15.09907913425362 15.158045219114143 0 0 0
1467 0 2 1 0.14799574515046876 18.425935609131812 15.37211076751279 1 0 0
319 0 1 -1 3.4122101103328295 18.787605336368188 15.240993826366285 0 0 0
703 0 1 -1 9.317391074667817 18.101228987234858 15.171018091508827 0 0 0
699 0 2 1 12.746770280611207 18.128388962000525 15.503891040805797 0 0 0
1087 0 1 -1 15.83674128994184 18.69207660982823 15.186295782252714 0 0 0
1471 0 1 -1 22.67322638118086 18.56302524233602 15.477318213926214 0 0 0
1473 0 3 1 23.742931512904 17.97076175122637 17.538559771275278 0 0 0
1470 0 1 -1 -0.10973983564328016 21.493924346658257 15.618041659573297 1 0 0
314 0 2 1 3.1353208793678733 21.90161769060429 15.27892189123044 0 0 0
315 0 2 1 6.463079029105864 18.914567343997497 15.333575956143616 0 0 0
1082 0 3 1 15.64043514388655 21.0058577117146 14.891648944980034 0 0 0
702 0 1 -1 13.229347481263693 21.062047137516025 15.285903979528737 0 0 0
1089 0 3 1 17.181961430204012 19.343445066051355 17.288415111406632 0 0 0
1096 0 1 -1 16.519013370392344 21.687784559058006 17.483364472433937 0 0 0
1466 0 2 1 22.12303611634926 21.7247370085064 15.413691342118355 0 0 0
31 0 1 -1 2.5671299142782797 25.136154411290942 14.867451936930973 0 -1 0
318 0 1 -1 6.427854626017169 22.159798919510582 15.737392827486808 0 0 0
27 0 2 1 7.247899748595321 25.20448263906755 15.433196486446537 0 -1 0
698 0 2 1 10.034705487499226 22.05887741434401 15.701502363312905 0 0 0
415 0 1 -1 10.650892967091535 24.824489934044912 15.279951534624551 0 -1 0
799 0 1 -1 15.777366667796096 24.646621944103636 14.71339680354792 0 -1 0
801 0 2 1 16.285660391177856 24.832077642239675 17.617902906953223 0 -1 0
1086 0 1 -1 19.438011590946005 23.583190191818716 15.506250910620608 0 0 0
1179 0 2 1 25.243026529519 24.93917385768634 15.27361986673559 0 -1 0
40 0 1 -1 2.9266547237854685 2.575494825344416 19.1795292128588 0 0 0
36 0 2 1 6.441195164713059 2.502979025022566 18.418770051142857 0 0 0
424 0 1 -1 9.494253329859973 2.670719445359366 17.99714141333399 0 0 0
417 0 2 1 9.546162773326376 -0.16017629206534675 19.059939720980847 0 0 0
420 0 2 1 12.908198543820555 2.409541850325105 18.761633523481112 0 0 0
808 0 1 -1 15.90659956818583 2.876184893266724 19.29168869250855 0 0 0
1192 0 1 -1 22.111948456019107 2.394428141721167 18.32181369713214 0 0 0
805 0 1 -1 20.118685910294616 -0.15485540581216709 18.671484140892574 0 0 0
1188 0 2 1 25.265397514732115 2.4197275102366875 19.056696624859114 0 0 0
1178 0 3 1 22.511268669836305 -0.24623676650203663 18.876289102978184 0 0 0
129 0 2 1 3.1702127246178087 5.951660431243161 18.750801493294503 0 0 0
133 0 1 -1 6.308167014724004 5.755004335923844 18.204638702649717 0 0 0
513 0 2 1 9.495113789584735 5.750268600345008 18.86238350250435 0 0 0
517 0 1 -1 12.8299949917243 5.477520521315493 18.948465619174023 0 0 0
897 0 3 1 15.444374675398025 5.994151815236156 19.06495762296 0 0 0
804 0 2 1 18.962671947010158 2.891704705149789 18.446500035477285 0 0 0
901 0 1 -1 19.040420898073087 5.8817638208589145 18.820832612950895 0 0 0
1285 0 1 -1 25.371227549313264 6.033390296005861 18.96964028638497 0 0 0
1284 0 2 1 -0.19804512603480734 9.226009213242836 18.434774126942013 1 0 0
136 0 1 -1 2.6459040849768383 8.820555223842721 18.317780853203033 0 0 0
132 0 2 1 5.749333474738883 8.918517761271017 17.971605527010396 0 0 0
520 0 1 -1 8.917691783037718 8.936290298857953 18.68216368885917 0 0 0