LAMMPS (29 Sep 2021 - Update 3)
OMP_NUM_THREADS environment is not set. Defaulting to 1 thread. (src/comm.cpp:98)
  using 1 OpenMP thread(s) per MPI task
units	metal
atom_style	full

read_data	mixed.data
Reading data file ...
  orthogonal box = (0.0000000 0.0000000 0.0000000) to (15.613400 15.650667 60.676648)
  2 by 2 by 4 MPI processor grid
  reading atoms ...
  864 atoms
Finding 1-2 1-3 1-4 neighbors ...
  special bond factors lj:    0        0        0       
  special bond factors coul:  0        0        0       
     0 = max # of 1-2 neighbors
     0 = max # of 1-3 neighbors
     0 = max # of 1-4 neighbors
     1 = max # of special neighbors
  special bonds CPU = 0.001 seconds
  read_data CPU = 0.008 seconds

pair_style	quip
pair_coeff	* * /ocean/projects/cts180021p/wuziqi/clease/mint-PD/PhaseDiagram-Clease/Liquid/GAP_potential/gap_LiKCl.xml "Potential xml_label=GAP_2021_9_27_0_1_17_37_618" 17 19

neighbor	0.3 bin
neigh_modify	delay 10

timestep	0.001
compute	msd all msd
thermo_style	custom step temp pe etotal press vol c_msd[4]
thermo	10
dump	1 all custom 10 xyz-mix.dump type id x y z
dump	2 all custom 10 force-mix.dump type id fx fy fz

fix     1 all nve
run     2000
Neighbor list info ...
  update every 1 steps, delay 10 steps, check yes
  max neighbors/atom: 2000, page size: 100000
  master list distance cutoff = 6.22
  ghost atom cutoff = 6.22
  binsize = 3.11, bins = 6 6 20
  1 neighbor lists, perpetual/occasional/extra = 1 0 0
  (1) pair quip, perpetual
      attributes: full, newton on
      pair build: full/bin
      stencil: full/bin/3d
      bin: standard
Per MPI rank memory allocation (min/avg/max) = 8.889 | 8.898 | 8.908 Mbytes
Step Temp PotEng TotEng Press Volume c_msd[4] 
       0            0    -9417.799    -9417.799   -30975.102    14826.953            0 
      10    165.55627   -9436.2929   -9417.8248   -35808.397    14826.953 0.00030948002 
      20    378.45436   -9460.0599   -9417.8428   -42850.796    14826.953 0.0037274276 
      30    405.69294   -9463.0843   -9417.8287   -44302.105    14826.953  0.012463481 
      40    392.02077   -9461.5541   -9417.8236   -44279.401    14826.953  0.024415468 
      50    417.08826   -9464.3564   -9417.8296    -45973.39    14826.953  0.036982033 
      60    420.75535   -9464.7647   -9417.8288    -47753.74    14826.953  0.049634467 
      70     407.9112   -9463.3278   -9417.8247   -49652.187    14826.953  0.062755472 
      80    419.12468   -9464.5812   -9417.8272   -52906.106    14826.953   0.07687559 
      90    432.06858   -9466.0257   -9417.8278   -56644.554    14826.953  0.092516529 
     100    437.07358   -9466.5845   -9417.8283    -59457.96    14826.953   0.10938904 
     110    434.54866   -9466.3021   -9417.8275   -61104.413    14826.953   0.12652542 
     120    434.14482   -9466.2568   -9417.8273   -62154.885    14826.953    0.1431545 
     130      439.361   -9466.8391   -9417.8277   -63630.197    14826.953   0.15919619 
     140    446.51909   -9467.6387   -9417.8289   -65558.428    14826.953   0.17463459 
     150    447.02916   -9467.6951   -9417.8283   -67360.122    14826.953   0.18924565 
     160    445.88924   -9467.5675   -9417.8279   -69292.957    14826.953   0.20295995 
     170    449.26197   -9467.9437   -9417.8279   -71767.875    14826.953   0.21606234 
     180    456.11765   -9468.7096    -9417.829   -74290.183    14826.953   0.22912636 
     190    454.43711   -9468.5223   -9417.8292    -76612.29    14826.953   0.24280842 
     200    446.62774    -9467.649    -9417.827   -78739.398    14826.953   0.25734039 
     210    454.33781   -9468.5105   -9417.8284   -80806.826    14826.953    0.2725174 
     220    466.39184   -9469.8552   -9417.8285   -82316.213    14826.953   0.28796461 
     230    478.52262   -9471.2093   -9417.8294   -82954.729    14826.953   0.30306018 
     240    481.66435   -9471.5594    -9417.829   -83195.523    14826.953   0.31749982 
     250    481.45071   -9471.5331   -9417.8266    -83193.07    14826.953   0.33144361 
     260    501.18304   -9473.7372   -9417.8295   -82982.381    14826.953   0.34536204 
     270    513.25195   -9475.0851   -9417.8311   -82417.815    14826.953   0.35987885 
     280    501.57666   -9473.7806    -9417.829   -81721.808    14826.953   0.37471171 
     290    492.47305   -9472.7646   -9417.8285   -81146.258    14826.953   0.38855622 
     300    495.01951   -9473.0493   -9417.8292   -80485.485    14826.953   0.40074053 
     310    503.02213   -9473.9419    -9417.829   -79975.837    14826.953   0.41197537 
     320    517.02716   -9475.5049   -9417.8298    -80100.53    14826.953   0.42312641 
     330    528.24549   -9476.7573   -9417.8307   -80345.683    14826.953   0.43452756 
     340    527.46021   -9476.6689   -9417.8299   -79908.329    14826.953   0.44600697 
     350    525.40472   -9476.4395   -9417.8298   -79635.847    14826.953   0.45751829 
     360    526.17025   -9476.5255   -9417.8304   -79296.551    14826.953    0.4690149 
     370    526.91272   -9476.6086   -9417.8307   -78934.771    14826.953   0.47994193 
     380    523.77443   -9476.2591   -9417.8312    -78349.26    14826.953    0.4899244 
     390    515.97368   -9475.3874   -9417.8298   -77628.832    14826.953   0.49901453 
     400    520.05492    -9475.843   -9417.8301   -77188.099    14826.953   0.50752529 
     410    532.56265   -9477.2391    -9417.831   -76589.953    14826.953   0.51614865 
     420    540.25226   -9478.0982   -9417.8322   -75877.581    14826.953   0.52551418 
     430    530.99756   -9477.0645   -9417.8309   -74960.344    14826.953   0.53577624 
     440    520.22454   -9475.8617   -9417.8299   -74047.729    14826.953   0.54643624 
     450    524.10068   -9476.2951   -9417.8308    -73298.66    14826.953   0.55673143 
     460    534.09515   -9477.4108   -9417.8316   -72760.738    14826.953   0.56614172 
     470    540.77118   -9478.1556   -9417.8317   -72524.651    14826.953   0.57446846 
     480    541.24645   -9478.2098    -9417.833   -72632.257    14826.953   0.58202651 
     490    525.98312   -9476.5055   -9417.8313   -72557.778    14826.953   0.58956581 
     500    519.29389   -9475.7579   -9417.8299   -72672.134    14826.953   0.59738896 
     510    536.84993   -9477.7197   -9417.8332   -73590.734    14826.953   0.60540983 
     520    541.07469   -9478.1913   -9417.8336   -74459.431    14826.953   0.61314596 
     530    525.46621    -9476.448   -9417.8314     -75250.3    14826.953   0.61964842 
     540    517.81909   -9475.5943   -9417.8308   -76615.008    14826.953   0.62442657 
     550    530.74801   -9477.0373   -9417.8316   -78518.677    14826.953   0.62810042 
     560    549.85385   -9479.1718   -9417.8347   -80253.367    14826.953   0.63196072 
     570    545.69369   -9478.7044   -9417.8314    -81117.21    14826.953   0.63700617 
     580    550.79507   -9479.2735   -9417.8315   -82215.551    14826.953   0.64324602 
     590    565.64388   -9480.9333   -9417.8349   -83714.176    14826.953   0.65037812 
     600    553.97462   -9479.6301   -9417.8334   -84197.142    14826.953   0.65818616 
     610    534.68082   -9477.4754   -9417.8309    -84240.65    14826.953   0.66624572 
     620    539.88467    -9478.057    -9417.832   -85068.031    14826.953   0.67443063 
     630    557.34145   -9480.0068   -9417.8345   -86385.256    14826.953   0.68307389 
     640    561.99273   -9480.5241    -9417.833   -87221.521    14826.953   0.69206136 
     650    566.38107   -9481.0145   -9417.8338   -87655.782    14826.953   0.70036908 
     660    568.86956   -9481.2918   -9417.8335    -87740.11    14826.953   0.70722977 
     670    575.19383   -9481.9963   -9417.8326   -87866.365    14826.953   0.71303183 
     680    595.54742   -9484.2684   -9417.8342   -88404.913    14826.953   0.71947662 
     690    609.98222   -9485.8807   -9417.8363   -88729.686    14826.953    0.7286457 
     700    596.15452   -9484.3367   -9417.8348   -87868.063    14826.953   0.74132924 
     710     573.7335   -9481.8333   -9417.8324   -86258.222    14826.953   0.75645284 
     720    573.70821   -9481.8317   -9417.8337   -84983.366    14826.953   0.77238493 
     730     586.6623   -9483.2786   -9417.8355   -84422.122    14826.953   0.78843572 
     740    590.84846   -9483.7457   -9417.8357   -83666.343    14826.953   0.80463072 
     750    583.49524   -9482.9245   -9417.8347    -82343.99    14826.953   0.82074782 
     760    583.95649   -9482.9744   -9417.8332   -81187.395    14826.953   0.83649385 
     770    604.11555   -9485.2273   -9417.8373   -80598.713    14826.953   0.85208187 
     780    602.14592   -9485.0071   -9417.8368   -79807.857    14826.953   0.86786713 
     790    583.15212   -9482.8843   -9417.8328   -79182.757    14826.953   0.88337328 
     800    591.98235   -9483.8727   -9417.8362    -79217.67    14826.953   0.89779065 
     810     593.6376   -9484.0604   -9417.8392   -78586.479    14826.953   0.91096518 
     820    564.19404    -9480.769   -9417.8323   -76887.536    14826.953   0.92230305 
     830    578.29071   -9482.3435   -9417.8343    -76070.66    14826.953   0.93079609 
     840    620.21177   -9487.0247   -9417.8391   -76615.231    14826.953   0.93735222 
     850    635.72143   -9488.7531   -9417.8374   -76706.283    14826.953   0.94395854 
     860    638.46305   -9489.0584   -9417.8369   -76335.754    14826.953    0.9515297 
     870    639.16227   -9489.1369   -9417.8374   -76423.443    14826.953   0.96015894 
     880    632.78052   -9488.4255   -9417.8379    -76496.29    14826.953   0.96986761 
     890    619.52962   -9486.9443   -9417.8348   -76440.217    14826.953   0.98065907 
     900    631.58349   -9488.2902   -9417.8361   -77290.162    14826.953   0.99283193 
     910    659.71446   -9491.4297   -9417.8375   -78626.622    14826.953    1.0074175 
     920    682.68232   -9493.9925   -9417.8382   -79649.341    14826.953     1.025539 
     930    692.81423   -9495.1224   -9417.8379   -80089.571    14826.953    1.0472636 
     940    693.68664   -9495.2193   -9417.8375   -80244.074    14826.953    1.0718362 
     950     697.6853   -9495.6642   -9417.8364   -80549.347    14826.953    1.0985217 
     960    720.55047   -9498.2165    -9417.838   -81100.976    14826.953    1.1269795 
     970    736.50661   -9500.0011   -9417.8427   -81178.831    14826.953    1.1574498 
     980    709.64481   -9496.9987   -9417.8368   -80198.822    14826.953    1.1900413 
     990    699.67715   -9495.8872   -9417.8372   -80141.397    14826.953    1.2238706 
    1000    721.55559   -9498.3287    -9417.838   -81850.645    14826.953    1.2577136 
    1010    753.07988   -9501.8503   -9417.8431   -83180.243    14826.953    1.2911781 
    1020      745.493   -9501.0009   -9417.8401   -82863.976    14826.953    1.3253393 
    1030    733.65366   -9499.6762    -9417.836   -82639.661    14826.953    1.3609259 
    1040    758.67379   -9502.4737   -9417.8425   -83602.278    14826.953     1.397925 
    1050    756.83368   -9502.2682   -9417.8422   -83730.377    14826.953    1.4364633 
    1060    728.60541   -9499.1145   -9417.8375   -82787.476    14826.953    1.4761865 
    1070    732.87934   -9499.5908    -9417.837   -82732.658    14826.953    1.5166131 
    1080    772.96075   -9504.0683   -9417.8434   -84026.785    14826.953     1.557623 
    1090    781.69039   -9505.0406   -9417.8419   -84442.056    14826.953    1.5996324 
    1100    771.56221   -9503.9052   -9417.8363   -84299.214    14826.953    1.6430538 
    1110    801.54413   -9507.2546   -9417.8412   -84972.703    14826.953    1.6886146 
    1120    823.54281   -9509.7109   -9417.8435   -85496.656    14826.953    1.7387343 
    1130     822.5412   -9509.5935   -9417.8378   -84712.521    14826.953    1.7953724 
    1140    852.09877   -9512.8966   -9417.8437   -84635.582    14826.953    1.8578542 
    1150    856.32238   -9513.3687   -9417.8447   -83808.928    14826.953    1.9247272 
    1160    829.16843   -9510.3332   -9417.8382   -82252.194    14826.953    1.9939774 
    1170    841.50467   -9511.7132   -9417.8421   -82218.858    14826.953    2.0635991 
    1180    862.29463   -9514.0344   -9417.8441    -82731.26    14826.953    2.1335867 
    1190    866.74056   -9514.5296   -9417.8434   -81686.997    14826.953    2.2053203 
    1200       872.69    -9515.192   -9417.8421   -80417.058    14826.953    2.2796571 
    1210    894.17681   -9517.5923   -9417.8456   -80254.886    14826.953    2.3566684 
    1220    898.69177    -9518.094   -9417.8436   -80269.089    14826.953    2.4365388 
    1230    902.65555   -9518.5356   -9417.8431   -79919.279    14826.953     2.518764 
    1240    911.76859   -9519.5544   -9417.8452   -78985.613    14826.953    2.6023137 
    1250    918.59896   -9520.3146   -9417.8435   -76973.171    14826.953    2.6875029 
    1260    941.81665   -9522.9069   -9417.8458   -75160.665    14826.953    2.7758222 
    1270     961.5063   -9525.1039   -9417.8464   -73045.867    14826.953    2.8682405 
    1280    975.25968   -9526.6366   -9417.8449   -70472.054    14826.953    2.9648404 
    1290    1001.7621   -9529.5952   -9417.8471   -69578.057    14826.953    3.0655448 
    1300    1017.6288   -9531.3669   -9417.8489   -68777.285    14826.953    3.1701834 
    1310     1014.471   -9531.0095   -9417.8438   -66497.248    14826.953    3.2777376 
    1320    1037.6476   -9533.6011     -9417.85   -64366.582    14826.953    3.3877913 
    1330    1036.1698   -9533.4336   -9417.8473   -62062.663    14826.953    3.5023518 
    1340    1033.7099   -9533.1571   -9417.8452   -59413.385    14826.953    3.6220509 
    1350    1054.8214   -9535.5189   -9417.8519   -57213.004    14826.953    3.7454243 
    1360    1037.5641   -9533.5912   -9417.8494   -54687.928    14826.953    3.8711956 
    1370    1024.3347   -9532.1105   -9417.8444   -51863.642    14826.953    3.9979351 
    1380    1062.9789   -9536.4316   -9417.8547   -49837.894    14826.953    4.1246204 
    1390    1057.5859    -9535.828   -9417.8527   -47126.721    14826.953    4.2515344 
    1400    1031.7037   -9532.9346   -9417.8465   -44628.045    14826.953    4.3784738 
    1410    1045.5289   -9534.4845   -9417.8542   -43213.649    14826.953    4.5048283 
    1420    1036.1371   -9533.4348   -9417.8521   -40686.938    14826.953    4.6299533 
    1430    1013.3873   -9530.8963   -9417.8514   -37037.959    14826.953    4.7524242 
    1440    1009.9024   -9530.5043   -9417.8482   -34353.771    14826.953    4.8714929 
    1450      1045.07    -9534.436   -9417.8569   -32718.717    14826.953     4.987903 
    1460     1044.846   -9534.4069   -9417.8527   -30915.035    14826.953    5.1042348 
    1470    1040.0569   -9533.8734   -9417.8535   -30330.474    14826.953    5.2222883 
    1480    1033.2322   -9533.1134   -9417.8548   -30604.537    14826.953    5.3412471 
    1490    1017.9278   -9531.4016   -9417.8502   -29807.511    14826.953    5.4578543 
    1500    1040.2213   -9533.8955   -9417.8572   -28131.475    14826.953    5.5684253 
    1510    1039.3849   -9533.8003   -9417.8554   -25914.416    14826.953    5.6718067 
    1520    1029.0609   -9532.6473    -9417.854   -24594.464    14826.953    5.7682644 
    1530    1031.5004   -9532.9233   -9417.8579   -24254.573    14826.953    5.8578573 
    1540    1019.0107   -9531.5253   -9417.8532   -23531.216    14826.953    5.9413335 
    1550    1035.4455    -9533.363   -9417.8575   -23504.541    14826.953    6.0203438 
    1560    1050.1303   -9535.0005   -9417.8569    -23102.24    14826.953    6.0964063 
    1570     1053.806   -9535.4108   -9417.8571   -22678.296    14826.953    6.1693718 
    1580     1061.119   -9536.2243   -9417.8549   -21883.077    14826.953     6.236789 
    1590    1088.5999   -9539.2973   -9417.8624   -21917.761    14826.953    6.2959336 
    1600      1067.89   -9536.9845   -9417.8598   -22163.429    14826.953    6.3467449 
    1610    1035.4961   -9533.3641    -9417.853   -23136.244    14826.953    6.3901828 
    1620    1056.7784   -9535.7458   -9417.8606   -24690.284    14826.953    6.4275988 
    1630    1066.5554   -9536.8339   -9417.8581   -25692.824    14826.953    6.4607565 
    1640    1082.2069   -9538.5786   -9417.8568   -26490.679    14826.953    6.4897954 
    1650    1116.1576   -9542.3698   -9417.8608   -28025.498    14826.953    6.5134721 
    1660    1130.4022   -9543.9576   -9417.8596   -28776.295    14826.953    6.5310838 
    1670    1144.7697   -9545.5608     -9417.86   -30173.707    14826.953    6.5431878 
    1680    1161.8103    -9547.465   -9417.8633   -32505.604    14826.953    6.5523479 
    1690    1144.3333   -9545.5114   -9417.8593    -33279.31    14826.953    6.5616337 
    1700    1136.3544   -9544.6191    -9417.857   -33690.837    14826.953    6.5724324 
    1710    1176.6035   -9549.1142   -9417.8623   -37361.619    14826.953    6.5842075 
    1720    1198.4999   -9551.5635   -9417.8691   -40786.714    14826.953    6.5951801 
    1730    1154.0225   -9546.5909    -9417.858    -41380.84    14826.953    6.6025599 
    1740    1162.4697   -9547.5365   -9417.8612   -42122.661    14826.953    6.6035206 
    1750    1217.5958   -9553.6894   -9417.8648   -44095.184    14826.953    6.5987402 
    1760    1258.0248   -9558.2033   -9417.8687   -46540.118    14826.953     6.591658 
    1770    1236.8678   -9555.8357   -9417.8612   -48451.256    14826.953    6.5846594 
    1780    1229.6407   -9555.0271   -9417.8588   -50743.073    14826.953    6.5769021 
    1790    1262.7885   -9558.7348   -9417.8689   -53292.589    14826.953    6.5687005 
    1800    1252.0625   -9557.5318   -9417.8623   -54893.743    14826.953    6.5624205 
    1810    1246.8613   -9556.9532   -9417.8639   -56632.643    14826.953    6.5581611 
    1820    1242.3945   -9556.4566   -9417.8657   -58535.832    14826.953    6.5543941 
    1830    1221.3702    -9554.109   -9417.8634   -60009.412    14826.953    6.5499057 
    1840    1212.9357   -9553.1643   -9417.8595   -61556.573    14826.953    6.5428348 
    1850    1263.9969   -9558.8674   -9417.8667   -65435.852    14826.953    6.5324408 
    1860    1285.5884   -9561.2846   -9417.8753    -68660.14    14826.953    6.5212296 
    1870    1214.4221   -9553.3281   -9417.8575   -67913.202    14826.953    6.5108613 
    1880    1240.7292   -9556.2712    -9417.866   -69208.737    14826.953    6.4995978 
    1890    1270.4483   -9559.6022   -9417.8818   -71282.098    14826.953    6.4880409 
    1900    1157.8079   -9547.0093   -9417.8541   -70763.972    14826.953    6.4774151 
    1910     1166.235     -9547.96   -9417.8648   -72850.327    14826.953    6.4654768 
    1920    1214.5736   -9553.3625    -9417.875   -76494.653    14826.953    6.4516584 
    1930    1182.0419   -9549.7195   -9417.8609   -76455.664    14826.953    6.4355978 
    1940    1204.4023   -9552.2203   -9417.8674   -75958.225    14826.953    6.4157942 
    1950    1226.3694   -9554.6747   -9417.8713   -74838.153    14826.953    6.3937969 
    1960    1204.4092   -9552.2146   -9417.8609   -73367.437    14826.953    6.3721901 
    1970    1239.3277   -9556.1157   -9417.8668   -73666.391    14826.953    6.3514773 
    1980    1264.3958   -9558.9153     -9417.87   -74700.467    14826.953    6.3312291 
    1990     1229.627   -9555.0308    -9417.864   -74940.507    14826.953    6.3107868 
    2000    1194.8681   -9551.1533   -9417.8639   -75555.459    14826.953    6.2895403 
Loop time of 1669.82 on 16 procs for 2000 steps with 864 atoms

Performance: 0.103 ns/day, 231.919 hours/ns, 1.198 timesteps/s
95.3% CPU use with 16 MPI tasks x 1 OpenMP threads

MPI task timing breakdown:
Section |  min time  |  avg time  |  max time  |%varavg| %total
---------------------------------------------------------------
Pair    | 1224.4     | 1386.8     | 1626.3     | 339.0 | 83.05
Bond    | 0.00016856 | 0.00049283 | 0.0011001  |   0.0 |  0.00
Neigh   | 0.025619   | 0.032564   | 0.043417   |   3.4 |  0.00
Comm    | 42.785     | 279.03     | 443.55     | 745.6 | 16.71
Output  | 0.48936    | 1.9934     | 6.0174     | 164.8 |  0.12
Modify  | 0.0093045  | 0.010807   | 0.011886   |   0.8 |  0.00
Other   |            | 1.93       |            |       |  0.12

Nlocal:        54.0000 ave          65 max          37 min
Histogram: 1 0 3 1 3 0 0 0 4 4
Nghost:        616.312 ave         727 max         487 min
Histogram: 4 3 1 0 0 0 0 0 0 8
Neighs:         0.00000 ave           0 max           0 min
Histogram: 16 0 0 0 0 0 0 0 0 0
FullNghs:      3255.38 ave        4280 max        2032 min
Histogram: 1 3 4 0 0 0 0 0 3 5

Total # of neighbors = 52086
Ave neighs/atom = 60.284722
Ave special neighs/atom = 0.0000000
Neighbor list builds = 199
Dangerous builds = 198
unfix   1

velocity    all create 975.0 1312343 dist gaussian
fix     2 all npt temp 975.0 975.0 $(100.0*dt) aniso 0.0 1.01325 $(1000.0*dt)
fix     2 all npt temp 975.0 975.0 0.10000000000000000555 aniso 0.0 1.01325 $(1000.0*dt)
fix     2 all npt temp 975.0 975.0 0.10000000000000000555 aniso 0.0 1.01325 1
run     3000
Per MPI rank memory allocation (min/avg/max) = 8.898 | 8.906 | 8.912 Mbytes
Step Temp PotEng TotEng Press Volume c_msd[4] 
    2000          975   -9551.1533   -9442.3906    -77322.33    14826.953    6.2895403 
    2010    1015.0495   -9556.9562   -9443.7259   -76066.808    14805.169    6.2720056 
    2020    1076.6398   -9567.7021   -9447.6013   -70103.433    14740.905    6.2299181 
    2030    1061.2927    -9571.592   -9453.2032   -57446.536    14639.021    6.1718953 
    2040    1113.7283   -9583.5567   -9459.3187   -44094.718    14509.531    6.1081966 
    2050    1174.5075   -9596.1621    -9465.144   -30481.959    14365.158    6.0481382 
    2060    1169.3982   -9600.4577   -9470.0096   -14527.035    14219.669    5.9986223 
    2070    1182.3726   -9605.4709   -9473.5755    680.24579    14086.203    5.9656753 
    2080    1207.0626   -9610.7318   -9476.0821    13334.321    13973.912    5.9551538 
    2090    1195.7751   -9611.1529   -9477.7623    23397.217    13886.859    5.9697714 
    2100    1206.1543   -9613.5621   -9479.0137    28667.145    13825.259    6.0075886 
    2110    1222.8709   -9616.7832   -9480.3701    30175.767    13786.588    6.0640721 
    2120     1198.393   -9615.6781   -9481.9956    30282.569     13767.34    6.1337449 
    2130    1180.0257   -9615.4577   -9483.8241    26943.287    13764.321    6.2110209 
    2140    1198.2356   -9619.5512   -9485.8862    20499.302    13773.918    6.2933226 
    2150    1179.0577   -9619.6286   -9488.1029    14331.902    13792.081     6.378926 
    2160    1113.0867    -9614.405   -9490.2385    10136.004    13815.499     6.461657 
    2170    1106.8131   -9615.6333   -9492.1666     4589.392    13841.841    6.5345257 
    2180    1161.3649   -9623.5998   -9494.0478   -2549.3412    13868.455    6.5933254 
    2190    1153.1921   -9624.6338   -9495.9935   -8101.3778    13892.213    6.6358252 
    2200    1113.3429   -9622.1326   -9497.9375   -11279.791    13910.753    6.6608012 
    2210    1115.7534   -9624.3385   -9499.8745   -14061.912     13922.81    6.6681184 
    2220    1137.4813   -9628.8027    -9501.915    -17995.65    13927.327    6.6586022 
    2230    1122.1612   -9629.2824   -9504.1037   -20713.571    13922.905    6.6316834 
    2240    1122.6751   -9631.6602   -9506.4241   -21837.055    13908.672    6.5863765 
    2250     1139.341   -9636.0195   -9508.9243   -22349.653    13884.517    6.5238567 
    2260     1146.902   -9639.5479   -9511.6092    -21805.79    13850.727    6.4463805 
    2270    1169.3662   -9644.9476    -9514.503   -19636.525    13808.101    6.3568236 
    2280    1133.4853   -9643.8211   -9517.3791   -13454.032    13758.442     6.260195 
    2290    1145.2529   -9647.7835   -9520.0288   -8684.3252    13705.014    6.1633619 
    2300    1185.0068   -9654.8448   -9522.6555    -5901.081     13650.48    6.0725998 
    2310    1169.3406   -9655.7005   -9525.2588   -1780.1657    13596.584    5.9917553 
    2320    1183.8636    -9659.847   -9527.7852    2676.3486    13545.318    5.9227254 
    2330    1196.7317   -9663.8207   -9530.3235    5905.1502    13498.627    5.8673072 
    2340    1203.5871   -9667.1676   -9532.9056    7217.2426    13457.744    5.8247244 
    2350    1265.2337   -9676.8183   -9535.6796    5777.2267    13422.848    5.7915281 
    2360    1305.0612    -9684.431   -9538.8494    4663.4496        13393    5.7660907 
    2370    1250.0477   -9681.5755   -9542.1308    5279.8783    13367.384    5.7489484 
    2380    1257.3612   -9685.5422   -9545.2817    4477.3015    13345.846    5.7387781 
    2390    1317.6501   -9695.5958   -9548.6099    3183.3952    13327.736    5.7331139 
    2400    1326.0686     -9700.07    -9552.145    5438.3514    13312.431    5.7302803 
    2410    1406.8476   -9712.9239   -9555.9879    5016.8733    13300.428    5.7318073 
    2420    1416.4399   -9718.2708   -9560.2648     4177.484    13291.426    5.7433009 
    2430    1333.4465   -9713.2651   -9564.5171    4178.1995    13284.902    5.7679923 
    2440    1303.7199   -9713.9396   -9568.5077    94.164708    13280.446    5.8033176 
    2450    1323.6207   -9720.1143   -9572.4624   -4864.2473    13276.258    5.8438848 
    2460    1308.0682   -9722.4061   -9576.4892    -6188.059    13270.312    5.8847599 
    2470    1305.2176   -9726.1089   -9580.5099   -7786.2523    13261.942    5.9226946 
    2480    1317.1163   -9731.5656   -9584.6393   -9522.6036    13250.629    5.9560079 
    2490    1291.6924   -9732.8928   -9588.8025   -8860.5685    13235.897    5.9829297 
    2500    1284.7633   -9736.2242   -9592.9069   -7820.8866    13218.132    6.0030841 
    2510    1298.4264   -9741.8698   -9597.0284   -6981.7355    13197.953    6.0179708 
    2520    1272.8387   -9743.0876   -9601.1005   -3926.0152    13175.989    6.0279519 
    2530    1279.7313   -9747.8112   -9605.0552   -282.77828     13153.61    6.0330269 
    2540    1315.9535   -9755.8858   -9609.0892    1998.7036    13132.343    6.0342326 
    2550    1342.7555    -9763.112   -9613.3256    3191.4056    13113.128    6.0321647 
    2560    1331.1818   -9766.2256   -9617.7303    3327.7235    13096.355    6.0267968 
    2570    1290.9712   -9766.0858    -9622.076    3010.0092    13081.942     6.017865 
    2580    1291.4236   -9770.4473   -9626.3871     3307.407    13069.648    6.0047563 
    2590    1229.9474   -9767.7925     -9630.59    5664.4289    13059.534    5.9874319 
    2600    1186.9509   -9766.8839   -9634.4777    7912.0755     13052.42    5.9650296 
    2610    1202.0079   -9772.2943   -9638.2085    7017.5968    13048.962    5.9371927 
    2620    1232.5866   -9779.4427   -9641.9458    4797.8682    13048.639    5.9050185 
    2630    1244.7879   -9784.6502   -9645.7922    3053.4442    13050.397    5.8707047 
    2640    1226.2116    -9786.483   -9649.6972    1906.4664    13053.385    5.8354587 
    2650    1219.8123   -9789.6337   -9653.5618     1543.905    13057.046    5.8002253 
    2660    1226.9834   -9794.2392   -9657.3673    2129.1118    13061.206     5.767374 
    2670    1255.1461   -9801.2665   -9661.2531    1295.0105    13066.006    5.7390993 
    2680    1265.2792   -9806.4148    -9665.271   -1184.7292     13071.03    5.7178098 
    2690    1245.9565   -9808.2874   -9669.2991   -3867.8766    13075.247    5.7060879 
    2700    1227.5382   -9810.1509   -9673.2172   -6908.4494    13077.532    5.7032364 
    2710    1236.7884   -9815.0803   -9677.1147   -9339.6564    13076.744    5.7044494 
    2720    1203.5697   -9815.2323   -9680.9723   -9683.2405    13072.077    5.7047253 
    2730    1172.8423   -9815.5249   -9684.6925   -7887.4325    13063.627    5.7000123 
    2740    1155.4752   -9817.1432   -9688.2482   -4769.5476    13052.374    5.6887626 
    2750     1146.692   -9819.5827   -9691.6675   -2315.6816    13039.691     5.673319 
    2760    1137.9957   -9821.8975   -9694.9523   -512.36424     13026.72    5.6585231 
    2770    1146.4657   -9826.0657   -9698.1757    1764.1379    13014.272    5.6500768 
    2780    1126.5973   -9827.0427   -9701.3691     5963.026    13003.346    5.6541817 
    2790    1101.9867    -9827.389   -9704.4607    9556.7541    12995.552    5.6747109 
    2800    1142.0988   -9834.9534   -9707.5506    7842.9221     12992.03    5.7107845 
    2810    1159.6718   -9840.1765   -9710.8134    4218.5875    12991.939    5.7574689 
    2820    1093.4315   -9835.9903   -9714.0163    3881.8701    12993.796    5.8095878 
    2830    1090.7265   -9838.7339   -9717.0617    2351.8824    12997.167    5.8641168 
    2840    1064.7797   -9838.7386   -9719.9608   -68.665062    13001.335    5.9191147 
    2850    990.72971   -9833.0312   -9722.5138   -919.32709    13005.351     5.970956 
    2860    981.37474   -9834.1927   -9724.7188    -2891.845    13008.725     6.016759 
    2870     993.9784   -9837.6553   -9726.7755   -4835.7677    13010.695    6.0551439 
    2880    990.38853   -9839.1895   -9728.7102   -5348.5753    13010.591    6.0842435 
    2890    1026.9053   -9845.1953   -9730.6425   -5931.9822    13008.202    6.1031126 
    2900    1027.8311    -9847.284   -9732.6279   -4963.2676    13003.477    6.1141962 
    2910    1005.9144    -9846.828   -9734.6167   -3606.2384    12996.877    6.1207019 
    2920    983.35328   -9846.2124   -9736.5178   -2023.9058    12989.063    6.1236743 
    2930    973.97454   -9846.9587   -9738.3104   -127.57865    12980.754    6.1224738 
    2940    949.63915   -9845.8798   -9739.9461    2117.1307    12972.788    6.1153218 
    2950    958.29382   -9848.3321    -9741.433    3759.8291     12966.07    6.1014059 
    2960    960.19347    -9849.945    -9742.834     5129.914    12961.242    6.0834871 
    2970    946.95627   -9849.7675   -9744.1331    6181.6046    12958.812    6.0655138 
    2980    964.83489   -9852.9805   -9745.3517    5253.9449    12959.027    6.0504611 
    2990    993.51447   -9857.3802   -9746.5521    3214.1848    12961.412    6.0398183 
    3000    1004.9071   -9859.8814   -9747.7825    1394.7792    12965.059    6.0333786 
    3010    969.60175   -9857.1826   -9749.0221    2545.3969    12969.278    6.0300156 
    3020    923.82858    -9853.215   -9750.1606    4550.1178    12974.457    6.0286369 
    3030    946.07966   -9856.7303   -9751.1937    4251.8143    12981.267    6.0290747 
    3040    972.57501   -9860.6615   -9752.1693     2395.806    12989.562    6.0327032 
    3050    985.42842    -9863.068   -9753.1419    -701.5137    12998.499    6.0414537 
    3060     946.7131   -9859.6795   -9754.0722   -3631.5919    13006.797    6.0556614 
    3070     950.0854   -9860.9022   -9754.9188   -7309.3817    13013.182    6.0733112 
    3080    965.05935   -9863.3872   -9755.7334   -8540.4013    13016.285    6.0927011 
    3090    897.86364   -9856.6212   -9756.4631   -5810.3446    13015.764    6.1121222 
    3100     901.5266   -9857.6149   -9757.0482   -4726.2405    13012.685    6.1292091 
    3110    931.18885   -9861.3878   -9757.5123   -4325.7487    13007.686    6.1453713 
    3120    935.44076   -9862.2477   -9757.8979   -3137.5298    13001.041    6.1648361 
    3130    934.68019   -9862.4742   -9758.2092    -1877.337      12993.3    6.1902938 
    3140    928.28958   -9861.9728   -9758.4207   -1451.6555    12985.013    6.2215006 
    3150    939.19056   -9863.2852   -9758.5171   -1267.1514    12976.388    6.2553112 
    3160    935.42179   -9862.8306   -9758.4829    1153.4149    12967.647    6.2879169 
    3170    921.86062    -9861.157    -9758.322    4095.0135    12959.755    6.3169937 
    3180    936.09166   -9862.4829   -9758.0605    4937.7099    12953.833    6.3416703 
    3190    938.38546   -9862.4116   -9757.7333     4872.804    12950.207    6.3619659 
    3200    918.15315   -9859.7659   -9757.3445     5598.877    12948.807     6.378288 
    3210    930.17509   -9860.6287   -9756.8663    6013.4471    12949.813    6.3920301 
    3220    943.04424   -9861.4918   -9756.2938    6616.0214    12953.352    6.4056031 
    3230    954.51119   -9862.1435   -9755.6663    6656.3052    12959.564    6.4206366 
    3240    957.00944   -9861.7546   -9754.9987    4994.7922    12968.324    6.4366571 
    3250    958.74455   -9861.2454    -9754.296    2335.7895    12978.899    6.4520587 
    3260    966.60737   -9861.3636   -9753.5371   -1481.7314    12990.061    6.4651508 
    3270    964.85112   -9860.3636    -9752.733   -3823.1407     13000.28    6.4739873 
    3280    974.16315   -9860.5813   -9751.9119   -5615.6413    13008.526    6.4766508 
    3290    974.67467   -9859.8234    -9751.097   -5635.7894    13014.152    6.4722748 
    3300     959.4899   -9857.3258   -9750.2933   -3915.4425    13017.255    6.4610875 
    3310    965.35938   -9857.1681   -9749.4808   -3516.9643     13018.51    6.4448811 
    3320    982.63169   -9858.2683   -9748.6542   -4005.4793     13018.18    6.4267675 
    3330    968.54816   -9855.8768   -9747.8338   -3802.7996     13016.17    6.4090136 
    3340    944.94972   -9852.4201   -9747.0096   -3178.3444    13012.632    6.3919384 
    3350    973.56428   -9854.7512   -9746.1487   -4211.1804    13007.773    6.3749414 
    3360     1016.774   -9858.6948   -9745.2721   -4401.0567    13001.288    6.3578991 
    3370    1044.3087   -9860.9703   -9744.4761   -2019.6358    12993.243    6.3417783 
    3380    1041.0872   -9859.9618    -9743.827    1971.7199    12984.678    6.3286834 
    3390    1049.2162   -9860.3795   -9743.3379    4996.6098    12977.206    6.3215191 
    3400    1022.9721   -9857.1237   -9743.0096    6847.3919    12972.076    6.3221377 
    3410    1004.3086   -9854.8552    -9742.823    5600.6482      12969.9    6.3286537 
    3420    1050.3792   -9859.9139   -9742.7425    2694.3423    12970.117    6.3373033 
    3430    1063.8777    -9861.502   -9742.8249    2938.3603    12971.607    6.3470215 
    3440    1005.6574   -9855.2606    -9743.078    5153.3537    12974.405    6.3588836 
    3450    1005.1231    -9855.545    -9743.422    4177.8677    12979.202    6.3731659 
    3460    1014.7579   -9857.0181   -9743.8204    616.10914     12985.55    6.3897315 
    3470    1022.2547    -9858.336   -9744.3019   -3662.6095    12991.957    6.4067028 
    3480    1021.3515   -9858.8232   -9744.8899   -5508.8758    12996.706    6.4206578 
    3490    991.23984   -9856.1365   -9745.5622   -4781.7001    12999.045    6.4292413 
    3500    990.04562   -9856.7162   -9746.2751   -4821.5496    12999.222    6.4325026 
    3510    1027.5558   -9861.6823   -9747.0569   -5572.1627    12997.314     6.432218 
    3520    1012.7414   -9860.9293   -9747.9565   -4822.1595    12993.127    6.4301585 
    3530    958.14482   -9855.7482   -9748.8657    -2279.974    12987.073    6.4275637 
    3540    981.33132   -9859.2186   -9749.7496   -1245.1368    12980.165    6.4260799 
    3550    1000.6357   -9862.2734    -9750.651   -757.92645     12972.89    6.4275237 
    3560    1001.5624    -9863.324   -9751.5982    1839.1386    12965.588    6.4317787 
    3570    987.77615   -9862.7635   -9752.5756    4320.1976    12959.251    6.4378259 
    3580    963.11117   -9860.9666   -9753.5301    5335.7968     12954.89    6.4451392 
    3590    977.00652   -9863.4419   -9754.4553    3955.3863    12952.823     6.453366 
    3600     980.4511   -9864.7538    -9755.383    2988.1946    12952.527    6.4627299 
    3610    956.48898   -9862.9863   -9756.2885    3372.6348     12953.57    6.4733556 
    3620      963.077    -9864.584   -9757.1513    3149.0272    12956.007    6.4860046 
    3630    942.36856   -9863.0923   -9757.9697    3451.2745    12959.761     6.503181 
    3640    911.28534   -9860.3265   -9758.6712    4270.4243    12964.959     6.526686 
    3650     970.4637    -9867.551   -9759.2943    1337.5148    12971.704    6.5561265 
    3660    978.95992   -9869.0851   -9759.8807   -1631.5271    12978.863    6.5899687 
    3670    936.97584   -9864.9546   -9760.4335   -1843.2389    12985.251    6.6244931 
    3680    909.20749    -9862.312   -9760.8885   -1053.8379     12990.74    6.6560312 
    3690    916.07202   -9863.3955   -9761.2062   -3338.7496    12995.508     6.682336 
    3700    921.60009   -9864.1914   -9761.3855   -5046.7451    12998.766    6.7011942 
    3710    944.52883   -9866.8339   -9761.4703   -6527.2939    12999.773    6.7120827 
    3720    964.24323    -9869.078   -9761.5152   -6913.5498    12997.978    6.7170851 
    3730    933.74949   -9865.6963   -9761.5351   -4421.7044    12993.381    6.7188529 
    3740    902.95559   -9862.2018   -9761.4757   -967.31638    12987.032    6.7179777 
    3750    926.85944   -9864.6807   -9761.2881    2530.7928    12980.424    6.7148815 
    3760    930.44071   -9864.7664   -9760.9743    5308.1192    12975.041    6.7118843 
    3770     929.0165   -9864.2008   -9760.5676    5079.1456    12971.953    6.7108635 
    3780     969.9589   -9868.2707   -9760.0703    2030.3654    12970.987    6.7124994 
    3790    977.14409   -9868.5225   -9759.5206    118.55139    12970.951    6.7167243 
    3800    931.34945   -9862.8376   -9758.9441     589.4424    12971.083    6.7217029 
    3810    947.64997   -9864.0227    -9758.311    2067.7016    12971.518    6.7247725 
    3820    953.33026    -9863.939   -9757.5936    2999.4465    12972.807    6.7259331 
    3830    942.66534    -9861.989   -9756.8333    2731.1643    12975.314    6.7268418 
    3840    987.10055   -9866.1411   -9756.0286    729.29023    12978.878    6.7296275 
    3850    981.71362   -9864.7281   -9755.2165   -526.44839    12982.688    6.7355816 
    3860     947.1483    -9860.107   -9754.4512    852.83714    12986.306    6.7432255 
    3870    954.80311   -9860.1933   -9753.6835    1671.3479    12990.193    6.7492605 
    3880    964.15429   -9860.4375   -9752.8847    1180.4847    12994.675    6.7508433 
    3890    999.43708   -9863.5805   -9752.0918   -485.06756    12999.545    6.7480196 
    3900    1003.7648    -9863.302   -9751.3305   -1694.8759    13004.123    6.7441937 
    3910     972.0114   -9859.0498   -9750.6204   -1686.9745    13007.946    6.7429539 
    3920    1000.8878   -9861.5797   -9749.9291   -3247.9247    13010.902    6.7464652 
    3930    981.73506   -9858.7808   -9749.2667   -2262.9216    13012.507     6.755877 
    3940    945.85594   -9854.1579   -9748.6462    -792.3709    13013.122    6.7700151 
    3950    990.71994   -9858.5003    -9747.984   -1981.5827    13013.269    6.7864004 
    3960    993.71957    -9858.121   -9747.2701   -2731.5028    13012.567    6.8036937 
    3970    1004.7403   -9858.6887   -9746.6084    -3472.887    13010.687    6.8204684 
    3980    1009.7669   -9858.6615   -9746.0204   -3545.6218    13007.387    6.8351512 
    3990    998.39555   -9856.9027   -9745.5301   -1754.2718    13002.701    6.8451443 
    4000    997.60077   -9856.4107   -9745.1268    1121.6405    12997.387    6.8476069 
    4010    1014.9251   -9858.0188   -9744.8024    1974.4608    12992.591    6.8418506 
    4020    1024.0302    -9858.824   -9744.5919     579.3187    12988.672    6.8313525 
    4030    988.08132   -9854.7152   -9744.4933    902.40526    12985.177    6.8212504 
    4040    995.46953   -9855.4802   -9744.4341    1017.4236     12982.11     6.814595 
    4050     1010.681   -9857.1236   -9744.3806    993.92345     12979.54     6.812606 
    4060    1016.1541   -9857.7272   -9744.3736    2002.5413    12977.526    6.8147193 
    4070    1045.7178   -9861.1137   -9744.4623    2062.1818    12976.364    6.8196771 
    4080    1006.7682   -9856.9618   -9744.6553    3651.9155    12976.193    6.8266361 
    4090    995.75644   -9855.9978   -9744.9197    4998.0588    12977.599    6.8353775 
    4100    1033.7997   -9860.6086   -9745.2867    4680.0618    12981.067    6.8470703 
    4110     1013.123   -9858.8207   -9745.8053    3827.4493    12986.466    6.8624591 
    4120    997.15518   -9857.6766   -9746.4424    2030.7027    12993.386    6.8791674 
    4130    1008.3646   -9859.6279   -9747.1433   -2356.2189     13000.93    6.8940434 
    4140    1004.2193   -9859.9273   -9747.9052   -5610.9565    13007.349    6.9057384 
    4150    962.08888   -9856.0091   -9748.6866   -4467.2509    13011.407    6.9147172 
    4160    950.74186   -9855.4588   -9749.4022   -3146.0744    13013.442    6.9223501 
    4170    993.80059    -9860.913    -9750.053   -3927.8545    13014.003    6.9299586 
    4180    1012.6752   -9863.7053   -9750.7398   -4264.1175    13012.875    6.9385082 
    4190    984.88197   -9861.3398   -9751.4747   -2141.6252    13010.027    6.9466743 
    4200    988.65033   -9862.5274   -9752.2419   -820.50614    13006.286     6.950792 
    4210    970.90229   -9861.3326    -9753.027    979.73976    13002.306     6.948494 
    4220      962.583   -9861.1548   -9753.7772    2319.8352    12998.816    6.9407944 
    4230    1006.8238   -9866.8544   -9754.5417    1778.5126    12996.317    6.9312357 
    4240    996.13242   -9866.4863   -9755.3662    2747.4332    12994.711    6.9230002 
    4250    973.79018   -9864.8481   -9756.2204    3726.3187    12994.323    6.9166713 
    4260    986.58747   -9867.1333    -9757.078     2706.575    12995.456    6.9114433 
    4270    987.81078   -9868.1458    -9757.954    1826.5407     12997.75    6.9065555 
    4280    939.77642   -9863.6318   -9758.7983    2022.0328    13000.849    6.9027044 
    4290    913.81963    -9861.456    -9759.518    1315.7107    13004.744     6.901613 
    4300    951.29108   -9866.2544   -9760.1364   -1026.6693    13009.079    6.9027332 
    4310    942.91753   -9865.8575   -9760.6736   -2314.0108    13012.946    6.9032742 
    4320    947.04727   -9866.7671   -9761.1226   -3776.3658    13015.719    6.9004697 
    4330    992.02823   -9872.1949   -9761.5326   -5715.0821    13016.791    6.8946157 
    4340    961.92578   -9869.2546   -9761.9504   -5707.3816    13015.458    6.8883316 
    4350    924.43616   -9865.4496   -9762.3274   -4787.3836    13011.724    6.8830783 
    4360    959.35715   -9869.6628    -9762.645   -4114.4873    13005.965    6.8779028 
    4370    968.53018   -9870.9689   -9762.9279   -1827.3666    12998.588    6.8707282 
    4380    976.60184   -9872.1387   -9763.1973    340.50363    12990.553    6.8595383 
    4390    983.91754   -9873.2481   -9763.4906    2737.4074    12982.817    6.8444398 
    4400    926.86608   -9867.1516   -9763.7583    6237.2796    12976.447    6.8279581 
    4410    945.19069   -9869.3904   -9763.9529    7735.4163    12972.812    6.8129313 
    4420    987.96186   -9874.3027   -9764.0941    6828.6772    12972.462    6.8021014 
    4430    960.04968    -9871.325     -9764.23    7556.6431    12975.136    6.7964848 
    4440    933.11989   -9868.4401   -9764.3492    6947.6131    12980.963    6.7955929 
    4450    942.39587   -9869.5278   -9764.4021    4605.1978    12989.647    6.7997598 
    4460    936.51793   -9868.8215   -9764.3515    2262.1503    13000.188     6.810424 
    4470    943.06668    -9869.412   -9764.2115    328.78465    13011.559    6.8272562 
    4480    948.19923   -9869.7646   -9763.9916    -1913.075    13022.879    6.8466969 
    4490     958.3602   -9870.6283   -9763.7217   -4284.5362    13033.187    6.8638907 
    4500    926.41536   -9866.7358   -9763.3927   -6175.4011    13041.484    6.8763914 
    4510    905.10457   -9863.9437    -9762.978   -8163.7033     13046.94    6.8843541 
    4520    962.72665   -9869.8356    -9762.442   -10447.285    13048.736    6.8890413 
    4530    1000.6164   -9873.4791   -9761.8588   -10084.309    13046.063    6.8899994 
    4540     961.8439   -9868.6087   -9761.3135     -5985.34    13039.213    6.8834039 
    4550    973.92395   -9869.4193   -9760.7766   -2983.9233    13029.815    6.8662533 
    4560     955.6942   -9866.8096   -9760.2005    521.98193    13019.294    6.8409895 
    4570     934.6382   -9863.8433    -9759.583    4888.4394    13009.217    6.8132364 
    4580    942.71193   -9864.0511   -9758.8902    8020.5931    13001.378     6.788041 
    4590    952.86728   -9864.4274   -9758.1336    9636.4559    12997.077    6.7674055 
    4600    987.39209   -9867.5041    -9757.359     9214.641    12996.934    6.7508025 
    4610    997.85013   -9867.9296   -9756.6179    6689.4559    13000.694    6.7366088 
    4620    958.62252   -9862.8688    -9755.933    2959.6333     13007.25    6.7231397 
    4630    949.97089   -9861.2154   -9755.2447   -87.138488    13015.028    6.7100874 
    4640    977.57383   -9863.5432   -9754.4934    -1664.559    13022.709    6.6989345 
    4650    997.07245   -9864.9565   -9753.7315   -1322.9822    13029.635    6.6907867 
    4660    986.62349   -9863.0869   -9753.0276   -235.47693     13035.93    6.6857733 
    4670     972.9913   -9860.9198   -9752.3811    332.70944    13042.021    6.6830296 
    4680    972.80235   -9860.2665   -9751.7489    80.450674    13048.145    6.6818399 
    4690    983.70646   -9860.8431   -9751.1092   -1330.7636    13054.192    6.6815121 
    4700    1009.1199   -9863.0528    -9750.484   -3408.7665    13059.562    6.6807933 
    4710    997.77941   -9861.2245   -9749.9207   -3777.7557    13063.439    6.6793219 
    4720    966.49186   -9857.2402   -9749.4266   -2975.0082    13065.687    6.6792239 
    4730    1003.4177   -9860.8891   -9748.9564   -4813.9716    13066.498    6.6832748 
    4740     1023.285   -9862.6782   -9748.5293   -6653.2236    13065.205    6.6920999 
    4750     989.7876    -9858.617   -9748.2047   -6761.7165    13061.089    6.7025052 
    4760     959.9005    -9855.009   -9747.9307    -5470.971    13054.127    6.7100348 
    4770    959.96106   -9854.7182   -9747.6331   -4039.9213    13044.853    6.7131308 
    4780    983.48042   -9856.9929   -9747.2841   -1883.3422    13033.978    6.7137088 
    4790    1024.7303   -9861.2515   -9746.9413    762.13921    13022.427    6.7149831 
    4800     1002.248   -9858.4528   -9746.6505    5202.2233    13011.443     6.719166 
    4810    1021.5314   -9860.4006   -9746.4472    7884.4752    13002.758    6.7246543 
    4820    1027.4966    -9860.974   -9746.3552    10123.241    12997.589    6.7295509 
    4830    1007.3427   -9858.7779   -9746.4074    11897.314    12996.861    6.7338782 
    4840     1016.286   -9859.9686   -9746.6004        11088    13001.189    6.7390934 
    4850     1012.723   -9859.8919   -9746.9211    9049.5465    13010.237    6.7466501 
    4860    984.25157   -9857.0969   -9747.3021    6056.1369    13023.096    6.7556073 
    4870    985.71919   -9857.6222   -9747.6637    1393.3978    13038.397    6.7634209 
    4880     1011.426   -9860.8254   -9747.9993   -4899.7855    13054.089    6.7695667 
    4890    1000.7491   -9859.9916   -9748.3565   -9379.3351    13067.569    6.7751383 
    4900    960.93739     -9855.95    -9748.756    -10502.03     13076.92    6.7810114 
    4910    936.39203   -9853.5986   -9749.1427   -9934.2506    13081.652    6.7864867 
    4920    967.71803   -9857.4605   -9749.5101   -9739.2032    13081.972    6.7895882 
    4930    986.10698   -9859.8956   -9749.8939   -7869.7708    13078.099    6.7888147 
    4940      978.713   -9859.4731   -9750.2962    -4197.711    13070.897      6.78433 
    4950    1008.1968   -9863.1808   -9750.7149   -2110.3378    13061.877    6.7772633 
    4960    1023.3116    -9865.363   -9751.2111    -1347.018    13052.006    6.7689711 
    4970    1000.9789   -9863.4615   -9751.8008   -1092.0626    13041.665    6.7600537 
    4980    980.94079   -9861.8825   -9752.4571   -1468.1977    13030.936    6.7505941 
    4990    936.22821   -9857.5177     -9753.08     417.7692    13019.785    6.7414618 
    5000    965.35107   -9861.3127   -9753.6263    3371.3483    13008.987    6.7334628 
Loop time of 2517.83 on 16 procs for 3000 steps with 864 atoms

Performance: 0.103 ns/day, 233.132 hours/ns, 1.192 timesteps/s
95.8% CPU use with 16 MPI tasks x 1 OpenMP threads

MPI task timing breakdown:
Section |  min time  |  avg time  |  max time  |%varavg| %total
---------------------------------------------------------------
Pair    | 1485.1     | 2042.7     | 2477.7     | 774.6 | 81.13
Bond    | 0.00023913 | 0.00087605 | 0.0016589  |   0.0 |  0.00
Neigh   | 0.038861   | 0.05888    | 0.073576   |   5.5 |  0.00
Comm    | 38.067     | 456.77     | 968.02     |1546.4 | 18.14
Output  | 0.16459    | 0.16856    | 0.22664    |   3.7 |  0.01
Modify  | 1.7942     | 18.083     | 64.537     | 629.9 |  0.72
Other   |            | 0.01343    |            |       |  0.00

Nlocal:        54.0000 ave          65 max          36 min
Histogram: 1 1 2 0 2 2 0 0 5 3
Nghost:        646.875 ave         759 max         533 min
Histogram: 8 0 0 0 0 0 0 0 0 8
Neighs:         0.00000 ave           0 max           0 min
Histogram: 16 0 0 0 0 0 0 0 0 0
FullNghs:      3471.50 ave        4434 max        2137 min
Histogram: 2 2 0 2 2 0 0 0 4 4

Total # of neighbors = 55544
Ave neighs/atom = 64.287037
Ave special neighs/atom = 0.0000000
Neighbor list builds = 300
Dangerous builds = 300
unfix   2

fix     3 all npt temp 975.0 975.0 $(100.0*dt) aniso 1.01325 1.01325 $(1000.0*dt)
fix     3 all npt temp 975.0 975.0 0.10000000000000000555 aniso 1.01325 1.01325 $(1000.0*dt)
fix     3 all npt temp 975.0 975.0 0.10000000000000000555 aniso 1.01325 1.01325 1
run     20000
Per MPI rank memory allocation (min/avg/max) = 8.898 | 8.906 | 8.912 Mbytes
Step Temp PotEng TotEng Press Volume c_msd[4] 
    5000    965.35107   -9861.3127   -9753.6263    3371.3483    13008.987    6.7334628 
    5010    1004.2091   -9865.6704   -9753.6493     2750.793    13009.668    6.7277672 
    5020    995.05533   -9864.7506   -9753.7506    3732.9629    13011.617    6.7203281 
    5030    955.24224   -9860.4631   -9753.9044    4336.0905    13015.179    6.7110382 
    5040    933.68506   -9858.1644   -9754.0105    3086.3331    13020.579    6.7027632 
    5050    966.17046   -9861.8013   -9754.0235    232.64843    13027.267    6.6985096 
    5060    983.90558   -9863.7164   -9753.9603   -2754.4421    13034.077    6.6990413 
    5070    1012.4732   -9866.8436   -9753.9007   -5883.8488    13039.672    6.7011991 
    5080    994.36454   -9864.8341   -9753.9113   -6632.4162    13042.792    6.7017444 
    5090    947.81666   -9859.7082   -9753.9778   -5899.4032    13043.059    6.7001423 
    5100    961.18229   -9861.2697   -9754.0483   -5393.9919    13040.709    6.6980285 
    5110    966.97819   -9861.9759    -9754.108   -2507.8355    13036.099    6.6965214 
    5120    956.76354    -9860.886   -9754.1576     1261.644    13030.417    6.6948268 
    5130    968.13856   -9862.1785   -9754.1812    3237.9659    13025.223    6.6925644 
    5140    992.65095   -9864.9242   -9754.1925    1855.3415     13021.29    6.6914358 
    5150    983.03124    -9863.856   -9754.1974    240.65512     13018.18    6.6939812 
    5160    989.77435   -9864.6252   -9754.2143   -1035.9581    13015.167     6.700754 
    5170    981.41112   -9863.7311   -9754.2532    527.66284    13011.795    6.7089834 
    5180    962.18698    -9861.629   -9754.2956    2427.2688    13008.669    6.7145439 
    5190    1007.5344   -9866.7664   -9754.3744    2391.9406    13006.519    6.7148545 
    5200    982.76741   -9864.1655   -9754.5363    3938.2889    13005.492    6.7115296 
    5210    942.04891   -9859.8409   -9754.7539     3842.349    13006.118    6.7081914 
    5220    985.90406   -9864.9496   -9754.9705    771.10916      13008.3    6.7065877 
    5230    995.22719   -9866.2179   -9755.1988    249.91836    13010.955    6.7054327 
    5240    987.62764   -9865.6668   -9755.4955     130.6373     13013.73    6.7013215 
    5250    992.81266   -9866.6245   -9755.8748   -1303.1874    13016.541    6.6934241 
    5260    975.59207    -9865.141   -9756.3123    -2294.743     13018.82    6.6847356 
    5270    969.49711   -9864.9297   -9756.7808   -2763.8447    13020.127    6.6773658 
    5280    965.57581    -9864.985   -9757.2735   -2817.3168    13020.248    6.6706582 
    5290    945.71224   -9863.2461   -9757.7505   -2451.8156    13019.158    6.6620468 
    5300    963.17807   -9865.6412   -9758.1973   -2791.2194    13016.954    6.6497236 
    5310    984.89345    -9868.507   -9758.6407   -2796.0345     13013.53    6.6345362 
    5320    992.79255   -9869.8705    -9759.123   -2114.7718    13008.911    6.6196297 
    5330      978.753   -9868.8335   -9759.6521   -1795.8824    13003.331    6.6082687 
    5340    947.61713   -9865.8874   -9760.1793   -616.80124    12997.009    6.6010473 
    5350    940.99904   -9865.6153   -9760.6454     455.6872    12990.407    6.5952744 
    5360    983.79978   -9870.8232   -9761.0789   -168.07621    12983.909    6.5875701 
    5370    988.52456   -9871.7988   -9761.5274    265.59995    12977.358    6.5769105 
    5380    975.55856   -9870.7924   -9761.9674     2814.356    12970.994    6.5649326 
    5390     979.5136   -9871.6607   -9762.3945    4895.1491    12965.818    6.5561019 
    5400    966.98504   -9870.6943   -9762.8257    5947.1999    12962.699    6.5550681 
    5410    967.57177   -9871.2003   -9763.2662    6427.3435    12962.125    6.5630949 
    5420    963.58539   -9871.1987   -9763.7093    6191.8493    12964.319    6.5778494 
    5430    938.67213   -9868.8287   -9764.1184     4005.216    12969.133    6.5971553 
    5440    958.81353   -9871.4398   -9764.4827     1160.008    12975.703     6.621351 
    5450    958.37878   -9871.7252   -9764.8166    699.45112    12982.926    6.6516028 
    5460    940.97654    -9870.071   -9765.1036    929.18218    12990.532    6.6873782 
    5470    947.24761   -9870.9858   -9765.3189   -2055.2457     12998.44    6.7254429 
    5480    940.07436   -9870.3054   -9765.4387   -5374.3472    13005.505    6.7606441 
    5490    967.94815   -9873.4726   -9765.4966   -7854.2117    13010.291    6.7897853 
    5500    946.54489   -9871.0957   -9765.5072   -7979.7855    13011.746    6.8137619 
    5510    937.56515   -9870.0529   -9765.4661   -7405.6889    13009.753    6.8333006 
    5520    963.15414   -9872.7984   -9765.3571    -6833.398    13004.523    6.8484165 
    5530    934.91414   -9869.4663   -9765.1752   -4422.0565    12996.365    6.8595011 
    5540    938.44797   -9869.6001   -9764.9149    -1965.322    12986.238    6.8657612 
    5550    945.85119   -9870.0684   -9764.5573    931.40058    12975.226    6.8670447 
    5560    917.87885   -9866.4638   -9764.0731    4980.9736    12964.645    6.8649247 
    5570    954.75214   -9869.9406   -9763.4366    6537.0371    12956.083    6.8605275 
    5580    959.43825   -9869.6672   -9762.6405    7255.3437    12950.293    6.8547416 
    5590    946.91881    -9867.379   -9761.7488     6559.107    12947.565    6.8476348 
    5600      972.933   -9869.2862    -9760.754    3533.6488    12947.557    6.8400399 
    5610    945.75548   -9865.1908   -9759.6903     2823.874    12949.179    6.8326748 
    5620    948.77491   -9864.4768   -9758.6396    2866.2414    12952.061     6.824831 
    5630    982.18477   -9867.1755   -9757.6113    2919.7755    12956.203    6.8175173 
    5640    981.68618   -9866.2387   -9756.7302    4057.8618    12961.679    6.8117063 
    5650    989.01894    -9866.357   -9756.0304     4540.129    12968.942    6.8082798 
    5660    980.85343   -9864.8962   -9755.4805    1945.3521    12978.094    6.8103151 
    5670    973.60529   -9863.6367   -9755.0296   -1125.2972    12988.151    6.8191358 
    5680    999.85448   -9866.1765   -9754.6412   -5443.0501    12997.701    6.8330788 
    5690    980.18336    -9863.672   -9754.3311   -8067.3485     13004.99    6.8492886 
    5700    953.96099   -9860.5178   -9754.1021   -8891.6407    13008.853    6.8635554 
    5710     975.8579   -9862.7686   -9753.9102   -8761.2392    13008.881    6.8726636 
    5720     981.3303    -9863.229   -9753.7601   -6009.0256    13005.177    6.8778002 
    5730    961.82704   -9860.9242   -9753.6309   -2650.2198    12998.862    6.8825116 
    5740    1002.1407   -9865.3167   -9753.5264   -1657.4635    12991.254    6.8890371 
    5750    980.98802   -9862.8799   -9753.4492    369.20327    12982.941     6.899084 
    5760    961.50731   -9860.6466   -9753.3891    2087.8429    12974.747    6.9126788 
    5770     993.4999   -9864.1308   -9753.3044    2374.6716    12967.371    6.9283579 
    5780    1014.3116   -9866.3827   -9753.2347    2860.6923    12961.001    6.9443138 
    5790    981.25116   -9862.6692   -9753.2092    3597.5934    12955.853    6.9597781 
    5800    994.89375   -9864.2178   -9753.2359    2880.8943    12952.164     6.975448 
    5810    1002.1963   -9865.0944   -9753.2979    2654.5081    12949.749    6.9923803 
    5820    994.76221   -9864.3715   -9753.4043    2096.8859    12948.444     7.008744 
    5830     976.1782   -9862.4484   -9753.5542    1342.7947    12948.051    7.0203003 
    5840    972.06952   -9862.1489   -9753.7131    678.05709    12948.278    7.0251217 
    5850    1023.5497   -9868.1076   -9753.9291   -409.65175    12948.767    7.0250503 
    5860    996.52353   -9865.4037     -9754.24    1109.5666    12949.201    7.0241289 
    5870    967.58581   -9862.5665   -9754.6309    2365.9607    12950.106    7.0233216 
    5880    959.31967    -9862.049   -9755.0354    1677.0007    12951.964    7.0211906 
    5890     967.0295   -9863.3231   -9755.4495    421.36428    12954.546    7.0158303 
    5900    978.92795   -9865.0692   -9755.8683   -1630.6489    12957.308    7.0061631 
    5910    1009.5255   -9868.9512   -9756.3371   -3667.7621    12959.393    6.9927294 
    5920     979.2166   -9866.1201    -9756.887   -3814.1561    12959.996    6.9771599 
    5930    937.06418   -9861.9636   -9757.4327   -3620.1475    12958.961    6.9587426 
    5940     982.8136    -9867.578   -9757.9437   -3607.9232    12956.338    6.9355291 
    5950     982.4383   -9868.0415    -9758.449   -840.92917    12952.265    6.9093162 
    5960    970.16067   -9867.1877   -9758.9649    2878.0286     12947.85    6.8845209 
    5970    965.36977   -9867.1953   -9759.5068    4542.9062    12944.561    6.8654317 
    5980    942.60188    -9865.196   -9760.0473      4551.45    12943.163    6.8527439 
    5990    957.20534   -9867.3386   -9760.5609    2055.7381    12943.641    6.8437215 
    6000    965.80578   -9868.7808   -9761.0437    557.14313    12945.067    6.8354786 
    6010    944.88183   -9866.8863   -9761.4833    1725.6392    12946.843    6.8265063 
    6020    931.55478   -9865.7836   -9761.8673    2811.2011    12949.389    6.8177535 
    6030    923.07835   -9865.1441   -9762.1733    1725.1047    12953.102    6.8107726 
    6040     948.3388   -9868.1877   -9762.3991   -740.12736    12957.554     6.804013 
    6050    970.78038   -9870.8603   -9762.5683   -4301.3913    12961.679    6.7955211 
    6060    950.73721   -9868.7576   -9762.7014   -6345.7796    12964.048    6.7857165 
    6070    947.20421   -9868.4687   -9762.8067   -7219.7991    12963.715    6.7759012 
    6080    932.03763   -9866.8318   -9762.8616   -5871.0811    12960.318    6.7675047 
    6090    925.23742    -9866.032   -9762.8204   -4002.3614    12954.355    6.7610523 
    6100    981.91592   -9872.2234   -9762.6892   -4225.7433    12946.503    6.7557587 
    6110    979.51986   -9871.7902   -9762.5233   -2865.6016     12936.81     6.751921 
    6120    928.24192   -9865.8595   -9762.3127    298.13234    12925.837    6.7502729 
    6130    929.06575   -9865.5976   -9761.9589    3448.6656    12914.883     6.751648 
    6140    948.42861   -9867.1828   -9761.3842    6385.9581    12905.312    6.7577346 
    6150    978.27286   -9869.7143   -9760.5865    8931.4757    12898.372    6.7687335 
    6160    966.30646   -9867.3823   -9759.5894     10354.16    12895.193    6.7822754 
    6170    1000.0399   -9870.0174   -9758.4615    7594.1593    12896.263    6.7949358 
    6180    1008.9185    -9869.791   -9757.2446    4201.8441    12900.619    6.8051896 
    6190    972.98516   -9864.6277   -9756.0898    2796.9151     12906.94    6.8130234 
    6200    971.45096   -9863.3891   -9755.0223    1890.0711    12914.568    6.8181073 
    6210    985.49203   -9863.9736   -9754.0405    1030.9253    12923.103    6.8190915 
    6220    983.65807   -9862.9231   -9753.1946     80.14108    12932.217    6.8136255 
    6230    1021.1461   -9866.4242   -9752.5138   -2788.9647    12941.403    6.8001197 
    6240    1001.5227   -9863.7227   -9752.0013   -5573.2642    12949.497    6.7809678 
    6250    987.57354   -9861.8082   -9751.6429   -7334.4122    12955.335    6.7593469 
    6260    996.14702   -9862.4885   -9751.3668   -8421.6818    12958.078     6.736198 
    6270    999.77785   -9862.6952   -9751.1685   -7858.9874    12957.268    6.7097029 
    6280    991.85603   -9861.6595   -9751.0165    -6693.502     12953.06     6.678547 
    6290     983.3232   -9860.5876   -9750.8964   -5001.4585    12945.906    6.6441655 
    6300    968.60789   -9858.8383   -9750.7886   -4341.0589     12936.45    6.6085891 
    6310    999.86046    -9862.241   -9750.7051    -3899.474    12924.976    6.5728828 
    6320    1003.2628   -9862.5859   -9750.6704   -1097.2348    12911.755    6.5386738 
    6330    972.08834   -9859.1123   -9750.6744    2554.4725    12897.946    6.5067587 
    6340    985.24355   -9860.5776   -9750.6722    5306.3223    12885.059    6.4765507 
    6350    1003.9731   -9862.6821   -9750.6874    7662.0512    12874.282    6.4483305 
    6360    982.42635   -9860.3285   -9750.7373    10266.303    12866.685    6.4222599 
    6370    1017.8015   -9864.3962   -9750.8589     10577.41    12863.311    6.3973934 
    6380    1048.0058   -9868.0374   -9751.1308    10506.703    12864.441    6.3741776 
    6390    1004.3491    -9863.626   -9751.5893    10828.898    12870.118    6.3551132 
    6400    969.79325   -9860.3337   -9752.1518    9697.9662    12880.493    6.3432293 
    6410    964.54092    -9860.315    -9752.719    6061.4769     12895.13    6.3400118 
    6420    978.94172   -9862.4378   -9753.2354    90.805326    12912.538    6.3431435 
    6430    1000.2136   -9865.2839   -9753.7085   -7103.9031    12930.214    6.3475262 
    6440    992.31889   -9864.8755   -9754.1808   -12483.086     12945.15    6.3483537 
    6450    983.39292   -9864.4133   -9754.7144   -14040.742    12955.042    6.3427827 
    6460    957.11165   -9862.0523   -9755.2851    -13981.09    12959.027    6.3306565 
    6470    968.17474   -9863.8726   -9755.8712    -14104.69    12956.982    6.3132437 
    6480    990.56922   -9867.0081   -9756.5086    -12700.31    12948.813    6.2935735 
    6490    962.55941   -9864.5328   -9757.1578   -7392.1631    12935.153    6.2747345 
    6500    942.48886   -9862.8266   -9757.6905   -980.15899    12918.137    6.2571467 
    6510    989.95623   -9868.5464   -9758.1153    2726.1758    12900.337    6.2399481 
    6520    992.34856   -9869.2096   -9758.5116    5492.5746     12883.45    6.2224913 
    6530    978.58222   -9868.0571   -9758.8948    8409.2059    12868.709    6.2031652 
    6540    993.05597   -9870.0683   -9759.2915    11135.834    12857.362    6.1820453 
    6550    942.61226   -9864.8148    -9759.665    14015.193    12850.647    6.1628888 
    6560    964.76144   -9867.6349   -9760.0143    13787.885    12849.704    6.1492507 
    6570    994.95337   -9871.3493   -9760.3608    11194.204    12854.562    6.1436599 
    6580    960.72049   -9867.8564   -9760.6866    8136.5096    12864.296    6.1460108 
    6590    969.44719    -9869.104   -9760.9607    3710.2353     12877.64    6.1526158 
    6600    964.73064   -9868.7881   -9761.1709   -229.56926    12892.838    6.1595696 
    6610    913.67204   -9863.1941   -9761.2727   -2883.0588    12908.279    6.1642003 
    6620    955.03304    -9867.776   -9761.2406   -8491.1832    12922.606    6.1653184 
    6630    986.58514   -9871.1902   -9761.1351   -12877.522    12933.571    6.1635533 
    6640    960.75536   -9868.2304   -9761.0567    -13823.81    12939.277     6.158851 
    6650    984.20019   -9870.8298   -9761.0408    -13345.94    12939.114    6.1506969 
    6660    939.72247    -9865.879   -9761.0515   -9508.9842    12933.279    6.1405954 
    6670    915.76345   -9863.1603   -9761.0055   -5761.5336      12923.2    6.1294522 
    6680    975.65147   -9869.7205   -9760.8851   -5139.6404    12910.304    6.1169866 
    6690    992.85828   -9871.5107   -9760.7559   -3427.4736     12895.01    6.1034951 
    6700    963.56065   -9868.1388   -9760.6522    375.07402    12878.025    6.0891345 
    6710    930.68241   -9864.3055   -9760.4864    6316.0947    12860.969    6.0740214 
    6720    952.15609   -9866.4358   -9760.2214    11325.844    12846.298    6.0594483 
    6730    978.76458   -9869.1116   -9759.9289    13382.538    12836.111    6.0469169 
    6740    978.76086   -9868.8782   -9759.6959    13032.435    12831.386    6.0374832 
    6750    983.36657   -9869.2462   -9759.5502    11327.433    12832.111    6.0317162 
    6760    971.44159   -9867.8273   -9759.4615    9896.0894    12837.745    6.0286018 
    6770    970.62977   -9867.6619   -9759.3867    6049.9094    12847.656    6.0258525 
    6780    990.15569   -9869.7416   -9759.2883    1645.8852    12860.365    6.0224547 
    6790    984.19717   -9868.9823   -9759.1936   -704.95354    12874.128    6.0192445 
    6800    961.36842   -9866.3519   -9759.1098   -3002.1437    12887.875    6.0173714 
    6810     958.3156   -9865.8943   -9758.9928   -6361.4039    12900.587    6.0169506 
    6820    949.18536   -9864.7093   -9758.8262   -8370.8312    12910.878    6.0174177 
    6830    961.43745   -9865.8827   -9758.6329   -9504.7079    12917.785    6.0182993 
    6840    975.65975   -9867.2685   -9758.4322   -9386.1148    12920.766     6.019125 
    6850    953.20385   -9864.5736   -9758.2422   -8940.7382     12919.74    6.0188105 
    6860    955.91924   -9864.6877   -9758.0534   -9857.5284    12914.745    6.0152426 
    6870    959.77847   -9864.9165   -9757.8517   -10616.091    12905.357    6.0064896 
    6880    981.63976   -9867.1621   -9757.6588   -10428.877    12891.191    5.9918475 
    6890    990.67861   -9867.9846   -9757.4729    -7252.776    12872.342    5.9717161 
    6900    977.50013   -9866.3015   -9757.2599   -549.99845    12850.114    5.9475358 
    6910    963.17262   -9864.4005   -9756.9572    7918.9536    12827.288    5.9213909 
    6920    955.04216    -9863.088   -9756.5516    14494.427     12807.34    5.8948644 
    6930    971.50492   -9864.4794   -9756.1066    17063.686    12793.066    5.8691435 
    6940    991.07654    -9866.258   -9755.7019    17010.827    12785.723    5.8460861 
    6950    980.78019   -9864.7781   -9755.3706    16271.502    12785.458    5.8276568 
    6960    988.94038    -9865.424   -9755.1062     13719.67    12792.042    5.8144411 
    6970    1006.3855   -9867.1289   -9754.8651    9335.3985    12804.536    5.8054334 
    6980    1004.4922    -9866.694   -9754.6414    5270.5743    12821.299    5.7985415 
    6990    986.83533   -9864.5153   -9754.4323    930.47899    12840.666    5.7918237 
    7000    968.34578   -9862.1977   -9754.1773    -4610.143      12860.8    5.7842083 
    7010     988.6898   -9864.1181   -9753.8282   -10794.455    12879.321    5.7753119 
    7020    983.99701   -9863.1737   -9753.4073   -14582.892    12893.637    5.7649389 
    7030    967.67172    -9860.917   -9752.9717    -15206.65    12902.039     5.752104 
    7040    961.00542   -9859.6864   -9752.4848   -12894.952    12904.141    5.7359686 
    7050    985.93181   -9861.8486   -9751.8664   -11035.893    12900.686     5.717145 
    7060    1027.9021   -9865.7695   -9751.1055   -10379.553    12892.349    5.6974605 
    7070    1021.0832    -9864.167   -9750.2636   -7612.7394    12879.496    5.6775279 
    7080    1009.6017   -9862.0184   -9749.3958   -5023.8487    12863.128    5.6558573 
    7090    989.82535   -9858.9072   -9748.4907   -1088.6827    12844.415    5.6318317 
    7100    992.44377   -9858.2457   -9747.5371    4733.8561    12825.029    5.6065401 
    7110    1017.7468   -9860.0657   -9746.5345     10387.45    12807.375    5.5828977 
    7120      1048.05   -9862.5264   -9745.6149    13465.627    12793.775    5.5649817 
    7130    1029.2334   -9859.7109   -9744.8984    15584.186    12785.675    5.5546434 
    7140    1000.2808   -9855.9921   -9744.4092    16185.041    12784.022    5.5504042 
    7150    1037.8581   -9859.8558   -9744.0812    13674.762    12789.106    5.5498391 
    7160    1091.5141   -9865.6867   -9743.9267    8844.1534    12800.007    5.5531969 
    7170    1045.4204   -9860.5978   -9743.9795    5166.6335     12814.91    5.5621941 
    7180    1017.8641   -9857.7206   -9744.1763    562.71955    12832.236    5.5747783 
    7190    1047.3094   -9861.2738   -9744.4449    -6454.882    12849.994    5.5859055 
    7200    1011.8091   -9857.6441   -9744.7753   -11365.038    12865.367    5.5916428 
    7210    1028.3617   -9859.9473    -9745.232   -14261.218    12876.158    5.5889251 
    7220    1027.6728   -9860.5075   -9745.8691   -14199.984    12881.082     5.577384 
    7230    1004.9183   -9858.7746   -9746.6745   -11756.184    12880.063    5.5586672 
    7240    976.27927   -9856.4362   -9747.5308   -10901.514    12873.879    5.5344082 
    7250    985.60643   -9858.2985   -9748.3526   -11442.357    12862.877    5.5062814 
    7260    1016.1217   -9862.5507   -9749.2008   -11330.518    12846.862    5.4773187 
    7270    970.43483   -9858.2808   -9750.0274   -6922.8296    12826.009     5.449936 
    7280    978.93627   -9859.9129    -9750.711   -2550.6156    12801.971     5.424201 
    7290    1034.0517   -9866.6451   -9751.2951    2117.0221    12776.647    5.4001778 
    7300    1005.0222   -9863.8874   -9751.7757    9621.5146    12752.156    5.3775063 
    7310    1007.6492   -9864.5627    -9752.158     14634.07    12731.468    5.3546544 
    7320    1012.5846    -9865.499   -9752.5437    15989.419    12716.679    5.3332929 
    7330    992.36977   -9863.6578   -9752.9574    16699.396    12708.491    5.3176489 
    7340     1002.041    -9865.198   -9753.4188    15987.562    12707.185    5.3095991 
    7350    995.02378    -9864.921   -9753.9246    13921.666    12712.515    5.3080478 
    7360    1001.1111   -9866.1487   -9754.4733    9910.6172    12723.607    5.3114163 
    7370    957.26127   -9861.7692   -9754.9852     6412.203    12738.978    5.3189238 
    7380    949.70601   -9861.3155   -9755.3744    19.014116    12757.035     5.328258 
    7390    1004.7003   -9867.7055   -9755.6297   -7605.2184    12775.196    5.3376423 
    7400    997.55632   -9867.1303   -9755.8513   -12739.975    12790.365    5.3473854 
    7410    967.59802   -9864.0284   -9756.0914   -15419.321     12800.32    5.3566436 
    7420    963.48983   -9863.8356   -9756.3569   -15361.601    12803.918    5.3642187 
    7430    950.44811   -9862.6338   -9756.6099   -14044.525    12801.072    5.3692702 
    7440    992.11685   -9867.5517   -9756.8796   -12992.416     12792.25    5.3709139 
    7450    978.12938   -9866.2938    -9757.182   -9509.3263    12778.009    5.3692581 
    7460    952.72871    -9863.737   -9757.4587   -4592.4198    12759.767    5.3631358 
    7470    985.06583   -9867.5646    -9757.679   -868.65308    12739.486    5.3515678 
    7480    980.86495   -9867.2825   -9757.8656    2045.8552    12718.775    5.3358492 
    7490    977.05227   -9867.0287    -9758.037    4615.4381    12698.895    5.3177728 
    7500    990.45866    -9868.689   -9758.2019    6803.8335    12680.881    5.2994313 
    7510    951.61228   -9864.4968    -9758.343    10278.115    12665.716     5.283093 
    7520    939.31886   -9863.2148   -9758.4323    13792.162    12654.798    5.2697213 
    7530    976.99882   -9867.4918   -9758.5061    14777.382    12649.463    5.2590937 
    7540    975.14955   -9867.4001   -9758.6207    14907.039    12650.203    5.2502989 
    7550    985.34436   -9868.7279   -9758.8113     12637.76    12657.006    5.2423187 
    7560    988.81475    -9869.373   -9759.0692    8725.0182    12668.982     5.234636 
    7570    967.48755   -9867.2868   -9759.3621     4623.735    12684.611    5.2264172 
    7580    1010.5005   -9872.3901   -9759.6672   -1718.6878    12702.114    5.2179779 
    7590    1003.6799   -9871.9669   -9760.0049   -7051.3017     12718.98    5.2119265 
    7600    935.72877   -9864.7478   -9760.3658   -10167.914    12733.034    5.2089726 
    7610    930.29285   -9864.4426   -9760.6671   -13349.479    12742.859    5.2066376 
    7620    948.27685     -9866.68   -9760.8983   -16047.623    12747.111     5.202167 
    7630    950.13783   -9867.1244    -9761.135   -16668.252    12744.732    5.1944336 
    7640    947.36701   -9867.1032    -9761.423    -15945.65    12735.428    5.1844188 
    7650    947.79974   -9867.4713   -9761.7429   -13207.377     12719.56    5.1738322 
    7660    978.41068   -9871.2353   -9762.0921   -9122.4042    12698.284    5.1642818 
    7670     963.7645   -9869.9641   -9762.4548   -2760.3255     12673.39     5.157267 
    7680    919.06093   -9865.2582   -9762.7356    3907.3964    12647.473    5.1521645 
    7690    922.64698   -9865.7777    -9762.855    8780.1359    12623.251    5.1474224 
    7700    978.81531   -9872.0333    -9762.845    11968.427     12602.74     5.143205 
    7710    1010.0191   -9875.5287   -9762.8595    14088.198    12587.196    5.1409231 
    7720    917.49852   -9865.2722   -9762.9238    17902.434    12577.571    5.1407222 
    7730    925.55163   -9866.2209   -9762.9742    17855.906    12575.133    5.1396093 
    7740    981.81875   -9872.5234        -9763    15298.632    12579.876    5.1359826 
    7750    938.13742   -9867.6878   -9763.0372    14201.089      12590.9    5.1303959 
    7760     966.0936    -9870.815   -9763.0458    8133.2943    12607.434    5.1235539 
    7770    978.18395   -9872.0702   -9762.9523    1125.2117    12627.162     5.119061 
    7780    938.00187   -9867.4047   -9762.7692   -4014.8467    12647.319    5.1194187 
    7790    978.78361   -9871.6758    -9762.491   -10355.587    12665.628    5.1236322 
    7800     929.2323   -9865.7903    -9762.133   -13256.278    12679.667    5.1305228 
    7810    902.61927   -9862.4145    -9761.726   -14649.784    12688.186    5.1363076 
    7820     988.5731    -9871.512   -9761.2352   -16822.182    12690.545    5.1373644 
    7830    951.91733   -9866.9098   -9760.7219   -14494.785    12686.129    5.1340349 
    7840    930.22167   -9863.9701   -9760.2024   -11607.273    12675.812    5.1262174 
    7850    1011.4313   -9872.4035   -9759.5768   -10428.595    12660.737     5.113066 
    7860    995.45496   -9869.9585    -9758.914   -5283.2557    12641.692    5.0954094 
    7870    969.95878   -9866.4626   -9758.2623    581.42041    12620.719     5.074656 
    7880    997.61245   -9868.8678   -9757.5826     4036.623    12600.154    5.0537265 
    7890    987.62003   -9867.0771   -9756.9066    7603.4539     12581.51    5.0366199 
    7900    977.03214   -9865.2575   -9756.2681    11600.198     12566.23    5.0253409 
    7910    997.38618   -9866.9497   -9755.6898    13748.092    12555.769    5.0192565 
    7920     990.0341   -9865.6612   -9755.2214    16012.261    12551.009    5.0163654 
    7930    993.22998   -9865.6735   -9754.8772    17229.375    12552.745    5.0143613 
    7940    995.78438   -9865.7072   -9754.6259    14276.277    12561.262    5.0124572 
    7950     1003.554   -9866.3933   -9754.4453    9103.3198    12575.375    5.0111157 
    7960    985.54471   -9864.2252   -9754.2862     3501.381    12592.978    5.0113405 
    7970    984.91299   -9863.9705    -9754.102   -2021.3587    12611.791    5.0128443 
    7980     1007.531    -9866.274   -9753.8824   -7230.2302    12629.535    5.0146534 
    7990    1009.8484   -9866.3488   -9753.6987   -11130.305    12644.132    5.0157265 
    8000    1004.4413   -9865.6517   -9753.6048   -14349.396     12653.99    5.0148415 
    8010    968.19572   -9861.6023   -9753.5986   -15742.947      12657.9    5.0114215 
    8020    970.54748   -9861.9274   -9753.6613   -17324.584    12655.281    5.0054418 
    8030    1002.5305   -9865.6466   -9753.8128   -17705.911    12645.655    4.9979989 
    8040    983.58493   -9863.7949   -9754.0745   -14066.423     12629.09    4.9903656 
    8050    961.07057   -9861.5582   -9754.3493   -6874.4161    12607.196    4.9822497 
    8060    969.06492   -9862.6225   -9754.5218   -462.60146    12582.852    4.9730404 
    8070    995.37913   -9865.6594   -9754.6233    4207.5688    12558.708    4.9640078 
    8080    991.23359   -9865.2992   -9754.7256    9946.0272    12536.764    4.9572873 
    8090     960.8304   -9862.0023   -9754.8202    15097.877    12519.205    4.9524137 
    8100     994.1326   -9865.8598   -9754.9628    16407.917    12507.871    4.9483399 
    8110     982.8048   -9864.8566   -9755.2232    16763.008    12503.288    4.9467912 
    8120    951.13258   -9861.7088   -9755.6085     15129.84    12505.389    4.9485608 
    8130    967.13626   -9863.9677   -9756.0822    13161.364    12513.518    4.9520441 
    8140    979.85224   -9865.9384   -9756.6345     9626.531    12526.728    4.9558702 
    8150    987.66568   -9867.4381   -9757.2625    4008.8002    12543.546    4.9592591 
    8160    980.11258   -9867.2829   -9757.9499   -2092.5483    12561.718    4.9609443 
    8170    951.59443   -9864.8101   -9758.6583   -7417.7835    12578.794    4.9588286 
    8180    952.17882   -9865.5865   -9759.3695   -12005.826    12592.629    4.9523897 
    8190     961.1008   -9867.3161   -9760.1038   -15040.491    12601.441    4.9441906 
    8200    954.82027   -9867.4052   -9760.8936   -16036.725    12604.078    4.9377118 
    8210     923.4783   -9864.6865   -9761.6711   -14504.064     12600.27    4.9347401 
    8220    938.11691   -9867.0438   -9762.3954   -14871.955    12590.545    4.9345313 
    8230    935.75965   -9867.4527   -9763.0673   -13828.676        12575     4.935523 
    8240    920.45902   -9866.3148   -9763.6362   -8944.3814    12554.268    4.9359403 
    8250    930.48011    -9867.828   -9764.0315   -3189.0144    12530.303    4.9360654 
    8260    946.00147   -9869.7721   -9764.2442    2094.5861    12505.491    4.9368083 
    8270    988.07412   -9874.5731   -9764.3519    4607.7004    12481.895    4.9374931 
    8280    1005.9676   -9876.6906   -9764.4734    6782.8528    12460.588    4.9366202 
    8290    939.21776   -9869.3732    -9764.602    10830.428    12442.457    4.9322057 
    8300     922.7258   -9867.5987   -9764.6672    13878.508     12428.91    4.9237991 
    8310    963.15764   -9872.1158   -9764.6741    15775.583    12421.063    4.9145229 
    8320    975.30104   -9873.4958   -9764.6995     16713.92    12419.557    4.9077242 
    8330    967.45641   -9872.7005   -9764.7793    14578.848    12424.551    4.9036327 
    8340    951.52284   -9871.0072   -9764.8634    10068.519    12435.147    4.9014937 
    8350    928.63091   -9868.4534   -9764.8632    4136.8111    12449.502    4.9007336 
    8360    941.27393   -9869.7192   -9764.7187   -2548.7077    12465.228    4.9009078 
    8370    979.40181   -9873.7007    -9764.447   -7716.5298     12479.75    4.9026258 
    8380    964.40594   -9871.7029   -9764.1219   -9889.5968    12491.079    4.9063896 
    8390    926.79346   -9867.1297   -9763.7444   -11262.802    12498.333    4.9105738 
    8400    960.55157   -9870.4076   -9763.2567   -15026.474    12500.891    4.9127247 
    8410    979.37015   -9871.9153   -9762.6651    -16846.09    12497.494    4.9124442 
    8420    965.77855   -9869.7523   -9762.0183   -14782.605    12487.563    4.9105867 
    8430    971.24125    -9869.609   -9761.2656   -9992.1636    12471.973    4.9085007 
    8440    973.74172   -9868.9721   -9760.3497   -4014.9293    12452.699    4.9068907 
    8450    971.06453   -9867.6251   -9759.3014    381.95072      12432.1    4.9055488 
    8460    984.25681   -9867.9909   -9758.1956    2100.9245    12411.888    4.9041293 
    8470    976.48822    -9866.035   -9757.1063    4091.6994     12392.87    4.9029932 
[...]
   22890    986.01776   -9977.4266   -9867.4348   -999.11316    11171.061    11.776164 
   22900    966.60672   -9975.1248   -9867.2984   -2628.3464    11175.746    11.754097 
   22910      970.529    -9975.363    -9867.099   -5514.0276    11179.631    11.728744 
   22920    991.82019   -9977.4675   -9866.8284   -6509.7773    11181.855    11.703238 
   22930    987.04034   -9976.6009   -9866.4951   -5235.8199    11182.105    11.681481 
   22940     1013.187   -9979.1549   -9866.1323   -5482.5865    11180.607    11.664041 
   22950    972.64662   -9974.2382    -9865.738   -3460.8967    11177.397    11.651407 
   22960    955.52194   -9971.8723   -9865.2824   -1687.1471    11172.998    11.641807 
   22970    996.40277   -9975.8498   -9864.6996   -53.378361    11167.992     11.63335 
   22980    991.98043   -9974.6976   -9864.0407    3291.8663    11162.947    11.628106 
   22990    992.10515   -9974.0361   -9863.3653    7208.6905    11158.897    11.629674 
   23000    1014.9912   -9975.9127   -9862.6889    9120.2079    11157.047    11.636369 
   23010    1039.3845   -9978.0253   -9862.0804    9438.5243    11158.085    11.640869 
   23020    1007.7074   -9974.0164   -9861.6051    9192.5905    11162.187    11.637467 
   23030    974.13087   -9969.8898    -9861.224    6521.7748    11169.278     11.62621 
   23040    1023.1628   -9974.9897   -9860.8543    636.53737    11178.528    11.611668 
   23050    1027.5515   -9975.1384   -9860.5135   -4011.4911    11188.193    11.599037 
   23060     1001.644   -9972.0035   -9860.2686   -6098.0101    11196.802    11.587541 
   23070    1000.8883   -9971.7482   -9860.0976   -7976.4526    11203.558    11.574116 
   23080    986.89968   -9970.0624   -9859.9722   -9261.6787    11207.836      11.5589 
   23090    1025.5438   -9974.3332   -9859.9322   -10440.044    11209.153    11.547368 
   23100    1017.9659   -9973.5594   -9860.0038   -9596.5329    11207.136    11.549078 
   23110    1003.8776   -9972.1726   -9860.1885    -5287.754    11202.066    11.565425 
   23120    1018.3073   -9974.0466   -9860.4529   -915.61166    11195.205    11.588847 
   23130    1007.4529   -9973.1756   -9860.7928     1152.674    11187.872    11.610239 
   23140    998.19435   -9972.5619   -9861.2118    1257.6642    11180.737     11.62591 
   23150    988.97938    -9972.025   -9861.7029    2532.3472    11173.957    11.637307 
   23160    1003.4039   -9974.1781   -9862.2469    4623.8091    11167.936    11.645217 
   23170    1026.9953   -9977.4663   -9862.9034     6615.637    11163.302    11.649782 
   23180    982.24652   -9973.2051    -9863.634    9728.0123    11160.784    11.648859 
   23190    1016.4065   -9977.8327    -9864.451    9057.3722    11161.248    11.639673 
   23200    997.58703   -9976.6217   -9865.3394    7392.9078    11164.642    11.625855 
   23210    971.20587   -9974.5434   -9866.2039    4581.4421    11170.442    11.611465 
   23220    993.22286   -9977.8203   -9867.0248    762.31139    11177.787    11.600121 
   23230    980.22929   -9977.1448   -9867.7988   -1589.0836    11185.547    11.597711 
   23240    948.24911   -9974.2454   -9868.4668   -3333.2712    11192.924     11.60859 
   23250    946.45398   -9974.5525   -9868.9741   -4483.6887     11199.35    11.632907 
   23260    984.22904    -9979.149   -9869.3568   -7327.6659     11204.35    11.664688 
   23270    998.35156   -9981.0675   -9869.6999   -9650.5751    11207.044    11.696096 
   23280    955.70855   -9976.6379   -9870.0271   -8462.0492    11206.743    11.723484 
   23290    949.77887   -9976.2506   -9870.3013   -7617.9597    11203.659    11.746764 
   23300     966.6263   -9978.3614   -9870.5327   -6458.8292     11198.07    11.767471 
   23310    963.77272   -9978.2612   -9870.7509   -3759.0718    11190.355    11.783437 
   23320    973.58421   -9979.5848     -9870.98   -514.74797    11181.357    11.789637 
   23330    966.43149   -9978.9915   -9871.1846    2400.8764    11172.078    11.783324 
   23340    968.53087   -9979.3636   -9871.3226    4122.1042    11163.456    11.763398 
   23350    962.83345   -9978.7806    -9871.375    5353.6796    11156.091    11.732958 
   23360    960.27468   -9978.4814   -9871.3614    7131.9398    11150.407    11.698396 
   23370    970.81806   -9979.6061   -9871.3099    8349.1147    11146.956    11.667046 
   23380     983.5721   -9980.9951   -9871.2761     8608.717    11146.134    11.643292 
   23390    957.55998   -9978.0916   -9871.2744    8952.4395    11148.074    11.625104 
   23400    966.22204   -9979.0854   -9871.3019    8095.3403    11152.881    11.603641 
   23410    966.29187    -9979.113   -9871.3217    5874.4961    11160.317    11.573386 
   23420     960.3681   -9978.4449   -9871.3144    1384.0796    11169.671    11.537302 
   23430    967.79742   -9979.2092     -9871.25   -4144.5172    11179.545    11.504396 
   23440    972.67312   -9979.6372   -9871.1341   -6751.9775    11188.247    11.481859 
   23450     939.0046   -9975.7262   -9870.9788   -5679.9122    11194.946    11.468961 
   23460    942.42731   -9975.8852    -9870.756    -5024.423    11199.851    11.459713 
   23470    976.02028   -9979.3235   -9870.4469   -5274.1433    11203.131    11.452384 
   23480    963.44798   -9977.5625   -9870.0885    -5011.854    11204.741    11.449126 
   23490    976.08795   -9978.5726   -9869.6885   -5941.0182    11204.713     11.45255 
   23500    1021.7828   -9983.2374   -9869.2559   -7861.8552    11202.716    11.467423 
   23510    967.90614   -9976.8028   -9868.8314   -3808.8742     11198.35    11.496422 
   23520    921.37572   -9971.1315   -9868.3507     1293.426    11192.747    11.532308 
   23530    975.27142   -9976.4932   -9867.7002    2328.2701      11187.4    11.566621 
   23540    994.86393    -9977.877   -9866.8984    1954.9111    11182.732    11.596026 
   23550    1006.3468   -9978.3132   -9866.0537    1830.1058    11178.664    11.617803 
   23560    994.58618   -9976.1401   -9865.1925    2502.9094    11175.177    11.630576 
   23570    965.35072   -9972.0149   -9864.3286     3830.519    11172.495    11.636535 
   23580    988.59696   -9973.7166   -9863.4371    4573.6196     11171.01    11.638037 
   23590     990.7869   -9973.0684   -9862.5446    4646.4414    11170.977    11.635781 
   23600    990.83484   -9972.2519   -9861.7228    4018.5017    11172.443    11.631165 
   23610    1007.2723    -9973.348   -9860.9853    1897.4638    11175.184    11.628474 
   23620    1016.0696   -9973.7197   -9860.3756    22.299764    11178.565    11.629482 
   23630    1020.6571   -9973.7729    -9859.917    760.08607    11182.062    11.631589 
   23640    1057.3555    -9977.581   -9859.6314    782.94888    11185.805    11.630142 
   23650    1020.2097   -9973.3271   -9859.5212    1012.9622    11189.857    11.622139 
   23660     983.9649   -9969.2738    -9859.511   -327.87349     11194.22    11.607099 
   23670    1016.1488   -9972.8886   -9859.5356   -3966.5223    11198.448    11.588779 
   23680     1010.274   -9972.3073   -9859.6097   -6400.8528    11201.477    11.574614 
   23690    1033.3224   -9975.0567    -9859.788   -7334.1176    11202.488    11.570019 
   23700     1026.212   -9974.5606   -9860.0851   -7339.5402    11201.161    11.577309 
   23710    977.01291   -9969.4339   -9860.4467   -6605.8385    11197.472    11.595574 
   23720    1018.0634    -9974.397   -9860.8305   -6297.4637    11191.586    11.622083 
   23730    1026.7323   -9975.8116   -9861.2781   -2553.4526    11183.732    11.655783 
   23740    969.41857   -9969.8609   -9861.7208    3175.6127    11175.067    11.691709 
   23750     979.1374   -9971.3371   -9862.1129     5178.365    11167.253    11.721948 
   23760    998.17375   -9973.8121   -9862.4643    5950.3639    11161.035    11.743213 
   23770    1033.8347    -9978.186   -9862.8601    5129.4833    11156.612    11.758512 
   23780    1015.0755   -9976.5599   -9863.3267    6436.6139    11153.903    11.774191 
   23790    985.09686    -9973.698    -9863.809    6423.2462    11153.207    11.787665 
   23800    998.82724    -9975.685   -9864.2643    4768.1727    11154.522    11.792146 
   23810    1000.6546   -9976.3404   -9864.7158    3473.1082    11157.398    11.788248 
   23820    977.88668   -9974.2283   -9865.1436    3331.7738    11161.481    11.780694 
   23830    1000.9022   -9977.1961    -9865.544    1321.6581     11166.63    11.772212 
   23840    992.33708   -9976.6256   -9865.9289    188.39658    11172.287    11.764154 
   23850     961.6737   -9973.5452   -9866.2691   -1139.1388    11178.054    11.755343 
   23860    988.97145    -9976.879   -9866.5577   -4537.1999     11183.44    11.743423 
   23870    986.58703   -9976.8746   -9866.8194   -4314.9721    11187.544    11.728203 
   23880    996.14868   -9978.2229    -9867.101   -3198.2624    11190.305    11.708902 
   23890    975.01521    -9976.156   -9867.3916   -2934.9489    11192.013    11.688342 
   23900     937.7004   -9972.2184   -9867.6165   -3809.7457    11192.757    11.671707 
   23910    983.34796   -9977.4875   -9867.7935   -7202.7248    11192.159    11.662247 
   23920    972.84918   -9976.4782   -9867.9555   -6553.0441    11189.356    11.661463 
   23930    978.17856   -9977.2512   -9868.1339   -3688.4855    11184.461    11.664854 
   23940    986.76845   -9978.3867   -9868.3112   -203.74923    11178.357    11.666072 
   23950    977.89264   -9977.5877   -9868.5023    3385.1452    11172.143    11.660821 
   23960    966.69395   -9976.5124   -9868.6762     5411.948    11166.912    11.649005 
   23970    978.54592   -9978.0061   -9868.8478    7054.0091    11163.367    11.631822 
   23980    955.21648   -9975.5584   -9869.0026      8753.04    11162.064    11.609599 
   23990     977.7576   -9978.2216   -9869.1513    8830.3027    11163.531    11.581592 
   24000    984.36908   -9979.0933   -9869.2854    6883.1904    11167.813    11.550521 
   24010    977.91115   -9978.4989   -9869.4115    3294.5958    11174.311    11.521366 
   24020    986.78208   -9979.6236   -9869.5466    -1271.948    11181.904    11.497682 
   24030    949.65086   -9975.6222   -9869.6872   -4432.5989    11189.193    11.478287 
   24040     938.8336   -9974.5208   -9869.7925   -7554.8607    11195.098    11.458566 
   24050    961.74991   -9977.1291   -9869.8444   -10037.421    11198.626    11.440732 
   24060    977.03205   -9978.8676   -9869.8782   -9952.8545    11199.017    11.433364 
   24070    1003.8012   -9981.9368   -9869.9613    -8293.505    11196.205    11.441093 
   24080    980.45696   -9979.4685   -9870.0971   -4103.0268     11190.76    11.462202 
   24090    960.16866    -9977.364   -9870.2557   -521.55202    11183.927    11.491547 
   24100    934.63443    -9974.631   -9870.3711    1852.2876    11176.833    11.526896 
   24110    961.20627   -9977.6492   -9870.4251    2697.0934    11170.216    11.567766 
   24120    999.21618   -9981.9288   -9870.4647    4504.3776    11164.463    11.612777 
   24130    970.32557   -9978.7784   -9870.5371    7114.5121     11160.15    11.656726 
   24140        976.9   -9979.6244   -9870.6498    5753.5059    11157.945     11.69422 
   24150    984.34583   -9980.6208   -9870.8156    3454.1705    11157.522    11.727201 
   24160    921.54446   -9973.7855   -9870.9859    5017.2284    11158.357    11.758087 
   24170    948.21287   -9976.8843   -9871.1098    3349.4725    11160.715    11.783824 
   24180    982.85937   -9980.8191   -9871.1796    116.93769     11164.14    11.805323 
   24190    974.23189   -9979.9468   -9871.2698     -887.394    11167.705    11.825412 
   24200    958.09795   -9978.2489   -9871.3716    -1719.702    11171.023    11.843465 
   24210     968.6291   -9979.5163   -9871.4642   -3850.0869    11173.789     11.85552 
   24220    955.18092   -9978.0904   -9871.5385   -5366.7158    11175.367    11.857004 
   24230    954.62193    -9978.088   -9871.5985   -4660.7997    11175.302    11.846337 
   24240    970.78806   -9979.9291   -9871.6362    -2382.458    11173.768    11.828245 
   24250    969.72207   -9979.8259    -9871.652    902.65189    11171.486    11.808644 
   24260     980.2314    -9981.021   -9871.6747    1929.0573    11169.378    11.787222 
   24270    939.83547   -9976.5153   -9871.6752    4466.0157    11167.922    11.758425 
   24280    950.97896   -9977.6954   -9871.6122    4909.8787     11167.82    11.714121 
   24290    1002.6113   -9983.3319   -9871.4891    2737.9137    11169.248    11.657556 
   24300    978.59011   -9980.5211   -9871.3579    1254.6846    11171.617    11.604567 
   24310    952.53614    -9977.506   -9871.2492    1212.2815     11174.48    11.566045 
   24320    919.67378   -9973.6734   -9871.0824   -212.43731    11177.728    11.539166 
   24330    956.76004   -9977.5473   -9870.8192   -3607.7343    11180.901    11.517262 
   24340    998.40857   -9981.8586   -9870.4846   -6341.9499    11182.985     11.50043 
   24350    973.42214   -9978.7536   -9870.1669   -5292.1129    11183.149    11.493626 
   24360    964.83503    -9977.491   -9869.8622   -4162.2236    11181.593    11.499696 
   24370     976.6194   -9978.4756   -9869.5322   -3133.8788    11178.677    11.518853 
   24380    942.20369    -9974.268   -9869.1638    650.17111    11174.816    11.547929 
   24390    942.28492   -9973.8265   -9868.7132    2482.7495    11171.065    11.580196 
   24400    1012.0279   -9981.0641   -9868.1708    1481.7205    11168.001    11.611918 
   24410    1015.8073   -9980.9479    -9867.633    2591.9825    11165.434    11.645774 
   24420    973.12875    -9975.729    -9867.175    5619.9718    11163.722    11.683035 
   24430    962.91892   -9974.1521   -9866.7371    5658.5184    11163.713    11.719032 
   24440    980.31955   -9975.6294   -9866.2733    4212.1384    11165.501    11.749174 
   24450    998.57342   -9977.1963   -9865.8039    2104.9798    11168.663     11.77028 
   24460    1018.8867   -9979.0341   -9865.3757    -375.1966     11172.54    11.781354 
   24470     1000.329   -9976.6154   -9865.0272   -1093.1434    11176.416    11.785487 
   24480    977.76917    -9973.815   -9864.7434    -1457.909    11180.004    11.784358 
   24490    984.14891   -9974.2718   -9864.4885   -1693.6157    11183.186    11.776026 
   24500    978.24251   -9973.3703   -9864.2459   -1971.5522    11185.877    11.759893 
   24510    1004.1856   -9976.0379   -9864.0195    -5055.001    11187.885    11.739733 
   24520    1019.0638   -9977.4918   -9863.8137   -8419.0365    11188.283    11.723319 
   24530    991.23239   -9974.2507   -9863.6773   -7142.3577    11186.099    11.713253 
   24540    956.15602   -9970.2123   -9863.5516   -2799.8173    11181.672    11.703539 
   24550    991.32862   -9973.9924   -9863.4082   -260.04963    11176.213    11.691956 
   24560    1014.1356   -9976.4054    -9863.277    1717.6525    11170.578    11.683988 
   24570    1013.2307   -9976.2528   -9863.2254    3892.7977    11165.425    11.684106 
   24580    1018.6525   -9976.9098   -9863.2776    4770.5661    11161.426    11.693526 
   24590    1016.0843   -9976.8112   -9863.4655    4120.6607    11158.862    11.712695 
   24600    999.90445   -9975.3237   -9863.7828    5221.3204    11157.666     11.74161 
   24610    970.72102   -9972.4845   -9864.1991    7038.3548    11158.166    11.777314 
   24620    946.11957   -9970.1796   -9864.6386    6161.4177    11160.868    11.812065 
   24630    1019.7052   -9978.8972   -9865.1476    1471.2023    11165.486    11.837444 
   24640    993.23705   -9976.5831   -9865.7861    621.56746    11170.793    11.851137 
   24650    956.50973   -9973.2087   -9866.5086    579.31029    11176.384    11.852778 
   24660    994.88405   -9978.2806   -9867.2998   -2044.1489    11182.155     11.84573 
   24670    974.34078   -9976.8589   -9868.1697   -3469.1279    11187.407    11.835313 
   24680    972.08089   -9977.5016   -9869.0646   -6371.1463    11191.568     11.82094 
   24690    1015.0216   -9983.2648   -9870.0376   -9070.9433    11193.736    11.801764 
   24700    946.36918    -9976.584   -9871.0151   -6115.4958    11193.189    11.779807 
   24710    942.30786    -9976.973   -9871.8571   -4183.5978    11190.608    11.756997 
   24720    988.15105   -9982.8359   -9872.6062   -3362.7878    11186.598    11.739424 
   24730    925.48741   -9976.4663   -9873.2268    -383.4109    11181.503    11.729756 
   24740    938.53053   -9978.3688   -9873.6743    1352.2189    11176.175    11.721055 
   24750    978.15998   -9983.1219   -9874.0067    2394.6115    11171.173    11.707879 
   24760    921.75026   -9977.0475   -9874.2249    6561.5615    11166.978    11.689142 
   24770    955.39981   -9980.9309   -9874.3546    6904.1179    11164.717    11.662517 
   24780    981.20746    -9983.905   -9874.4498    4827.6565    11164.596    11.627907 
   24790    937.74995   -9979.1468   -9874.5394    4508.2353    11166.103    11.587304 
   24800    940.61754    -9979.524   -9874.5967    4058.1413    11169.081    11.542221 
   24810    930.26412   -9978.3588   -9874.5864    4516.2308    11173.455     11.49578 
   24820    906.20932   -9975.5506   -9874.4616    4106.2207    11179.328    11.449779 
   24830    935.40908   -9978.5317   -9874.1854      1001.67    11186.529    11.405301 
   24840    953.04006   -9980.0729   -9873.7598    -2843.353    11194.135    11.366168 
   24850    984.40593   -9983.0975   -9873.2855   -6390.0736    11200.927     11.33827 
   24860    952.11541   -9979.0439   -9872.8339   -8325.5473    11205.788    11.328208 
   24870    927.23496   -9975.8433   -9872.4088   -11049.031    11207.963    11.338215 
   24880    945.21289   -9977.3946   -9871.9547   -13086.731    11206.596    11.367064 
   24890    950.02209   -9977.4666   -9871.4902   -12808.033    11201.021    11.412284 
   24900    963.59929   -9978.5171   -9871.0262   -10345.038    11191.268    11.469671 
   24910    990.25479   -9981.0117   -9870.5472   -4677.1353    11178.137    11.534402 
   24920    961.14347   -9977.2544   -9870.0374    4542.2569    11163.451    11.602266 
   24930    966.95438   -9977.3559   -9869.4907    11443.719    11149.982    11.669878 
   24940    998.45419   -9980.3485   -9868.9694    14352.465    11139.917    11.734412 
   24950    949.03323   -9974.3966   -9868.5306    16749.242    11134.365    11.789243 
   24960    959.79149   -9975.2299   -9868.1637    16710.026    11134.067    11.824702 
   24970    982.86853   -9977.4666   -9867.8262    14319.591    11139.068    11.838364 
   24980    981.44002   -9977.0335   -9867.5524    9542.0842    11148.678    11.835993 
   24990    990.20492   -9977.7656   -9867.3068     3971.229    11161.485    11.826612 
   25000    1003.2125   -9978.9893   -9867.0795   -1774.4097    11175.745    11.815265 
Loop time of 18696.3 on 16 procs for 20000 steps with 864 atoms

Performance: 0.092 ns/day, 259.670 hours/ns, 1.070 timesteps/s
95.8% CPU use with 16 MPI tasks x 1 OpenMP threads

MPI task timing breakdown:
Section |  min time  |  avg time  |  max time  |%varavg| %total
---------------------------------------------------------------
Pair    | 12691      | 16778      | 18285      | 957.4 | 89.74
Bond    | 0.0017405  | 0.0055517  | 0.016506   |   5.1 |  0.00
Neigh   | 0.39188    | 0.41281    | 0.46601    |   3.2 |  0.00
Comm    | 326.12     | 1850.6     | 5961.1     |2894.4 |  9.90
Output  | 1.3279     | 1.3661     | 1.9342     |  12.5 |  0.01
Modify  | 16.831     | 65.629     | 120.62     | 486.9 |  0.35
Other   |            | 0.09345    |            |       |  0.00

Nlocal:        54.0000 ave          58 max          52 min
Histogram: 2 4 0 6 0 2 1 0 0 1
Nghost:        709.125 ave         730 max         693 min
Histogram: 4 1 2 0 1 3 0 3 1 1
Neighs:         0.00000 ave           0 max           0 min
Histogram: 16 0 0 0 0 0 0 0 0 0
FullNghs:      3667.12 ave        4128 max        3457 min
Histogram: 2 3 4 3 2 1 0 0 0 1

Total # of neighbors = 58674
Ave neighs/atom = 67.909722
Ave special neighs/atom = 0.0000000
Neighbor list builds = 2000
Dangerous builds = 2000
unfix   3
                
Total wall time: 6:21:29
