LAMMPS (29 Sep 2021 - Update 3)
OMP_NUM_THREADS environment is not set. Defaulting to 1 thread. (src/comm.cpp:98)
  using 1 OpenMP thread(s) per MPI task
units	metal
atom_style	full

read_data	mixed.data
Reading data file ...
  orthogonal box = (0.0000000 0.0000000 0.0000000) to (15.502212 15.402052 70.841525)
  2 by 1 by 8 MPI processor grid
  reading atoms ...
  864 atoms
Finding 1-2 1-3 1-4 neighbors ...
  special bond factors lj:    0        0        0       
  special bond factors coul:  0        0        0       
     0 = max # of 1-2 neighbors
     0 = max # of 1-3 neighbors
     0 = max # of 1-4 neighbors
     1 = max # of special neighbors
  special bonds CPU = 0.001 seconds
  read_data CPU = 0.015 seconds

pair_style	quip
pair_coeff	* * /ocean/projects/cts180021p/wuziqi/clease/mint-PD/PhaseDiagram-Clease/Liquid/GAP_potential/gap_LiKCl.xml "Potential xml_label=GAP_2021_9_27_0_1_17_37_618" 17 19 3

neighbor	0.3 bin
neigh_modify	delay 10

timestep	0.001
compute	msd all msd
thermo_style	custom step temp pe etotal press vol c_msd[4]
thermo	10
dump	1 all custom 10 xyz-mix.dump type id x y z
dump	2 all custom 10 force-mix.dump type id fx fy fz

fix     1 all nve
run     2000
Neighbor list info ...
  update every 1 steps, delay 10 steps, check yes
  max neighbors/atom: 2000, page size: 100000
  master list distance cutoff = 6.22
  ghost atom cutoff = 6.22
  binsize = 3.11, bins = 5 5 23
  1 neighbor lists, perpetual/occasional/extra = 1 0 0
  (1) pair quip, perpetual
      attributes: full, newton on
      pair build: full/bin
      stencil: full/bin/3d
      bin: standard
Per MPI rank memory allocation (min/avg/max) = 8.904 | 8.909 | 8.916 Mbytes
Step Temp PotEng TotEng Press Volume c_msd[4] 
       0            0   -6414.6092   -6414.6092   -8996.9866    16914.539            0 
      10    95.860065   -6425.3161   -6414.6228   -10882.275    16914.539 0.00077933166 
      20    229.03731    -6440.185   -6414.6355   -12475.142    16914.539 0.0093775226 
      30    249.34477   -6442.4428    -6414.628     -10213.3    16914.539  0.030212741 
      40    248.24655    -6442.315   -6414.6227   -8336.8682    16914.539  0.053808265 
      50    285.14769    -6446.437   -6414.6283   -8615.1952    16914.539  0.072000809 
      60    292.72184   -6447.2808   -6414.6272   -9342.9381    16914.539  0.087153748 
      70    280.17142   -6445.8771   -6414.6236   -9869.2499    16914.539   0.10198109 
      80    281.19207   -6445.9951   -6414.6277    -10294.65    16914.539   0.11798926 
      90    268.26029   -6444.5494   -6414.6246   -9784.8729    16914.539   0.13582886 
     100    263.60742   -6444.0319   -6414.6261   -9260.1077    16914.539   0.15297691 
     110    266.81408   -6444.3885    -6414.625   -9324.2282    16914.539   0.16905869 
     120    277.26539   -6445.5556   -6414.6262   -9888.0881    16914.539    0.1846357 
     130    285.07553   -6446.4267   -6414.6261    -10213.05    16914.539   0.20084172 
     140    284.14138   -6446.3223   -6414.6259   -10193.515    16914.539   0.21791648 
     150    279.03191   -6445.7517   -6414.6253   -10301.408    16914.539   0.23440376 
     160    280.06863   -6445.8685   -6414.6264   -10527.708    16914.539   0.24944995 
     170    273.73993   -6445.1618   -6414.6257   -10301.134    16914.539   0.26342452 
     180    268.00203    -6444.521   -6414.6249   -9641.2173    16914.539    0.2755889 
     190    273.83964   -6445.1737   -6414.6265   -9293.2599    16914.539   0.28642792 
     200    272.45085   -6445.0193    -6414.627   -9401.3798    16914.539   0.29775171 
     210    266.52225   -6444.3555   -6414.6245    -9739.952    16914.539   0.30975692 
     220    277.26483   -6445.5568   -6414.6275   -10274.008    16914.539   0.32155584 
     230    271.03398   -6444.8608   -6414.6265   -10197.129    16914.539   0.33326886 
     240    256.99297   -6443.2921   -6414.6241   -9796.9787    16914.539   0.34420392 
     250      260.518   -6443.6868   -6414.6256   -10082.712    16914.539   0.35319632 
     260    269.24542   -6444.6609   -6414.6262   -10817.477    16914.539   0.36024544 
     270    272.22344   -6444.9933   -6414.6263   -11178.931    16914.539   0.36660869 
     280    269.37878   -6444.6751   -6414.6255   -10808.686    16914.539   0.37346839 
     290    271.00389   -6444.8563   -6414.6254   -10344.777    16914.539   0.38086972 
     300    276.76784   -6445.4999    -6414.626   -10017.839    16914.539   0.38795838 
     310    280.46562   -6445.9129   -6414.6265   -10033.139    16914.539    0.3941169 
     320    277.07214   -6445.5343   -6414.6265   -10046.112    16914.539   0.40018262 
     330    269.95649   -6444.7383   -6414.6242   -9805.4895    16914.539   0.40670818 
     340    277.76904    -6445.612   -6414.6265   -9619.6934    16914.539   0.41197492 
     350    285.05274   -6446.4248   -6414.6267   -9485.1667    16914.539   0.41648156 
     360    281.88575   -6446.0712   -6414.6264   -9140.4937    16914.539   0.42146503 
     370    274.53044   -6445.2493    -6414.625    -8962.175    16914.539   0.42701601 
     380    276.18295   -6445.4346    -6414.626   -9426.8139    16914.539   0.43273687 
     390    277.57134   -6445.5897   -6414.6262   -10070.673    16914.539   0.43923402 
     400     276.8595   -6445.5103   -6414.6262    -10303.89    16914.539   0.44707416 
     410    275.46607   -6445.3545   -6414.6259   -10360.075    16914.539   0.45492711 
     420    275.69775   -6445.3806   -6414.6261   -10312.296    16914.539   0.46006875 
     430    277.65506   -6445.5987   -6414.6258   -10210.723    16914.539   0.46173996 
     440    281.42642   -6446.0203   -6414.6268   -10308.419    16914.539    0.4617939 
     450    276.88831    -6445.514   -6414.6267   -10250.708    16914.539   0.46269964 
     460    270.21574   -6444.7677   -6414.6248   -9929.1914    16914.539   0.46518425 
     470    276.62755   -6445.4853   -6414.6271   -9753.2735    16914.539   0.46909827 
     480    275.65992   -6445.3765   -6414.6262   -9607.8074    16914.539   0.47463575 
     490    271.78497   -6444.9435   -6414.6255   -9553.3315    16914.539   0.48058495 
     500    272.32251   -6445.0046   -6414.6266   -9909.1382    16914.539   0.48553511 
     510    270.37544   -6444.7864   -6414.6256   -10365.506    16914.539   0.48834362 
     520    275.17373   -6445.3223   -6414.6263    -10515.66    16914.539   0.48843099 
     530    278.78936   -6445.7259   -6414.6265   -10437.285    16914.539   0.48792995 
     540    277.10642   -6445.5367   -6414.6251   -10771.458    16914.539   0.48938579 
     550    282.60439   -6446.1508   -6414.6259   -11859.636    16914.539   0.49278637 
     560    285.47147   -6446.4709   -6414.6262   -12796.498    16914.539   0.49690199 
     570    281.74023   -6446.0538   -6414.6252   -13126.326    16914.539   0.50034525 
     580    281.37788   -6446.0138   -6414.6257    -13240.78    16914.539   0.50202219 
     590    281.57404   -6446.0359   -6414.6258   -12844.509    16914.539   0.50251947 
     600    279.80949   -6445.8394   -6414.6262   -12078.209    16914.539   0.50341715 
     610    275.08337   -6445.3114   -6414.6254   -11496.883    16914.539    0.5053235 
     620    273.83436   -6445.1722   -6414.6256   -11201.877    16914.539   0.50732064 
     630    275.31248   -6445.3374   -6414.6259   -11206.933    16914.539   0.50828438 
     640    275.60187     -6445.37   -6414.6262    -11537.36    16914.539   0.50794637 
     650    274.21825   -6445.2155   -6414.6261   -11690.872    16914.539   0.50662649 
     660    272.65227   -6445.0411   -6414.6263   -11698.657    16914.539   0.50518157 
     670     269.8069   -6444.7228   -6414.6254   -11783.391    16914.539   0.50451723 
     680    274.15038   -6445.2075   -6414.6256   -11810.462    16914.539   0.50456436 
     690    280.99552   -6445.9719   -6414.6264   -11861.031    16914.539   0.50555103 
     700    280.63072   -6445.9305   -6414.6257   -11627.854    16914.539   0.50781264 
     710    278.92562   -6445.7406    -6414.626   -11080.463    16914.539   0.51097066 
     720    273.95593   -6445.1857   -6414.6255   -10327.151    16914.539   0.51457431 
     730    270.75852   -6444.8288   -6414.6252   -9765.8913    16914.539   0.51787072 
     740    276.18815   -6445.4342    -6414.625   -9492.6985    16914.539   0.51977351 
     750    290.40662   -6447.0224   -6414.6271   -9560.4488    16914.539   0.52017505 
     760    291.76733   -6447.1737   -6414.6266   -9561.5036    16914.539   0.52117133 
     770    283.11091   -6446.2069   -6414.6254   -9453.5946    16914.539   0.52378958 
     780    279.64758   -6445.8206   -6414.6255   -9604.3927    16914.539   0.52683471 
     790    283.69703   -6446.2721   -6414.6253   -9946.1137    16914.539   0.52917358 
     800    294.07987   -6447.4316   -6414.6265   -10564.719    16914.539   0.53017696 
     810    295.44119   -6447.5838   -6414.6269   -10778.266    16914.539   0.53058912 
     820    284.62085    -6446.375   -6414.6251   -10769.398    16914.539   0.53152004 
     830    283.14102   -6446.2102   -6414.6254    -11181.41    16914.539   0.53258998 
     840    287.99305   -6446.7525   -6414.6265   -11723.574    16914.539   0.53389001 
     850    287.09189   -6446.6515    -6414.626   -11500.578    16914.539   0.53659046 
     860      284.553   -6446.3684    -6414.626   -10897.209    16914.539   0.54081319 
     870    282.67441   -6446.1585   -6414.6257   -10433.812    16914.539   0.54539106 
     880    283.51653   -6446.2522   -6414.6255   -10209.532    16914.539    0.5489499 
     890    288.50338    -6446.809    -6414.626   -10354.377    16914.539   0.55135174 
     900    291.76454   -6447.1726   -6414.6258   -10876.976    16914.539   0.55353637 
     910    292.97848   -6447.3082    -6414.626   -11347.991    16914.539   0.55595171 
     920    291.51405   -6447.1447   -6414.6258   -11398.427    16914.539   0.55853793 
     930    291.60074   -6447.1542   -6414.6257    -11293.91    16914.539   0.56185808 
     940     293.2344   -6447.3372   -6414.6265   -11200.097    16914.539   0.56678171 
     950    287.97843   -6446.7504    -6414.626   -11130.864    16914.539   0.57322831 
     960    283.64605   -6446.2659   -6414.6248   -11250.962    16914.539    0.5801369 
     970    292.04718   -6447.2043    -6414.626   -11840.242    16914.539   0.58714521 
     980    298.10465    -6447.881    -6414.627   -12253.162    16914.539   0.59518368 
     990     291.0629   -6447.0941   -6414.6256   -12038.151    16914.539    0.6045403 
    1000    284.65421   -6446.3788   -6414.6252   -11444.717    16914.539   0.61356144 
    1010    284.88743   -6446.4056    -6414.626    -11257.53    16914.539   0.62075706 
    1020    284.45231   -6446.3572   -6414.6261   -11432.152    16914.539   0.62656562 
    1030    283.20586   -6446.2174   -6414.6254   -11511.221    16914.539   0.63192389 
    1040    287.83552   -6446.7343   -6414.6258   -11667.574    16914.539   0.63739756 
    1050    291.82132   -6447.1799   -6414.6268   -11837.973    16914.539   0.64401168 
    1060    283.59762   -6446.2613   -6414.6256   -11789.256    16914.539   0.65213742 
    1070    276.66662   -6445.4869   -6414.6243   -11806.091    16914.539   0.65985523 
    1080    282.99965   -6446.1952   -6414.6262   -11840.254    16914.539   0.66594809 
    1090    284.44573   -6446.3567   -6414.6263   -11632.042    16914.539   0.67175387 
    1100    278.27382   -6445.6672   -6414.6253   -11480.901    16914.539   0.67800117 
    1110    275.51841   -6445.3596   -6414.6251    -11752.64    16914.539   0.68395064 
    1120    280.64433   -6445.9316   -6414.6253   -12488.193    16914.539   0.68890156 
    1130    288.25028   -6446.7809   -6414.6262   -13418.509    16914.539   0.69291839 
    1140    287.86356   -6446.7373   -6414.6257   -13894.107    16914.539   0.69647294 
    1150     284.1342   -6446.3207   -6414.6251   -13718.421    16914.539   0.69999552 
    1160    284.54442   -6446.3664    -6414.625   -13274.877    16914.539   0.70441524 
    1170    289.30798   -6446.8989   -6414.6262   -12874.099    16914.539   0.71032926 
    1180    288.40526   -6446.7977   -6414.6256   -12499.771    16914.539   0.71698745 
    1190    288.87345   -6446.8499   -6414.6256   -12393.703    16914.539   0.72286598 
    1200    289.55166   -6446.9266   -6414.6266   -12529.541    16914.539   0.72828782 
    1210    280.56525   -6445.9223   -6414.6249   -12558.433    16914.539   0.73461558 
    1220    279.30484    -6445.782   -6414.6251   -12626.277    16914.539   0.74159765 
    1230    283.14385   -6446.2112   -6414.6261    -12562.24    16914.539   0.74841645 
    1240    281.80648   -6446.0608   -6414.6249   -12023.389    16914.539   0.75444294 
    1250     287.2171   -6446.6653   -6414.6258   -11729.343    16914.539   0.75867551 
    1260    291.37697   -6447.1294   -6414.6258   -11960.648    16914.539    0.7611503 
    1270     290.7704   -6447.0612   -6414.6254   -12380.586    16914.539   0.76288707 
    1280    289.55224   -6446.9258   -6414.6258   -12882.375    16914.539    0.7645348 
    1290    287.09987   -6446.6515   -6414.6251   -12907.605    16914.539   0.76662403 
    1300     288.7486   -6446.8364   -6414.6261    -12351.66    16914.539   0.76992192 
    1310     286.5441   -6446.5899   -6414.6255   -11746.932    16914.539   0.77514416 
    1320    286.76446   -6446.6147   -6414.6256   -11616.487    16914.539     0.782071 
    1330    287.70548   -6446.7204   -6414.6264    -11836.58    16914.539   0.79015066 
    1340    282.63252   -6446.1531    -6414.625   -11799.148    16914.539   0.79849012 
    1350    284.43132   -6446.3541   -6414.6254   -11987.933    16914.539   0.80587623 
    1360    290.10013   -6446.9873   -6414.6262   -12175.108    16914.539   0.81222683 
    1370    288.39934   -6446.7972   -6414.6258   -12215.241    16914.539   0.81788554 
    1380    282.88925   -6446.1815   -6414.6247   -12046.377    16914.539   0.82275667 
    1390    283.76927   -6446.2807   -6414.6258   -12356.549    16914.539   0.82695931 
    1400    284.16314   -6446.3247   -6414.6258   -12558.911    16914.539   0.83096223 
    1410    282.88017   -6446.1807    -6414.625   -12245.265    16914.539   0.83439005 
    1420     289.0508   -6446.8696   -6414.6256   -12006.917    16914.539   0.83692973 
    1430    296.30837   -6447.6802   -6414.6265   -12125.384    16914.539   0.83971571 
    1440    294.95766   -6447.5284   -6414.6255   -12272.826    16914.539   0.84385839 
    1450    294.31334   -6447.4568   -6414.6257   -12376.112    16914.539   0.84859385 
    1460    293.05239   -6447.3161   -6414.6256   -12629.004    16914.539   0.85302956 
    1470    291.25758   -6447.1162   -6414.6259   -13083.249    16914.539    0.8570116 
    1480    286.64819   -6446.6016   -6414.6255   -13428.045    16914.539   0.86066862 
    1490    283.52532   -6446.2528   -6414.6252   -13496.705    16914.539   0.86430477 
    1500     286.3633   -6446.5701   -6414.6258   -13624.975    16914.539   0.86918451 
    1510    287.48957    -6446.696   -6414.6261   -13700.531    16914.539   0.87693222 
    1520      283.311   -6446.2294   -6414.6257   -13763.966    16914.539   0.88681719 
    1530    278.93423   -6445.7409   -6414.6254    -13749.08    16914.539    0.8961479 
    1540    279.24322   -6445.7753   -6414.6253   -13602.367    16914.539   0.90287427 
    1550    284.34307   -6446.3451   -6414.6262   -13438.713    16914.539   0.90704945 
    1560    286.61186   -6446.5976   -6414.6256   -13327.774    16914.539   0.90952163 
    1570    288.64067   -6446.8242   -6414.6259   -13235.348    16914.539   0.91064836 
    1580    289.00905   -6446.8647   -6414.6253   -13276.193    16914.539   0.91132952 
    1590    292.22619   -6447.2238   -6414.6255   -13462.144    16914.539   0.91275471 
    1600    296.71233   -6447.7243   -6414.6256   -13630.138    16914.539   0.91602557 
    1610    298.76154   -6447.9536   -6414.6263   -13722.427    16914.539   0.92135086 
    1620    292.39065   -6447.2423   -6414.6257   -13309.957    16914.539   0.92745789 
    1630    287.36199   -6446.6803   -6414.6246   -12820.554    16914.539   0.93230372 
    1640    296.02429   -6447.6483   -6414.6263   -13120.327    16914.539   0.93527841 
    1650    300.16791   -6448.1107   -6414.6265   -13790.323    16914.539   0.93826144 
    1660    293.71858   -6447.3901   -6414.6253    -14241.14    16914.539   0.94282849 
    1670    288.35047   -6446.7915   -6414.6256   -14455.623    16914.539   0.94858717 
    1680    282.73321   -6446.1651   -6414.6258   -14172.658    16914.539   0.95453176 
    1690    275.72229   -6445.3823   -6414.6251   -13627.921    16914.539   0.95952727 
    1700    277.97595   -6445.6333   -6414.6247   -13300.724    16914.539   0.96211871 
    1710    291.05049   -6447.0941    -6414.627    -13269.73    16914.539   0.96263565 
    1720    289.50874   -6446.9216   -6414.6265   -13136.603    16914.539    0.9641931 
    1730     279.6014   -6445.8141   -6414.6241    -12984.07    16914.539   0.96762806 
    1740    285.21215   -6446.4421   -6414.6263   -12956.522    16914.539    0.9714688 
    1750    286.63852   -6446.6019   -6414.6269    -12491.03    16914.539   0.97542993 
    1760    276.86406   -6445.5095   -6414.6249   -11731.805    16914.539   0.97865163 
    1770    278.27156   -6445.6664   -6414.6248   -11664.802    16914.539   0.98004953 
    1780    292.12948   -6447.2142   -6414.6268   -12328.976    16914.539   0.98151253 
    1790    296.31795   -6447.6809   -6414.6262   -12931.917    16914.539   0.98612529 
    1800    292.55667   -6447.2612    -6414.626   -13640.461    16914.539   0.99403792 
    1810    285.79514   -6446.5059    -6414.625   -14229.526    16914.539    1.0030771 
    1820    288.12419   -6446.7662   -6414.6256   -14597.158    16914.539    1.0110949 
    1830    292.85204   -6447.2945   -6414.6264   -14639.212    16914.539    1.0174953 
    1840    289.21054   -6446.8874   -6414.6255   -13970.459    16914.539    1.0218515 
    1850    287.11754   -6446.6534    -6414.625   -13100.598    16914.539    1.0231482 
    1860    292.11589   -6447.2121   -6414.6262   -12689.719    16914.539    1.0216815 
    1870    291.24456   -6447.1151   -6414.6264    -12380.18    16914.539    1.0194153 
    1880    284.36534   -6446.3461   -6414.6247   -12152.672    16914.539    1.0178874 
    1890     288.1505   -6446.7696    -6414.626   -12357.505    16914.539    1.0174891 
    1900    290.81767   -6447.0678   -6414.6266   -12569.765    16914.539    1.0188537 
    1910    284.40865   -6446.3521   -6414.6259   -12506.032    16914.539    1.0221045 
    1920    279.51829   -6445.8054   -6414.6247   -12334.547    16914.539    1.0260227 
    1930    286.47358   -6446.5831   -6414.6265   -12454.296    16914.539    1.0290399 
    1940    288.06715   -6446.7604    -6414.626   -12717.705    16914.539    1.0306657 
    1950    286.25893   -6446.5579   -6414.6253   -12605.082    16914.539    1.0306186 
    1960    289.99788   -6446.9755   -6414.6258   -12348.209    16914.539    1.0295042 
    1970    293.21828    -6447.335    -6414.626   -12071.048    16914.539    1.0291662 
    1980    292.53599   -6447.2583   -6414.6255   -11867.242    16914.539    1.0306618 
    1990    292.57928   -6447.2634   -6414.6257   -12029.322    16914.539    1.0338136 
    2000    292.21203   -6447.2225   -6414.6258   -12394.635    16914.539    1.0382092 
Loop time of 1570.67 on 16 procs for 2000 steps with 864 atoms

Performance: 0.110 ns/day, 218.148 hours/ns, 1.273 timesteps/s
97.0% CPU use with 16 MPI tasks x 1 OpenMP threads

MPI task timing breakdown:
Section |  min time  |  avg time  |  max time  |%varavg| %total
---------------------------------------------------------------
Pair    | 932.92     | 1256.3     | 1568.5     | 471.7 | 79.98
Bond    | 0.00015688 | 0.00050208 | 0.0017886  |   0.0 |  0.00
Neigh   | 0.026249   | 0.036425   | 0.055797   |   3.9 |  0.00
Comm    | 1.9281     | 288.67     | 637.56     | 937.2 | 18.38
Output  | 0.13826    | 15.881     | 37.272     | 373.9 |  1.01
Modify  | 0.008601   | 0.010629   | 0.01349    |   1.3 |  0.00
Other   |            | 9.798      |            |       |  0.62

Nlocal:        54.0000 ave          73 max          37 min
Histogram: 1 0 1 2 5 5 0 0 1 1
Nghost:        565.875 ave         657 max         471 min
Histogram: 1 1 0 5 2 2 0 2 1 2
Neighs:         0.00000 ave           0 max           0 min
Histogram: 16 0 0 0 0 0 0 0 0 0
FullNghs:      2887.12 ave        4564 max        1794 min
Histogram: 1 3 4 2 2 0 2 0 0 2

Total # of neighbors = 46194
Ave neighs/atom = 53.465278
Ave special neighs/atom = 0.0000000
Neighbor list builds = 199
Dangerous builds = 198
unfix   1

velocity    all create 862.5 1312343 dist gaussian
fix     2 all npt temp 862.5 862.5 $(100.0*dt) aniso 0.0 1.01325 $(1000.0*dt)
fix     2 all npt temp 862.5 862.5 0.10000000000000000555 aniso 0.0 1.01325 $(1000.0*dt)
fix     2 all npt temp 862.5 862.5 0.10000000000000000555 aniso 0.0 1.01325 1
run     3000
Per MPI rank memory allocation (min/avg/max) = 8.905 | 8.910 | 8.916 Mbytes
Step Temp PotEng TotEng Press Volume c_msd[4] 
    2000        862.5   -6447.2225   -6351.0093    -8377.388    16914.539    1.0382092 
    2010    730.05883   -6432.4133   -6350.9742   -4102.2343    16911.357    1.0481945 
    2020     584.9452   -6415.9807   -6350.7292    955.20499    16904.795    1.0672054 
    2030    575.91274   -6414.3674   -6350.1235     989.1645    16898.659    1.0823865 
    2040    577.62058   -6413.5564   -6349.1219    333.86399    16893.328     1.093907 
    2050    550.58453   -6409.3599   -6347.9414    917.38236    16888.368    1.1044407 
    2060    538.76751   -6406.9243    -6346.824    2048.2441    16884.191    1.1137786 
    2070    556.29545   -6407.8586    -6345.803    2509.4047    16881.668    1.1213559 
    2080    591.10229   -6410.7243   -6344.7859    1794.8067     16881.14    1.1286571 
    2090    597.44332   -6410.3426   -6343.6969    1778.5475    16882.175    1.1386368 
    2100    604.64871    -6409.973   -6342.5235    1536.8561    16884.683    1.1505411 
    2110    610.60095   -6409.3602   -6341.2467    1428.5391    16888.501    1.1617042 
    2120    605.55714   -6407.4584   -6339.9076    2174.3505    16893.594    1.1701557 
    2130    617.75975   -6407.4385   -6338.5265    1958.8399    16900.442    1.1744269 
    2140    649.71217   -6409.5559   -6337.0795    546.94552    16908.869     1.175303 
    2150    649.41393   -6408.0374   -6335.5943    314.70837    16917.901    1.1754858 
    2160     630.7854   -6404.5103   -6334.1452     1186.266    16927.338    1.1750293 
    2170    658.19836   -6406.0996   -6332.6766    439.02147    16937.672    1.1729109 
    2180    673.46301   -6406.2591   -6331.1332   -702.67637    16948.399    1.1719467 
    2190     667.1864   -6404.0136    -6329.588   -1115.0767    16958.639    1.1731908 
    2200    679.41124   -6403.8208   -6328.0314    -894.4867    16968.021    1.1749256 
    2210    678.20528   -6402.1099   -6326.4551     156.1083    16976.746    1.1771372 
    2220    677.54381   -6400.4681    -6324.887    1109.7554    16985.623    1.1797989 
    2230    693.50265   -6400.6645   -6323.3033    738.82492    16995.357    1.1834605 
    2240    700.53379   -6399.8416    -6321.696   -96.121161    17005.712    1.1897595 
    2250    703.77255   -6398.6064   -6320.0995   -417.98174    17016.057    1.1970322 
    2260    709.89468   -6397.6798     -6318.49   -530.21049    17026.085    1.2026197 
    2270    718.53595   -6397.0145   -6316.8607   -808.19045    17035.667    1.2070795 
    2280    714.90383   -6394.9678   -6315.2192   -693.02701    17044.611    1.2109704 
    2290    719.89717   -6393.8961   -6313.5905    -477.9648    17052.964    1.2146089 
    2300    705.13273   -6390.6233   -6311.9647    27.004829    17060.955    1.2210611 
    2310     699.6568   -6388.3924   -6310.3446    7.6646675    17068.922    1.2302425 
    2320    711.90915    -6388.102   -6308.6875    46.893201    17076.906    1.2387731 
    2330    736.39732    -6389.143   -6306.9968   -232.88775    17084.878    1.2438956 
    2340     760.7609   -6390.1611   -6305.2971   -542.74511    17092.625    1.2471447 
    2350    772.67678   -6389.8274   -6303.6342   -270.99061    17099.935    1.2508337 
    2360    781.11377   -6389.1466   -6302.0122   -195.39195    17106.969     1.254429 
    2370    794.00348   -6388.9955   -6300.4232   -698.37763     17113.76    1.2581256 
    2380    803.38405   -6388.4764   -6298.8577   -612.47021    17119.968    1.2659199 
    2390    792.42585   -6385.7313    -6297.335    250.09345    17125.671    1.2805955 
    2400    770.31829   -6381.7829   -6295.8528    1220.0697     17131.57    1.2999672 
    2410    769.53487   -6380.2145   -6294.3718    1497.1015    17138.423    1.3175299 
    2420     784.7613   -6380.3892   -6292.8479    1410.0146    17146.492    1.3289059 
    2430    804.05998   -6381.0005   -6291.3064    1394.0518    17155.691    1.3328988 
    2440    793.79355   -6378.3386   -6289.7898    2247.8319    17166.087    1.3316402 
    2450    808.39095   -6378.4869   -6288.3097    2655.7723    17178.278    1.3284147 
    2460    827.15031   -6379.1037   -6286.8338    2786.6934    17192.627    1.3276329 
    2470    841.75558   -6379.2989   -6285.3998    2703.6069    17209.222    1.3299488 
    2480    848.46739   -6378.6752   -6284.0273    2693.9874    17227.998     1.334115 
    2490    856.51454   -6378.2699   -6282.7244    1966.1702    17248.859    1.3396072 
    2500    858.89252   -6377.2855   -6281.4747    962.24877    17271.182    1.3486296 
    2510    837.81812   -6373.7449   -6280.2851    327.12748    17294.117    1.3637736 
    2520    822.24666   -6370.8504   -6279.1276   -339.59703    17317.063    1.3802432 
    2530    826.14761   -6370.1147   -6277.9567   -1068.6662    17339.428    1.3947381 
    2540    828.81611   -6369.2153   -6276.7596    -1617.165     17360.59     1.409572 
    2550    838.92976   -6369.1365   -6275.5526   -1747.2455    17380.112     1.424595 
    2560    868.22347   -6371.1908   -6274.3391   -2282.6984    17397.792    1.4383162 
    2570     861.9246    -6369.318    -6273.169     -1911.44    17413.318    1.4521536 
    2580    846.82948   -6366.5451     -6272.08   -1535.0545    17426.944    1.4652281 
    2590    855.15124    -6366.413   -6271.0196   -1861.5913    17438.975    1.4759499 
    2600    853.14194   -6365.1425   -6269.9732   -1963.3919    17449.224    1.4871301 
    2610    844.29948   -6363.1495   -6268.9667   -1358.9616    17457.648    1.5011837 
    2620    814.02941   -6358.7689   -6267.9627   -547.65452    17464.773    1.5150122 
    2630    823.45156   -6358.7972   -6266.9399   -1272.1343    17471.169    1.5228292 
    2640    856.68711   -6361.4213   -6265.8566   -2154.4232    17476.334    1.5250751 
    2650    866.20271   -6361.4048   -6264.7786   -1694.0198    17479.632    1.5269786 
    2660    869.58169   -6360.7518   -6263.7486   -973.51877    17481.419    1.5328711 
    2670    902.21972   -6363.4134   -6262.7694   -1641.4882    17482.182     1.544836 
    2680    910.35795   -6363.4248    -6261.873    -2303.662    17481.512    1.5625303 
    2690    936.01586   -6365.5399    -6261.126     -2413.98     17478.87      1.58266 
    2700    900.67971   -6361.0142    -6260.542    -763.0954    17474.295    1.6036635 
    2710    856.82347    -6355.657   -6260.0771    906.14813    17469.127    1.6211739 
    2720    862.19227   -6355.8011   -6259.6223    865.44142     17464.71    1.6324417 
    2730     898.9246   -6359.4391   -6259.1627    158.84183    17461.089    1.6412966 
    2740     912.6141   -6360.5754   -6258.7719    365.61165    17457.737    1.6537968 
    2750    876.65069   -6356.2702   -6258.4785    1520.6838    17454.836    1.6701178 
    2760    876.23506   -6355.9873    -6258.242    1928.5158     17453.26    1.6838309 
    2770    888.94195   -6357.1994   -6258.0366    1552.4653    17453.349    1.6923078 
    2780    890.43399   -6357.2146   -6257.8854    926.97701    17454.799    1.6981483 
    2790    914.03077   -6359.7724   -6257.8109   -350.07146    17456.997    1.7031486 
    2800    923.85279   -6360.9131   -6257.8559    -801.5494    17458.933    1.7100609 
    2810     908.6848   -6359.4024   -6258.0372   -321.66354    17460.226     1.719913 
    2820    916.03886   -6360.5275    -6258.342   -390.73154    17461.173     1.732529 
    2830    902.56991   -6359.4418   -6258.7587   -31.497143    17461.816      1.74938 
    2840    877.89752   -6357.1773   -6259.2465    360.84339    17462.429    1.7673741 
    2850    858.88689   -6355.5676   -6259.7575    130.33408    17463.321    1.7825742 
    2860    851.77595   -6355.2614   -6260.2445   -703.43159    17464.282    1.7932718 
    2870    883.21308   -6359.2576   -6260.7339   -1445.4142     17464.62    1.8003999 
    2880    896.32864    -6361.263   -6261.2762   -1286.2994    17463.757      1.81053 
    2890    882.43756   -6360.3184   -6261.8811   -691.31526    17461.807    1.8262391 
    2900    867.62819   -6359.2972   -6262.5119    -279.4872    17459.277     1.843953 
    2910    864.56746   -6359.5848    -6263.141   -274.54832    17456.517    1.8608019 
    2920    876.11763    -6361.503   -6263.7707   -141.75373    17453.584     1.872499 
    2930    897.08271   -6364.5124   -6264.4414    -473.3938    17450.535    1.8736182 
    2940    889.67687   -6364.4206   -6265.1758   -695.13531    17447.149    1.8693614 
    2950    883.93963   -6364.5626   -6265.9578   -1373.2001    17443.158    1.8688591 
    2960    878.79115   -6364.7999   -6266.7694   -1849.0226    17438.056    1.8727202 
    2970    866.52288   -6364.2574   -6267.5955   -1735.7938    17431.452    1.8771546 
    2980    853.91237   -6363.6418   -6268.3865   -776.89211    17423.517    1.8794482 
    2990    849.10177   -6363.8417   -6269.1231   -278.66312    17414.986    1.8804885 
    3000    841.43636   -6363.6606   -6269.7971    324.75074    17406.373    1.8842578 
    3010    854.09055   -6365.7025   -6270.4274    284.97485    17398.138    1.8947405 
    3020    852.16174   -6366.0867   -6271.0268    -363.0543    17390.259    1.9105782 
    3030    863.30872   -6367.9103   -6271.6069   -1583.0165     17382.14     1.926302 
    3040    886.55392    -6371.108   -6272.2116   -2376.9785    17372.808    1.9410393 
    3050    870.97632   -6370.0148   -6272.8561   -1729.5056    17361.672    1.9587808 
    3060    839.68939   -6367.1505   -6273.4819   -210.64475    17349.281    1.9785418 
    3070    837.52685   -6367.4692   -6274.0418    646.08761    17336.848    1.9963077 
    3080    839.39132   -6368.1758   -6274.5405    691.25719    17325.118     2.009744 
    3090    830.12299   -6367.5792   -6274.9777    850.11919    17314.188    2.0177579 
    3100     837.0785   -6368.7236   -6275.3463    833.76804    17304.146    2.0189495 
    3110    844.66615   -6369.8894   -6275.6656    398.76357    17294.944    2.0170494 
    3120    851.06096   -6370.8836   -6275.9465     59.01404    17286.228    2.0172321 
    3130    862.82247   -6372.4613   -6276.2121    534.88625    17277.736     2.021047 
    3140    848.29445   -6371.0872   -6276.4586    1783.0325    17269.883    2.0299248 
    3150    830.36413   -6369.2983     -6276.67    2233.3752    17263.623    2.0420864 
    3160    824.67767   -6368.8111   -6276.8171    2002.6993    17259.337     2.054104 
    3170    830.43191   -6369.5284   -6276.8925    1613.5853    17256.832    2.0662126 
    3180    827.66502   -6369.2235   -6276.8963    1822.1697    17255.809    2.0782113 
    3190    839.59949   -6370.4915    -6276.833     2050.088    17256.385    2.0888127 
    3200    851.92402   -6371.7527   -6276.7193    1849.5424    17258.708     2.098776 
    3210    853.77133   -6371.8207   -6276.5813    1578.3502    17262.597    2.1089522 
    3220    841.54376   -6370.2968   -6276.4214    2139.2621    17267.907    2.1165057 
    3230    840.94057   -6370.0346   -6276.2264    2151.3615    17274.978    2.1213261 
    3240    859.22276   -6371.8319   -6275.9843    1231.9234    17283.762    2.1243533 
    3250    852.78394   -6370.8423   -6275.7129    1097.1874    17293.602    2.1273299 
    3260    841.37797   -6369.2831   -6275.4261    1126.1317    17304.318    2.1325073 
    3270    847.16027   -6369.5993   -6275.0973    1060.1903    17315.919     2.141109 
    3280     853.0084   -6369.8858   -6274.7315    1126.4085     17328.36    2.1499602 
    3290    855.72562   -6369.8013   -6274.3438    604.38984    17341.621    2.1554388 
    3300    868.09896    -6370.777   -6273.9393   -197.41672    17355.291    2.1568671 
    3310    879.75507    -6371.681    -6273.543   -873.44449    17368.694    2.1566784 
    3320    857.95409   -6368.8823   -6273.1762   -621.08301    17381.313    2.1593332 
    3330    843.63519   -6366.9335   -6272.8247     177.0695    17393.312    2.1700226 
    3340    833.82434   -6365.4544     -6272.44    1441.6358     17405.42    2.1931783 
    3350    850.62448   -6366.8976   -6272.0091    1598.9631    17418.609    2.2232466 
    3360     852.2125    -6366.598   -6271.5325    808.32164    17433.045    2.2523796 
    3370    858.74347   -6366.8225   -6271.0284   -1102.8778    17447.988    2.2760178 
    3380    867.34461   -6367.2563   -6270.5027   -2506.1935    17461.864    2.2931079 
    3390    837.04403    -6363.347   -6269.9735   -2328.2994    17473.524    2.3052327 
    3400    840.91527   -6363.2316   -6269.4263   -2279.7177    17482.998    2.3173876 
    3410    859.76466   -6364.7389   -6268.8308   -2205.7884    17490.383    2.3371756 
    3420    846.93109   -6362.7013   -6268.2248   -1712.7548    17495.786    2.3641474 
    3430    836.79431   -6360.9587    -6267.613   -1193.3926    17499.631    2.3909006 
    3440    851.74072   -6361.9836   -6266.9707   -1298.4787    17502.325    2.4107713 
    3450    868.87459   -6363.2335   -6266.3092   -1863.8716    17503.813    2.4218095 
    3460    897.53904   -6365.8016   -6265.6798    -2639.927    17503.613    2.4260951 
    3470    885.86183   -6363.9405   -6265.1213   -2062.4784    17501.204    2.4308395 
    3480    874.32527   -6362.1671   -6264.6348    -932.5165    17497.023    2.4381377 
    3490    890.77723   -6363.5428   -6264.1752    4.9030408    17492.064    2.4491628 
    3500     876.6739   -6361.5376   -6263.7433    677.42516    17487.168    2.4658767 
    3510    886.44592   -6362.2445   -6263.3601    654.20205    17482.871    2.4855032 
    3520    906.63771   -6364.1683   -6263.0315    99.724754    17479.158     2.508709 
    3530    902.19807   -6363.4501   -6262.8086    424.08348    17475.657    2.5370594 
    3540    888.89357    -6361.837   -6262.6796    1497.5647    17472.637    2.5694808 
    3550    885.93889   -6361.4399   -6262.6121    2300.5302    17470.946    2.6036287 
    3560    886.17215   -6361.4467   -6262.5928    2883.5381    17471.309    2.6376081 
    3570    894.94511   -6362.4786   -6262.6461    3019.8374    17474.161    2.6689595 
    3580    858.63908    -6358.528   -6262.7456    3637.5361    17479.718    2.6958749 
    3590    847.98905   -6357.4467   -6262.8523    3180.7262    17488.355    2.7140376 
    3600     881.6786   -6361.2957   -6262.9432    1829.0826    17499.663    2.7204357 
    3610       897.47   -6363.1911   -6263.0769    1646.7061    17512.595    2.7180527 
    3620    883.09956   -6361.7955   -6263.2844    1471.0587    17526.861    2.7155758 
    3630    916.25662   -6365.7768    -6263.567   -401.35757     17542.16    2.7185394 
    3640    914.02908   -6365.9139   -6263.9526   -1370.7663    17557.037    2.7310714 
    3650    877.49604   -6362.3275   -6264.4415    -739.6583    17570.689    2.7492924 
    3660    862.06192   -6361.1295   -6264.9652   -121.93564    17583.569    2.7653654 
    3670    854.96639   -6360.8562   -6265.4834   -88.606804    17596.203    2.7779291 
    3680    854.52334    -6361.302   -6265.9786   -771.70163    17608.606    2.7910058 
    3690    853.53969   -6361.6619   -6266.4482   -1394.2929    17620.224    2.8103915 
    3700    849.05464   -6361.6031   -6266.8898   -1420.2038    17630.549    2.8368691 
    3710    853.22455   -6362.4824    -6267.304   -1530.7375    17639.508    2.8646634 
    3720    856.29733   -6363.2148   -6267.6936   -1987.5743    17646.984    2.8887746 
    3730    840.57563   -6361.8178   -6268.0503   -1790.4692    17652.675    2.9095095 
    3740    842.46424   -6362.3479   -6268.3697   -1567.0022    17656.689    2.9280773 
    3750    840.12953   -6362.3546   -6268.6369   -1632.3603    17659.248    2.9437527 
    3760    844.79065   -6363.1023   -6268.8647   -2022.2933    17660.314    2.9531886 
    3770    846.51688    -6363.484   -6269.0537   -2796.4218    17659.521    2.9559554 
    3780    838.50521   -6362.7505    -6269.214   -3775.9331    17656.176    2.9574657 
    3790    827.57024   -6361.6462   -6269.3295   -4065.5025    17649.497    2.9591431 
    3800    835.01831   -6362.5407   -6269.3932   -3784.7971    17639.216     2.957846 
    3810    829.42147   -6361.9124   -6269.3891   -2761.9452    17625.647    2.9533058 
    3820    833.39398   -6362.2833   -6269.3169   -2533.4983    17609.603    2.9456007 
    3830    848.97883   -6363.8875   -6269.1826   -2589.6645    17591.358    2.9348802 
    3840    852.19326   -6364.0663   -6269.0029   -1654.5307    17571.004    2.9254718 
    3850    865.02152   -6365.2876   -6268.7932   -1144.9255    17549.255    2.9222241 
    3860    876.24549   -6366.3267   -6268.5802   -1099.7981     17526.59    2.9260291 
    3870    865.42579   -6364.9218   -6268.3822   -1085.2484    17503.114    2.9355002 
    3880    863.19438   -6364.4898   -6268.1992   -1423.4967     17478.82    2.9457163 
    3890    868.57916   -6364.9157   -6268.0244   -1335.5155    17453.492    2.9561388 
    3900     859.8872   -6363.7735   -6267.8517   -299.27257    17427.273    2.9715664 
    3910    857.63513   -6363.3285    -6267.658    726.18805    17401.021    2.9901586 
    3920     859.9035   -6363.3523   -6267.4287    1554.5139    17375.638    3.0087584 
    3930    875.30686   -6364.8271   -6267.1853     1656.335     17351.79    3.0272026 
    3940     879.9682   -6365.1135   -6266.9517    1807.9461    17329.622    3.0457252 
    3950    873.14518   -6364.1606     -6266.76    2579.3802    17309.294    3.0604726 
    3960     872.6595   -6363.9314   -6266.5849    2750.3999    17291.361      3.06979 
    3970    888.09163   -6365.5092   -6266.4413    2217.8271    17275.945    3.0782142 
    3980    910.32774   -6367.9127   -6266.3643     1483.988    17262.567     3.090389 
    3990    917.33499   -6368.7282   -6266.3981    1140.0878    17250.612    3.1079318 
    4000    892.33377   -6366.0914   -6266.5502    2112.6553    17239.866    3.1314071 
    4010    882.58791   -6365.2309   -6266.7769    3280.9635    17231.045    3.1593731 
    4020    895.19352   -6366.9219   -6267.0617     3699.808    17225.062    3.1895463 
    4030    897.46834   -6367.5491   -6267.4351    4274.6993    17222.357    3.2200376 
    4040    895.29099   -6367.7787   -6267.9077    4104.9006    17223.291    3.2498875 
    4050     885.6175   -6367.2561   -6268.4642    3600.3404    17227.735    3.2800862 
    4060    876.72428   -6366.8716   -6269.0717     2728.123     17235.23    3.3094134 
    4070    878.19991   -6367.6637   -6269.6992    1028.4435     17244.96    3.3379888 
    4080    880.10791   -6368.5151   -6270.3378    -381.3995    17255.528    3.3666093 
    4090    869.78075   -6367.9934   -6270.9681    -547.2754     17265.79     3.394615 
    4100    865.00051   -6368.0862   -6271.5941   -316.25118    17275.544    3.4188092 
    4110    850.59596   -6367.0622    -6272.177    29.686056    17284.983    3.4376271 
    4120    839.99575   -6366.3901   -6272.6873     85.88645    17294.358    3.4517528 
    4130    842.57254   -6367.1092    -6273.119   -232.32286    17303.722    3.4628569 
    4140    851.63647   -6368.4886   -6273.4873    -950.8773    17312.798    3.4719173 
    4150    859.30641   -6369.6704   -6273.8135   -1822.4789    17320.981    3.4830967 
    4160    858.09358   -6369.8402   -6274.1185   -2293.7272    17327.561    3.4995466 
    4170    859.75205   -6370.3123   -6274.4057   -2457.4831    17332.143    3.5219825 
    4180      877.624   -6372.5948   -6274.6946   -3072.7999    17334.516    3.5493532 
    4190    881.48455   -6373.3498   -6275.0189    -2914.491    17334.268    3.5819401 
    4200    849.79609   -6370.1547   -6275.3587   -1991.8756    17331.557    3.6184785 
    4210    854.39194   -6370.9863   -6275.6776   -1898.5696    17327.063     3.652459 
    4220    867.24467   -6372.7279   -6275.9855   -1884.9976     17320.93    3.6810253 
    4230    851.97143   -6371.3294   -6276.2907   -1249.6071     17313.23    3.7038762 
    4240    833.51534   -6369.5408   -6276.5609   -5.9106888    17304.548    3.7207816 
    4250    831.26055   -6369.4951   -6276.7668    754.34829    17295.868    3.7349625 
    4260    836.56572    -6370.226   -6276.9059    1091.9206    17287.851    3.7543335 
    4270    837.87447   -6370.4577   -6276.9915     1383.957    17280.818    3.7825756 
    4280    839.20913   -6370.6383   -6277.0232    1493.0816    17275.013    3.8168362 
    4290    847.38543   -6371.5394   -6277.0123    1623.7825    17270.512    3.8506993 
    4300     851.7468   -6371.9792   -6276.9655    1964.2641    17267.455    3.8790095 
    4310    851.88174   -6371.9178   -6276.8891    1950.9456    17266.085    3.9027085 
    4320      842.881   -6370.8058   -6276.7812    2082.7609    17266.427    3.9262807 
    4330    834.37865   -6369.7002    -6276.624    2067.8962    17268.575    3.9497983 
    4340    823.51891   -6368.2548   -6276.3901    1948.8703    17272.531     3.969457 
    4350    830.10283   -6368.6495   -6276.0503    1039.9039     17278.12    3.9829873 
    4360    863.85022   -6371.9607   -6275.5969   -292.05617    17284.595    3.9932524 
    4370    879.19672   -6373.1423   -6275.0666   -889.27364    17290.894    4.0047111 
    4380    884.66689   -6373.2078   -6274.5219   -923.64147    17296.458    4.0190399 
    4390    879.32431   -6372.0689    -6273.979    29.349449    17301.318    4.0389431 
    4400    864.39497    -6369.866   -6273.4414    842.59056    17306.181    4.0610052 
    4410      847.204   -6367.3864   -6272.8796    1712.8029    17311.802    4.0757208 
    4420    848.83836   -6366.9499   -6272.2607    1343.4089    17318.823     4.079966 
    4430    872.57885   -6368.9167   -6271.5792   -332.98909    17326.927    4.0814337 
    4440    867.14211    -6367.599    -6270.868   -1247.3243     17334.84    4.0894916 
    4450    876.16433   -6367.9096   -6270.1721   -1538.5341    17341.731    4.1068964 
    4460    895.74782   -6369.4275   -6269.5055   -2002.7303    17347.264    4.1304864 
    4470    906.56025   -6370.0597   -6268.9315   -2034.8858    17351.091     4.156564 
    4480    899.60659    -6368.839   -6268.4865   -1755.4473    17353.175    4.1851854 
    4490    882.18621   -6366.5669   -6268.1577   -1626.8673    17353.722    4.2172495 
    4500    867.96609   -6364.7225   -6267.8996   -1218.4293    17352.872     4.255388 
    4510    853.28855   -6362.8578   -6267.6722    -524.3718    17350.983    4.2977553 
    4520    861.23413   -6363.5303   -6267.4583   -433.67971    17348.585    4.3378332 
    4530    857.73856     -6362.93    -6267.248   -194.68845     17345.83    4.3707309 
    4540    855.53158   -6362.4956   -6267.0598    1.4832247    17342.889     4.393514 
    4550    841.20742   -6360.7007   -6266.8628    440.65841    17339.979    4.4067055 
    4560    837.38723   -6360.0575   -6266.6457    182.01569    17337.392    4.4097417 
    4570    829.93161   -6358.9668   -6266.3867   -327.51066    17334.936    4.4110686 
    4580    836.09203   -6359.3581   -6266.0908   -541.03958    17332.198     4.420155 
    4590    849.32324   -6360.5073    -6265.764   -569.58501    17328.994    4.4361962 
    4600    860.38827    -6361.417   -6265.4394   -548.46472    17325.286    4.4567803 
    4610    857.75164   -6360.8304   -6265.1469   -76.525625    17321.111    4.4806531 
    4620    838.91327   -6358.4608   -6264.8788    838.84204    17316.908    4.5061109 
    4630    848.86673   -6359.3127   -6264.6204    561.59669    17313.321     4.530145 
    4640    856.88367   -6359.9579   -6264.3713    95.922065    17310.203    4.5482986 
    4650     883.0965   -6362.6697   -6264.1589     131.3999    17307.189    4.5583783 
    4660     896.2298   -6363.9888    -6264.013    425.44996    17304.307    4.5684309 
    4670    903.03737   -6364.6952     -6263.96   -203.52236    17301.705     4.588719 
    4680    906.75322   -6365.1549   -6264.0052    -636.0754    17298.932    4.6205235 
    4690     920.4332   -6366.8261   -6264.1504   -875.75052    17295.598    4.6552052 
    4700    916.45387   -6366.6374   -6264.4056   -309.49893    17291.539    4.6851569 
    4710    888.06541   -6363.7949   -6264.7299    1108.1676    17287.259    4.7085377 
    4720    882.53698   -6363.5213    -6265.073    2147.5696    17283.902    4.7249276 
    4730    883.79119   -6364.0092    -6265.421    2629.5533    17282.375    4.7358783 
    4740    891.46862   -6365.2393   -6265.7947    2414.1292    17283.067     4.747089 
    4750    872.12577   -6363.4737   -6266.1868    2900.9377    17285.946    4.7660235 
    4760    874.00853   -6364.0732   -6266.5762    2358.6947    17291.296    4.7907741 
    4770    894.56568    -6366.769   -6266.9788     967.3667    17298.677    4.8157806 
    4780    874.96867   -6364.9839   -6267.3798    424.03505    17307.039    4.8377147 
    4790    877.83875   -6365.7208   -6267.7965     375.0932    17315.865    4.8545077 
    4800    878.97626    -6366.262   -6268.2109    515.18384    17325.103    4.8680492 
    4810    883.78438   -6367.2289   -6268.6414    263.66905    17334.829     4.879982 
    4820    879.25681   -6367.1624     -6269.08   -421.41181    17344.824     4.887858 
    4830    874.98361   -6367.1163   -6269.5106    -1035.097    17354.525    4.8886777 
    4840    884.79552   -6368.6412    -6269.941   -1548.0875    17363.387    4.8898551 
    4850    869.46546   -6367.3664   -6270.3762   -1679.6872    17370.999    4.9027038 
    4860    848.38169   -6365.4197   -6270.7815   -1912.7021    17377.169    4.9291434 
    4870    841.14413   -6364.9446   -6271.1137   -2264.4405    17381.672     4.963215 
    4880    843.08556   -6365.4352   -6271.3877   -2290.2869    17384.236    5.0005998 
    4890    841.92256   -6365.5213   -6271.6036   -2266.6821    17384.824    5.0377213 
    4900    853.58083    -6366.988   -6271.7698   -2757.0897    17383.369    5.0673162 
    4910    860.78289   -6367.9383   -6271.9167   -2604.3385    17379.526    5.0884792 
    4920    841.69045   -6365.9347   -6272.0429   -1775.3495    17373.427    5.1065346 
    4930     832.3528    -6364.965   -6272.1148   -1200.8141    17365.735     5.122569 
    4940    843.44886   -6366.2094   -6272.1214   -1527.0997    17356.876    5.1329018 
    4950    857.93132   -6367.7923   -6272.0888   -2088.4167    17346.635    5.1312067 
    4960    863.77627   -6368.4023   -6272.0467   -1947.5388    17334.597    5.1191251 
    4970    870.51913   -6369.1173   -6272.0096    -1346.788    17320.839    5.1060573 
    4980    867.27312    -6368.735   -6271.9894     -960.508    17305.846    5.1000005 
    4990    844.23059   -6366.1476   -6271.9724   -254.80648    17290.027    5.1033892 
    5000    856.79385   -6367.5075   -6271.9309   -743.60511    17273.851    5.1131004 
Loop time of 2501.33 on 16 procs for 3000 steps with 864 atoms

Performance: 0.104 ns/day, 231.605 hours/ns, 1.199 timesteps/s
96.4% CPU use with 16 MPI tasks x 1 OpenMP threads

MPI task timing breakdown:
Section |  min time  |  avg time  |  max time  |%varavg| %total
---------------------------------------------------------------
Pair    | 1860.9     | 2170.8     | 2463.9     | 399.7 | 86.79
Bond    | 0.0002284  | 0.00078812 | 0.0019217  |   0.0 |  0.00
Neigh   | 0.04108    | 0.047169   | 0.060964   |   2.8 |  0.00
Comm    | 36.807     | 221.8      | 639.27     |1131.3 |  8.87
Output  | 0.19935    | 0.2042     | 0.2762     |   4.1 |  0.01
Modify  | 0.32743    | 108.44     | 230.19     | 908.3 |  4.34
Other   |            | 0.016      |            |       |  0.00

Nlocal:        54.0000 ave          72 max          43 min
Histogram: 2 1 2 4 4 1 0 1 0 1
Nghost:        551.188 ave         631 max         494 min
Histogram: 4 2 2 0 1 2 2 0 2 1
Neighs:         0.00000 ave           0 max           0 min
Histogram: 16 0 0 0 0 0 0 0 0 0
FullNghs:      2746.62 ave        3989 max        1909 min
Histogram: 2 2 2 2 3 2 0 1 1 1

Total # of neighbors = 43946
Ave neighs/atom = 50.863426
Ave special neighs/atom = 0.0000000
Neighbor list builds = 300
Dangerous builds = 300
unfix   2

fix     3 all npt temp 862.5 862.5 $(100.0*dt) aniso 1.01325 1.01325 $(1000.0*dt)
fix     3 all npt temp 862.5 862.5 0.10000000000000000555 aniso 1.01325 1.01325 $(1000.0*dt)
fix     3 all npt temp 862.5 862.5 0.10000000000000000555 aniso 1.01325 1.01325 1
run     20000
Per MPI rank memory allocation (min/avg/max) = 8.906 | 8.911 | 8.919 Mbytes
Step Temp PotEng TotEng Press Volume c_msd[4] 
    5000    856.79385   -6367.5075   -6271.9309   -743.60511    17273.851    5.1131004 
    5010     869.7983   -6368.9615   -6271.9342   -2162.8278    17273.299    5.1237103 
    5020     867.4004   -6368.7124   -6271.9526   -2728.2105    17270.938     5.135726 
    5030    869.33746    -6368.968   -6271.9921   -2753.0555    17266.226    5.1465638 
    5040    865.73379   -6368.6216   -6272.0477   -2415.7856    17259.152    5.1535497 
    5050    876.90725   -6369.9459   -6272.1256   -2578.1489    17249.943    5.1584832 
    5060    876.95043    -6370.068   -6272.2429   -2405.7976     17238.52    5.1648163 
    5070    871.77446   -6369.6512   -6272.4035   -1557.1525    17225.053    5.1723578 
    5080    866.76375   -6369.2726   -6272.5838   -250.78437    17210.278      5.17647 
    5090     865.9095   -6369.3748   -6272.7812    825.78234    17195.255    5.1747935 
    5100    863.03957   -6369.2619   -6272.9885     1584.584    17180.924    5.1726568 
    5110    865.60864   -6369.7812   -6273.2213    1895.9552    17167.917    5.1773869 
    5120     860.0199   -6369.4187   -6273.4821     2179.007    17156.544    5.1880687 
    5130    834.49154   -6366.8538   -6273.7651     2692.908     17147.06    5.1986679 
    5140     830.3041   -6366.6522   -6274.0306    2724.9986    17139.855    5.2004836 
    5150    873.60054   -6371.7648   -6274.3134    1928.1159    17134.903     5.190828 
    5160    872.57291   -6371.9984   -6274.6616    2572.7924    17131.723    5.1843772 
    5170    858.26894   -6370.8387   -6275.0975     2890.267    17130.718    5.1867531 
    5180     865.6661   -6372.1744   -6275.6081    1649.5881    17132.078    5.1926578 
    5190    883.25348    -6374.747   -6276.2188    150.21023    17134.844    5.2032035 
    5200    882.98236   -6375.4501   -6276.9521    40.144267    17137.873    5.2239086 
    5210    877.03034   -6375.6296   -6277.7956    777.29149    17141.028    5.2532115 
    5220    876.65476   -6376.5102    -6278.718    1082.1318    17144.821    5.2840486 
    5230    871.96867   -6376.9399   -6279.6704    1952.1291    17149.617    5.3136788 
    5240    860.84529   -6376.6215   -6280.5929    3003.6032    17156.108    5.3433602 
    5250    846.52163   -6375.8528   -6281.4221    3713.7261    17165.188    5.3736577 
    5260    850.14477   -6376.9644   -6282.1294    2725.2749    17177.355    5.4023609 
    5270    839.51142   -6376.3578   -6282.7091    1559.6566    17191.913    5.4294743 
    5280    813.21539    -6373.848   -6283.1326    759.92003     17207.91    5.4522499 
    5290    806.55993    -6373.367    -6283.394    92.998573    17224.646     5.468006 
    5300    819.33567   -6374.9027   -6283.5046   -703.18418    17241.532    5.4762054 
    5310    840.07617   -6377.2195   -6283.5077   -1552.6521    17257.878    5.4782888 
    5320    841.11397   -6377.2812   -6283.4537   -2119.0948     17272.98    5.4783217 
    5330    841.53372   -6377.2262   -6283.3518   -3155.7448    17286.251    5.4785741 
    5340    831.68675   -6375.9877   -6283.2118   -3821.7627    17296.851    5.4778722 
    5350    821.29728   -6374.6367   -6283.0197   -3905.7215    17304.184     5.471879 
    5360    818.64485   -6374.0811     -6282.76   -3246.7664    17308.184    5.4613152 
    5370    834.15852     -6375.48   -6282.4284    -2632.685    17309.358    5.4502292 
    5380    861.06998    -6378.098   -6282.0444    -2528.995    17308.197    5.4440093 
    5390    872.99029   -6379.0416   -6281.6583   -2333.7547    17304.838    5.4463927 
    5400    864.19339   -6377.7009   -6281.2988   -2129.4117    17299.437     5.454837 
    5410    882.48174   -6379.4161   -6280.9739    -2640.503    17292.084    5.4591367 
    5420    892.89191   -6380.2988   -6280.6954   -2245.0393    17282.467    5.4549471 
    5430    874.83202   -6378.0724   -6280.4836   -1183.5194    17270.908    5.4478077 
    5440    865.59318   -6376.8726   -6280.3144   -1136.5483    17258.171    5.4468061 
    5450    835.88359   -6373.3833   -6280.1392     -588.459    17244.424    5.4584312 
    5460    824.11438   -6371.8472    -6279.916    350.64398    17230.109    5.4795897 
    5470    826.83862   -6371.8332   -6279.5981    1053.9528     17216.03    5.4990326 
    5480     873.1263    -6376.613   -6279.2145   -22.524722    17202.667    5.5013748 
    5490    909.44454   -6380.2855   -6278.8356   -803.40507    17189.254    5.4878657 
    5500    885.39297   -6377.3012   -6278.5343    388.43433    17175.251    5.4668196 
    5510    860.16817   -6374.2392   -6278.2861    954.99359    17161.443    5.4422467 
    5520     874.5525   -6375.6006    -6278.043    576.77453    17148.329    5.4227017 
    5530    879.08214    -6375.866   -6277.8031    762.12067    17135.691    5.4144931 
    5540    859.81057   -6373.4916   -6277.5784    2172.7431    17123.727    5.4166857 
    5550    854.78202   -6372.6888   -6277.3365    3262.5927    17113.548    5.4218534 
    5560    864.98642   -6373.5641   -6277.0735     3149.734    17105.999    5.4270897 
    5570    860.10042   -6372.7355     -6276.79    3498.9063    17101.151    5.4356425 
    5580    875.41183   -6374.1479   -6276.4944    3246.1481    17099.195    5.4467834 
    5590    878.64544   -6374.1987   -6276.1845    3272.7654    17100.024    5.4589814 
    5600     872.0879   -6373.1615   -6275.8788    4256.7436     17103.73    5.4719751 
    5610    875.61131   -6373.2323   -6275.5566    4632.4273    17111.056    5.4828157 
    5620    884.58752   -6373.8827   -6275.2056    3717.4145    17122.301    5.4910737 
    5630    897.74481   -6374.9767   -6274.8319    2389.6838    17136.799    5.4934741 
    5640    903.48205   -6375.2262   -6274.4414     1284.078    17153.468    5.4879811 
    5650     892.0841   -6373.5682   -6274.0549    1648.7024    17171.507    5.4867814 
    5660    884.88152   -6372.3815   -6273.6717    1829.4943    17191.089    5.5036117 
    5670    872.50928   -6370.5887    -6273.259    1064.8186    17212.343    5.5379743 
    5680    860.22815   -6368.7271   -6272.7673   -135.30698    17234.664     5.573685 
    5690    868.58381   -6369.0725   -6272.1806   -1477.8505    17257.024    5.5985099 
    5700    872.53456     -6368.84   -6271.5075   -2248.2098    17278.314    5.6132948 
    5710    869.47622    -6367.785   -6270.7937   -2542.7733    17297.836    5.6206181 
    5720    886.37562   -6368.9235    -6270.047   -2684.9337      17315.3    5.6211436 
    5730    905.15547   -6370.2811   -6269.3096   -2926.0994    17330.511    5.6200975 
    5740    902.12493   -6369.2836   -6268.6502   -3006.8264    17343.271    5.6264247 
    5750    898.17273   -6368.2896   -6268.0971   -3490.6173    17353.419    5.6420625 
    5760    886.42436   -6366.5203   -6267.6383   -3441.6185    17360.602    5.6615982 
    5770    873.02699   -6364.6467   -6267.2593   -2745.0769    17364.829    5.6823284 
    5780    870.03336    -6363.976   -6266.9225   -1891.1073    17366.661    5.7046583 
    5790     886.4696   -6365.4931   -6266.6061   -1698.7484    17366.782    5.7202098 
    5800    910.53253   -6367.9101   -6266.3388   -2007.6559    17365.376    5.7258128 
    5810    909.34809   -6367.6096   -6266.1705   -2367.8179    17362.202    5.7308205 
    5820    928.28481   -6369.6848   -6266.1333   -3206.4299    17356.892    5.7433289 
    5830    931.33971   -6370.1462   -6266.2538   -3355.9904    17348.811     5.765361 
    5840    917.65366   -6368.9158   -6266.5502   -2691.5831    17337.817    5.7906114 
    5850    895.75876   -6366.8966   -6266.9734   -1816.7531    17324.437    5.8073127 
    5860    896.52755   -6367.4918   -6267.4828   -1381.7204    17309.371    5.8087536 
    5870    886.49697   -6366.9534   -6268.0633   -218.67905    17293.109    5.8063207 
    5880    873.94281   -6366.1645   -6268.6748    1396.8158    17276.655    5.8143068 
    5890    880.93875   -6367.5793   -6269.3092    2176.3453    17261.294    5.8307979 
    5900    866.16711   -6366.5615   -6269.9393    2962.2032    17247.807    5.8451115 
    5910     875.6172   -6368.2356   -6270.5592     2472.044    17236.751    5.8461805 
    5920    892.87363    -6370.794   -6271.1926    1727.4516      17227.8    5.8359651 
    5930    882.01757   -6370.2202   -6271.8298    1835.8798    17220.396    5.8303252 
    5940    854.50451   -6367.7262   -6272.4049    2461.1573    17214.611    5.8321458 
    5950    854.77241   -6368.2422   -6272.8911     2436.326    17210.876      5.82909 
    5960    863.12061   -6369.5807   -6273.2983    1995.5497    17209.202    5.8202282 
    5970    865.03515   -6370.1435   -6273.6475    1687.9101    17209.267    5.8166113 
    5980     867.5377   -6370.7116   -6273.9365     1207.359    17210.791    5.8258316 
    5990    897.91163   -6374.3713   -6274.2079    271.72737    17213.312    5.8446696 
    6000    905.77603   -6375.5501   -6274.5094   -17.794242    17216.124    5.8623743 
    6010    886.50049   -6373.7334   -6274.8429   -23.999867    17218.965    5.8715304 
    6020    898.55943   -6375.4323   -6275.1967    -786.7874    17221.756    5.8753487 
    6030     908.8067   -6376.9699   -6275.5912   -1668.3048     17223.89    5.8792351 
    6040    892.51716   -6375.5942   -6276.0326   -1668.7638    17224.673    5.8847282 
    6050    871.80442    -6373.734   -6276.4829   -1389.9108    17224.053    5.8941581 
    6060      879.049   -6374.9773   -6276.9181    -2041.602    17222.159    5.9105264 
    6070    887.74707   -6376.3872   -6277.3576   -2545.0408    17218.502    5.9350608 
    6080    872.71826   -6375.1572   -6277.8042   -1374.4944    17212.762    5.9655613 
    6090    866.66114   -6374.9024    -6278.225    -187.1606     17205.78     5.998464 
    6100    886.06596   -6377.4718   -6278.6298    670.73448    17198.567     6.029678 
    6110    877.42008   -6376.9231   -6279.0455    1825.3586    17191.913    6.0581139 
    6120     865.5309   -6376.0156   -6279.4643    2131.8221    17186.725    6.0806133 
    6130    869.37994   -6376.8545   -6279.8738    1069.1025     17183.26    6.0935267 
    6140    855.96666   -6375.7442   -6280.2598   -280.33319     17180.68    6.0995312 
    6150    852.67413   -6375.7232   -6280.6061   -1200.6329    17177.882    6.1032344 
    6160     855.4197    -6376.342   -6280.9187   -1642.6198    17174.071    6.1123932 
    6170    847.38579   -6375.7151   -6281.1879   -1215.7904    17168.897     6.136866 
    6180    864.71493   -6377.8829   -6281.4226   -1547.0168    17162.558    6.1728703 
    6190    858.96948   -6377.4622   -6281.6429   -1242.9395    17154.922    6.2100443 
    6200    845.36389   -6376.1456    -6281.844   -374.95228    17146.205    6.2396369 
    6210    839.15848   -6375.6042   -6281.9948     32.66377    17137.078    6.2617107 
    6220     844.7225    -6376.317   -6282.0869   -149.14862    17127.891    6.2804791 
    6230     860.7869    -6378.174   -6282.1519    -293.6342    17118.542    6.2942085 
    6240     864.9563   -6378.7033   -6282.2161   -225.26111    17108.917    6.2990515 
    6250    871.14043   -6379.4701   -6282.2931   -328.79708    17099.029    6.2979614 
    6260    872.86213   -6379.7583   -6282.3892   -608.70781    17088.769     6.304741 
    6270    854.69835   -6377.8502   -6282.5073    286.00154     17078.04    6.3312656 
    6280    856.70357   -6378.1842   -6282.6176    1578.2512    17067.527     6.380594 
    6290     865.1026    -6379.216   -6282.7125     2904.368    17058.323    6.4463165 
    6300    859.68049   -6378.7186     -6282.82     3678.273    17051.495    6.5118655 
    6310    833.08328   -6375.8571   -6282.9254    3876.2292    17047.718    6.5572473 
    6320    834.21208   -6376.0405   -6282.9829    3657.3927    17047.198    6.5694442 
    6330    862.21592   -6379.1787   -6282.9972    3504.8952    17049.792    6.5539932 
    6340    845.65091   -6377.3301   -6282.9965    4132.0287    17055.444    6.5299581 
    6350    822.24961   -6374.6934   -6282.9702    4710.1043    17064.645    6.5113698 
    6360    846.84056   -6377.3408   -6282.8744    4140.3121    17077.829     6.504278 
    6370    871.04371   -6379.8758   -6282.7096    3394.3288    17094.631    6.5071479 
    6380    881.45396   -6380.8507   -6282.5232    2209.9508    17114.405    6.5124963 
    6390    884.81391   -6381.0284   -6282.3261    1174.5314    17136.226    6.5128166 
    6400    892.29084    -6381.672   -6282.1357    760.24095    17159.248    6.5046243 
    6410    892.98018    -6381.593   -6281.9797    479.04892    17183.075    6.4910975 
    6420    859.90085   -6377.7787   -6281.8554    741.75613     17207.53     6.478937 
    6430    867.14297     -6378.46   -6281.7289     92.32038    17232.691    6.4771052 
    6440    884.79413   -6380.2849   -6281.5848    -333.2608      17258.1    6.4913872 
    6450    852.35247    -6376.535   -6281.4538    188.99842    17283.438    6.5130445 
    6460    835.35357   -6374.4946   -6281.3097   -14.118716    17309.016    6.5291972 
    6470    841.84057   -6374.9889   -6281.0804   -1361.1385    17334.613    6.5379002 
    6480    836.24276   -6374.0406   -6280.7565   -2311.7631    17359.172    6.5509308 
    6490    815.29494   -6371.2823   -6280.3349   -2610.4446    17381.861    6.5759613 
    6500    825.38108   -6371.8705    -6279.798   -3015.6033    17402.337    6.6059633 
    6510    850.07576   -6373.9649   -6279.1377   -3950.3817    17420.183    6.6365263 
    6520    881.50734   -6376.7505   -6278.4171    -4601.684    17434.618    6.6683678 
    6530    860.42293   -6373.6995    -6277.718   -3962.8602    17445.136    6.7010049 
    6540    857.72956   -6372.7447   -6277.0636   -3795.7821    17452.132    6.7273015 
    6550    890.49888   -6375.7577   -6276.4212   -3918.2573    17455.767    6.7431757 
    6560    901.06599   -6376.3687   -6275.8535   -3689.2735    17455.953    6.7546424 
    6570    887.57395   -6374.4084   -6275.3982   -3484.3991    17452.861    6.7689385 
    6580     890.9796    -6374.435   -6275.0449   -3804.0429    17446.601    6.7827078 
    6590    886.16848   -6373.6226   -6274.7692   -3966.2837    17436.962    6.7845501 
    6600    909.20536    -6376.011   -6274.5878   -4458.2744    17423.727    6.7726948 
    6610    904.94627   -6375.4632   -6274.5151   -3298.9899    17406.645     6.763106 
    6620    868.12604   -6371.3688    -6274.528   -1402.7967    17386.645    6.7688496 
    6630    854.04918   -6369.8187   -6274.5482   -778.86932    17365.253    6.7826629 
    6640    853.46516    -6369.754   -6274.5487   -255.07169     17343.13    6.7974234 
    6650    856.82329   -6370.1016   -6274.5217     492.3617    17320.738    6.8057803 
    6660    866.58815   -6371.1311   -6274.4618    1097.5618    17298.734    6.8002077 
    6670    874.92608   -6372.0089   -6274.4096    1277.5961    17277.618    6.7827662 
    6680    857.28401    -6370.001   -6274.3697    1761.9475    17257.613    6.7574743 
    6690    855.43001    -6369.744   -6274.3195     2181.197     17239.12    6.7272861 
    6700    876.15198   -6371.9953   -6274.2592    1646.7064    17222.432    6.6994053 
    6710    901.40907   -6374.7875    -6274.234     757.2871    17207.127    6.6781323 
    6720    910.05093   -6375.8155   -6274.2979    553.76398    17192.523    6.6643546 
    6730    893.83003   -6374.1896   -6274.4815    740.99122    17178.416    6.6564777 
    6740    882.96305   -6373.2628   -6274.7669    1558.5958    17165.014    6.6486627 
    6750     880.3965   -6373.3414   -6275.1318    2685.9734    17152.976    6.6418849 
    6760    873.64885    -6373.026   -6275.5691    3784.4608    17143.235    6.6425864 
    6770    872.23888   -6373.3909   -6276.0913    3682.4256    17136.654    6.6482044 
    6780    881.20505   -6375.0041   -6276.7044     2642.021    17133.169    6.6555753 
    6790     887.1734   -6376.3879   -6277.4224     1968.252    17131.982    6.6618425 
    6800    869.46934   -6375.2135   -6278.2229    1778.2694    17132.525    6.6630421 
    6810    858.33688   -6374.8174   -6279.0687     1331.438    17134.576    6.6585466 
    6820    831.17202   -6372.5941   -6279.8756    1420.3214    17137.826    6.6454766 
    6830    844.25257   -6374.7708   -6280.5931    1030.2312    17142.236     6.623877 
    6840    862.50875   -6377.4439   -6281.2298    369.75671    17147.505    6.6022009 
    6850    855.65446   -6377.2403   -6281.7908    291.90643    17153.128    6.5871524 
    6860    851.65013   -6377.2805   -6282.2777   -513.80825    17158.911    6.5752301 
    6870    835.19648   -6375.8347   -6282.6672   -1287.2281    17164.281    6.5599244 
    6880    856.50008   -6378.5242   -6282.9803   -2577.4015    17168.476    6.5407366 
    6890    869.63387   -6380.2593   -6283.2503   -2256.0137    17170.579    6.5248639 
    6900    857.78252   -6379.1759    -6283.489   -607.51947    17170.848    6.5185112 
    6910    863.26039    -6379.991    -6283.693   -252.60676    17170.504    6.5174931 
    6920    879.95158   -6382.0358   -6283.8759   -752.08181    17169.896    6.5118417 
    6930    871.86605   -6381.3196   -6284.0616   -424.18505    17168.715    6.5006878 
    6940    832.89284   -6377.1397   -6284.2292    376.63585    17167.198    6.4818022 
    6950    799.85369   -6373.5407   -6284.3158    967.11494    17166.004    6.4497623 
    6960    811.02852   -6374.7566   -6284.2852    490.59834    17165.567    6.4113273 
    6970     837.2928   -6377.5576   -6284.1563   -170.94547    17165.545     6.384096 
    6980     844.5629   -6378.1858   -6283.9736   -583.51598    17165.398    6.3789588 
    6990    842.24028   -6377.7078   -6283.7546   -1129.2864    17164.763    6.3919101 
    7000    860.23317   -6379.4784   -6283.5181   -1716.0722    17163.164    6.4082443 
    7010    849.52515   -6378.0398    -6283.274   -1049.0355    17160.215    6.4171831 
    7020    846.91984   -6377.5031   -6283.0279   -639.60818    17156.353     6.416146 
    7030    871.86869   -6380.0222   -6282.7639   -1007.0863    17151.901    6.4127904 
    7040    881.79096    -6380.881   -6282.5159   -961.60078    17146.639    6.4213574 
    7050    874.83928   -6379.9027   -6282.3131   -175.46719    17140.646    6.4405755 
    7060    864.50195   -6378.5894   -6282.1529    1093.9119    17134.577    6.4610225 
    7070    842.80952   -6376.0104   -6281.9937    2307.5141    17129.473    6.4838825 
    7080    845.51045   -6376.1202   -6281.8022    2458.5739    17126.288    6.5050516 
    7090    855.77217   -6377.0496   -6281.5869    1819.7258    17125.165    6.5254515 
    7100    851.14455   -6376.3045   -6281.3581    1559.7745    17125.645    6.5500282 
    7110    866.21218   -6377.7434   -6281.1162    1231.3111    17127.441    6.5776117 
    7120    884.68242   -6379.5549   -6280.8673    1435.4337    17130.326    6.6114815 
    7130    884.13065    -6379.271   -6280.6449    1898.3339     17134.44    6.6504044 
    7140    879.41544     -6378.57   -6280.4698    1947.2511    17140.118    6.6848631 
    7150    871.24606   -6377.5097   -6280.3209     1604.766    17147.407    6.7048652 
    7160    869.93948   -6377.2357   -6280.1927    503.61073    17155.948    6.7099979 
    7170    849.17331   -6374.7902   -6280.0637    418.78745    17164.974    6.7057144 
    7180     846.5849   -6374.3466   -6279.9088    530.20324    17174.337     6.697376 
    7190    864.91517   -6376.1807   -6279.6981   -295.51817    17184.027    6.6980013 
    7200    894.80973   -6379.2674     -6279.45   -1920.6058    17193.322    6.7175993 
    7210     903.9143   -6380.0541   -6279.2211   -2335.0785    17201.012    6.7562577 
    7220     886.9753   -6377.9962   -6279.0527   -1830.6645    17206.717    6.8033116 
    7230    866.40594   -6375.5663   -6278.9175   -1468.9181    17210.819    6.8414378 
    7240    856.45631    -6374.302    -6278.763   -1952.7995    17213.577    6.8547165 
    7250    876.30549   -6376.3135   -6278.5603   -3457.2189    17214.558    6.8418553 
    7260    893.65401   -6378.0122   -6278.3237   -4810.9379    17212.582    6.8198368 
    7270    886.93655   -6377.0465   -6278.1074   -4421.7973    17206.624    6.8083771 
    7280    858.58798   -6373.6825   -6277.9057   -2465.6487    17197.025    6.8161192 
    7290    839.02558    -6371.244   -6277.6494   -487.50271    17185.389    6.8319175 
    7300    862.76424   -6373.5502   -6277.3076    66.084375    17173.319    6.8380823 
    7310    885.00282   -6375.6248   -6276.9014    241.86835    17161.395    6.8341168 
    7320    894.38473   -6376.2694   -6276.4994    547.37245    17149.786    6.8288728 
    7330    893.11111   -6375.7654   -6276.1375    408.55107    17138.698    6.8269507 
    7340    890.21716   -6375.1307   -6275.8256    396.87944    17128.068    6.8271333 
    7350    873.60652   -6373.0012   -6275.5491    1090.1964    17117.928    6.8268886 
    7360    879.02687   -6373.3572   -6275.3004    1535.0049    17108.753    6.8272575 
    7370    894.04079   -6374.8124   -6275.0808    1623.7831     17100.93     6.829284 
    7380    901.34237   -6375.4669   -6274.9208    1781.7083     17094.56    6.8333647 
    7390    889.95197   -6374.1148   -6274.8393     2416.347    17089.795    6.8439216 
    7400    890.21709   -6374.1286   -6274.8236    2378.2951    17087.076    6.8619825 
    7410    915.37157   -6377.0053   -6274.8943    1227.3211    17086.304    6.8830221 
    7420    908.45844   -6376.4118   -6275.0719    458.48155    17086.629    6.8998321 
    7430    927.55158   -6378.8665   -6275.3968   -311.36914     17087.33    6.9072478 
    7440    935.52893   -6380.2579   -6275.8982   -516.77399    17087.803     6.908434 
    7450    918.79763   -6379.0678   -6276.5745   -623.41697    17087.836    6.9086508 
    7460    920.11176   -6380.0561   -6277.4163   -644.69783    17087.326    6.9051252 
    7470    875.78244    -6376.015   -6278.3201     227.9598    17086.346    6.8959547 
    7480    855.47404   -6374.6063   -6279.1769     255.8183      17085.5    6.8864799 
    7490    863.03898   -6376.2276   -6279.9543     -615.204    17084.829    6.8841206 
    7500    864.78292   -6377.1197   -6280.6519   -1596.7355    17083.644    6.8873019 
    7510    864.58093   -6377.7175   -6281.2722    -1702.158    17081.174    6.8922715 
    7520    847.31574   -6376.3378   -6281.8184   -777.24929    17077.337    6.8981145 
    7530    831.95837   -6375.0551   -6282.2489    19.283157    17072.847    6.9031478 
    7540    860.83759    -6378.618   -6282.5903   -165.81692    17068.309    6.9132599 
    7550    862.44097   -6379.1023   -6282.8957    943.03892    17063.773    6.9299243 
    7560    836.64797   -6376.4877   -6283.1583    2300.2351    17060.084    6.9491622 
    7570    843.11181    -6377.411   -6283.3606    2090.2513    17058.243    6.9666851 
    7580    851.19096   -6378.4691   -6283.5175    2002.5123    17058.197    6.9847276 
    7590    853.13764   -6378.8164   -6283.6476    2570.2745      17059.9    7.0026521 
    7600     853.6677   -6378.9823   -6283.7544    2569.8074    17063.723    7.0182821 
    7610     855.8885   -6379.3123   -6283.8366    1936.2078    17069.672    7.0297206 
    7620    869.56283    -6380.909    -6283.908    887.86275    17077.208     7.038732 
    7630    856.04882    -6379.472   -6283.9784    559.62734    17085.523    7.0515131 
    7640    839.80989   -6377.7172   -6284.0351    598.88629    17094.327    7.0706131 
    7650    843.91596   -6378.1907   -6284.0506   -7.5648489    17103.572    7.0886008 
    7660    819.45439   -6375.4198   -6284.0085   -68.228291    17112.836    7.0929096 
    7670    807.86133    -6373.999   -6283.8809   -105.21647    17122.021     7.080623 
    7680    836.48816   -6376.9516   -6283.6401    -1165.618    17130.995    7.0675553 
    7690    855.18509   -6378.7026   -6283.3054   -2673.9309    17138.901    7.0682268 
    7700    863.81895   -6379.2935   -6282.9332   -3393.7042    17144.557    7.0817573 
    7710    857.50341   -6378.1996   -6282.5438   -3109.5261    17147.388    7.0998039 
    7720     846.5299   -6376.5651   -6282.1334   -2397.8588    17147.595    7.1155221 
    7730    838.73535   -6375.2314   -6281.6692   -1316.4508     17145.79    7.1241722 
    7740     853.1867    -6376.313   -6281.1387   -1083.0703    17142.808    7.1230643 
    7750    869.55507   -6377.5535   -6280.5533   -1639.8947    17138.845    7.1153875 
    7760    884.46442   -6378.6268   -6279.9635   -1574.9367    17133.539    7.1041448 
    7770    876.12599   -6377.1344   -6279.4012   -629.53236    17126.972    7.0953093 
    7780    860.84471   -6374.9069   -6278.8784    165.47741    17119.854    7.0923075 
    7790    852.92389   -6373.5044   -6278.3595    662.24986    17112.875    7.0891848 
    7800     857.0284   -6373.4332   -6277.8304    531.52282     17106.43    7.0829684 
    7810    892.81106   -6376.9071   -6277.3127   -19.196184    17100.406    7.0765916 
    7820    897.97165   -6377.0213   -6276.8512    471.26748     17094.46    7.0743321 
    7830    891.18156    -6375.904   -6276.4913    1328.3976    17088.943    7.0798561 
    7840     895.9186   -6376.1613   -6276.2202    1723.1744     17084.52    7.0928873 
    7850    890.84332   -6375.4099    -6276.035    1837.0853    17081.554    7.1083599 
    7860    880.62356   -6374.1628   -6275.9279    1913.2891    17080.142    7.1213348 
    7870    875.43733   -6373.5243    -6275.868    2163.7348    17080.376    7.1268669 
    7880    877.85353   -6373.7712   -6275.8453    2461.8626    17082.473    7.1275128 
    7890    897.90003   -6376.0352   -6275.8731    2250.1111    17086.641    7.1289142 
    7900    898.76682   -6376.2294   -6275.9706    1798.9187    17092.716    7.1340188 
    7910    903.66036   -6376.9581   -6276.1535    997.39759    17100.311    7.1449551 
    7920    900.23388   -6376.8403   -6276.4179    509.10444    17108.814    7.1661537 
    7930    878.05004   -6374.6932   -6276.7454     437.6643    17117.812    7.1923698 
    7940    873.65111   -6374.5591    -6277.102      131.507    17127.208    7.2068188 
    7950    859.20945   -6373.2952   -6277.4491   -125.08292     17136.77    7.2054376 
    7960    863.73548   -6374.1248   -6277.7738   -434.63928    17146.253    7.1956953 
    7970     892.2562   -6377.6249   -6278.0923   -1237.8024    17155.361    7.1862748 
    7980    896.41244   -6378.4398   -6278.4436   -1416.7093     17163.51    7.1812606 
    7990    888.23803   -6377.9132   -6278.8289   -1284.8144      17170.5    7.1802345 
    8000    897.17748   -6379.3157   -6279.2342   -2239.0802    17176.317    7.1853482 
    8010    895.04348   -6379.4949   -6279.6514   -2771.0811    17180.284    7.1993163 
    8020     873.1445   -6377.4611   -6280.0605    -2638.605    17181.928    7.2182531 
    8030    857.17175     -6376.03   -6280.4112   -1937.9591    17181.351    7.2392172 
    8040    837.47596   -6374.0972   -6280.6754   -407.88983    17179.167    7.2584924 
    8050    818.95456    -6372.183   -6280.8273    679.79002    17176.599    7.2707551 
    8060    828.51361   -6373.2908   -6280.8689    240.88421    17174.502    7.2723376 
    8070    843.12852   -6374.8842    -6280.832   -103.42818    17172.624    7.2633495 
    8080    849.13912   -6375.4794   -6280.7566   -90.715259    17170.672    7.2551504 
    8090    870.24236   -6377.7593   -6280.6824   -444.04757    17168.609    7.2586543 
    8100    864.76312   -6377.0771   -6280.6114   -475.85889    17166.188    7.2783256 
    8110    866.16437   -6377.1784   -6280.5564   -436.37314    17163.356    7.3039926 
    8120    884.00577   -6379.1316   -6280.5194   -1387.8988    17160.069     7.318342 
    8130    890.08557   -6379.8215   -6280.5312    -2343.453    17155.572    7.3194338 
    8140    883.02138   -6379.1015   -6280.5991   -2062.6686    17149.159    7.3139046 
    8150    878.18051   -6378.6786   -6280.7162   -1688.2809     17140.95    7.3105208 
    8160    857.16968   -6376.4689   -6280.8503   -1236.0042    17131.265    7.3219449 
    8170    842.47058   -6374.9438   -6280.9649   -703.15893    17120.497    7.3494326 
    8180    829.53765   -6373.5601   -6281.0239    125.28981    17109.127    7.3812523 
    8190    830.69935   -6373.6821   -6281.0163    205.91267    17097.778     7.400541 
    8200    842.03222   -6374.8824   -6280.9524   -132.67923    17086.547    7.3983377 
    8210    847.64543   -6375.4013   -6280.8452    233.85879    17075.235    7.3825705 
    8220    857.05041   -6376.3076   -6280.7023    841.87832    17064.108    7.3696813 
    8230    860.00423   -6376.4659   -6280.5311    1515.6925    17053.668    7.3630559 
    8240    859.30354   -6376.1993   -6280.3426    1610.9313    17044.441    7.3577307 
    8250    847.52887   -6374.6838   -6280.1406    1673.1013    17036.534    7.3576722 
    8260    840.12182   -6373.6175   -6279.9007    2255.8238    17030.035    7.3663017 
    8270    858.66861   -6375.3899   -6279.6041    2641.2423    17025.407    7.3832829 
    8280    869.00553   -6376.2151   -6279.2762    3128.0402    17023.006    7.4032285 
    8290    873.52259   -6376.3863   -6278.9435     3319.897    17023.227    7.4158894 
    8300    887.22268   -6377.6015   -6278.6305    2343.1753    17026.158    7.4199631 
    8310    866.79352   -6375.0261    -6278.334    2083.3602    17031.184    7.4235324 
    8320    893.43348   -6377.7218    -6278.058    1241.0984    17037.956    7.4336152 
    8330    893.87905   -6377.5246   -6277.8111    1209.5069    17045.902    7.4549598 
    8340    879.86016   -6375.7817    -6277.632    2309.9974    17055.021    7.4844938 
    8350    877.69306   -6375.3923   -6277.4843    3199.4632    17066.178    7.5160589 
    8360    872.53342   -6374.6811   -6277.3487    3026.1642    17080.076    7.5451131 
    8370    883.32213   -6375.7601   -6277.2242    2250.7926    17096.641    7.5651931 
    8380    893.78781   -6376.8267   -6277.1233    1423.3383    17115.275    7.5745103 
    8390    876.86256   -6374.8784   -6277.0631    707.83121    17135.299     7.579969 
    8400    869.03507   -6373.9691   -6277.0269    6.5531858     17156.11    7.5861707 
    8410    857.05087   -6372.5946   -6276.9892    50.340832    17177.175    7.5991531 
    8420    851.24382   -6371.9034   -6276.9459   -193.10526    17198.419    7.6256552 
    8430    857.12954   -6372.4765   -6276.8625   -1532.3588    17219.568    7.6650269 
    8440    884.18537   -6375.3767   -6276.7445   -3545.9094    17239.501    7.7078497 
    8450    905.33437   -6377.6393   -6276.6479   -4691.0133    17256.572    7.7452062 
    8460    891.84115   -6376.1353   -6276.6491   -4017.3226     17269.83    7.7694037 
    8470    866.57463   -6373.4022   -6276.7345    -3221.263    17279.704     7.775561 
[...]
   22890    874.62207   -6402.3245   -6304.7591   -1159.3574    16587.525    15.636689 
   22900    846.04812   -6399.3456   -6304.9676   -936.82339    16581.137    15.634354 
   22910    851.05832   -6400.1227   -6305.1859   -1136.6583    16573.938    15.635378 
   22920    871.55248   -6402.6597   -6305.4367   -1636.8815    16565.775    15.635955 
   22930     860.7996   -6401.7755    -6305.752   -1142.2824    16556.344    15.637589 
   22940    848.63087   -6400.7835   -6306.1175   -310.43889    16545.993    15.642673 
   22950    855.12088    -6401.915   -6306.5249   -92.812328    16535.311    15.653491 
   22960    852.27444   -6402.0521   -6306.9796    123.48489    16524.533    15.672009 
   22970    835.71502   -6400.6845   -6307.4592   -74.462273    16513.813    15.700941 
   22980    855.38773   -6403.3852   -6307.9654   -1684.8503    16502.893    15.742074 
   22990    859.04551   -6404.3499   -6308.5221   -2829.1111    16490.635    15.791035 
   23000    833.30314   -6402.0641   -6309.1079   -2292.3464      16476.2    15.842526 
   23010    828.84355   -6402.1021   -6309.6433   -1004.1279    16459.953    15.888632 
   23020    857.50176   -6405.7921   -6310.1364    55.496186    16442.821    15.929425 
   23030    845.45509   -6404.9088    -6310.597    2192.5539    16425.758    15.965745 
   23040    811.94994    -6401.561   -6310.9868    4166.5287    16410.375    15.993109 
   23050    826.89355   -6403.5375   -6311.2963    3438.9696    16398.011    16.006335 
   23060    847.23532   -6406.0673    -6311.557    2053.6461    16388.267    16.005833 
   23070    841.40887   -6405.6574   -6311.7969    1402.5829     16380.14    16.000753 
   23080    836.48421   -6405.3084   -6311.9974    910.93244    16373.091     15.99518 
   23090    848.68985   -6406.8348   -6312.1622    22.454419    16366.681    15.984234 
   23100    828.66588   -6404.7242   -6312.2853    524.27846    16360.361    15.958952 
   23110    837.29345   -6405.7504    -6312.349     1070.666    16354.421    15.918979 
   23120    866.91096   -6409.0744   -6312.3692    513.52435    16349.205    15.878949 
   23130    870.15173   -6409.4593   -6312.3925    599.15931    16344.428     15.85325 
   23140    858.81747   -6408.2349   -6312.4325    1195.3853    16340.129    15.851085 
   23150    842.31727    -6406.419   -6312.4572     1744.312    16336.725    15.878623 
   23160    837.79636   -6405.9052   -6312.4478    2142.9125    16334.649    15.926348 
   23170      821.738   -6404.0416   -6312.3755    2717.9177     16334.24    15.974855 
   23180    822.15926   -6403.9302   -6312.2171    3060.0947    16335.937    16.005627 
   23190    847.05066   -6406.4439   -6311.9541    1939.5982    16339.931    16.006145 
   23200    844.91798   -6405.8517   -6311.5998    854.70861    16345.498    15.984849 
   23210    828.21447    -6403.543   -6311.1544    363.69187    16351.833    15.953991 
   23220    844.48412   -6404.7896   -6310.5862    120.87018    16358.516    15.915039 
   23230    860.78813   -6405.9162    -6309.894    370.95982    16365.391    15.875116 
   23240    865.80794   -6405.7131   -6309.1309    754.45984    16372.642    15.845995 
   23250    861.70223   -6404.4572    -6308.333    1067.8415    16380.547    15.836851 
   23260    850.62165   -6402.4196   -6307.5315    1503.2988    16389.387    15.844507 
   23270    857.00379   -6402.3295   -6306.7294    958.37232    16399.432    15.848608 
   23280    885.10587   -6404.6855   -6305.9506   -173.97227    16410.282    15.841816 
   23290    870.67964   -6402.3857   -6305.2601   -113.28636    16421.192    15.828082 
   23300    842.68311   -6398.6894   -6304.6869    1027.5565    16432.199    15.810697 
   23310    836.37112   -6397.4739   -6304.1755    2066.3141    16444.119    15.799886 
   23320    832.71892   -6396.5811   -6303.6901    3034.2387    16457.803    15.802602 
   23330    839.40212     -6396.86   -6303.2234    2360.9324    16473.912    15.814124 
   23340    870.31338   -6399.8565   -6302.7717    424.76233    16491.993    15.824167 
   23350    877.94211   -6400.3026   -6302.3669   -514.09401    16510.685    15.830479 
   23360    853.73539   -6397.2765    -6302.041    177.43093    16529.297    15.837699 
   23370    867.01927   -6398.4887   -6301.7714     393.2024    16548.185    15.846565 
   23380    872.46507   -6398.8606   -6301.5358    487.88767    16567.584    15.860383 
   23390    875.08623   -6398.9583   -6301.3411    -366.9689    16587.484    15.881356 
   23400    878.50344    -6399.178   -6301.1796   -1249.3119    16607.289    15.905866 
   23410    861.66159   -6397.1666    -6301.047   -1670.2057      16626.3    15.925658 
   23420      851.072   -6395.8647   -6300.9264   -1810.9835    16644.172    15.928529 
   23430    865.10987    -6397.303   -6300.7987   -2778.1067    16660.657    15.911819 
   23440    863.38231   -6396.9831   -6300.6715   -3410.5773    16675.047    15.883968 
   23450    859.95299   -6396.4756   -6300.5465   -3648.4157    16686.813    15.851456 
   23460    857.62726   -6396.0926    -6300.423   -4250.7267    16695.675    15.822212 
   23470    846.63797   -6394.7418    -6300.298   -4235.6298    16701.202    15.802003 
   23480    827.02737   -6392.4018   -6300.1456   -3645.3784     16703.36    15.784023 
   23490    843.41996   -6394.0205   -6299.9357   -3656.6755    16702.535    15.761346 
   23500    860.25411   -6395.6314   -6299.6688   -3760.9875     16698.72    15.741758 
   23510    855.57171   -6394.8276   -6299.3873   -2592.8033    16691.907    15.729767 
   23520    842.97438   -6393.1158   -6299.0807   -1363.0672    16682.942    15.726231 
   23530    854.00617   -6394.0005   -6298.7348    -1384.148    16672.719    15.732235 
   23540    870.54226   -6395.4709   -6298.3606   -1625.8194    16661.308    15.748969 
   23550    870.86269   -6395.1359   -6297.9899   -1368.4894    16648.547    15.777744 
   23560    873.22777    -6395.031   -6297.6211   -946.35405    16634.634    15.821353 
   23570    872.67802   -6394.5932   -6297.2447   -256.56148    16619.913     15.87866 
   23580    868.90552   -6393.7895   -6296.8618    1269.9865    16604.985    15.943817 
   23590    873.80519   -6393.9471   -6296.4728    2260.7819    16590.982    16.006963 
   23600     881.8458   -6394.4552   -6296.0839    2460.5088    16578.678    16.060224 
   23610    891.62871   -6395.1897   -6295.7272    2691.9309    16568.296    16.099762 
   23620    889.74659    -6394.671   -6295.4185    3116.1365    16560.051    16.123174 
   23630    892.53331   -6394.7284    -6295.165    2995.1733    16554.222    16.125685 
   23640    888.15615    -6394.033   -6294.9579    2630.2586    16550.734    16.108154 
   23650    889.57014   -6394.0276   -6294.7947    2497.4113    16549.348    16.087288 
   23660    908.21778   -6396.0052   -6294.6921     1888.144    16549.918    16.082748 
   23670    922.34585   -6397.5897   -6294.7007     918.9204     16551.96    16.093683 
   23680    902.10224   -6395.4851   -6294.8542    1245.3596    16554.854    16.118049 
   23690    876.36143   -6392.9076   -6295.1481    2102.2729    16558.798    16.146595 
   23700    870.62452   -6392.6671   -6295.5476    2947.5362    16564.458    16.164665 
   23710    888.56051   -6395.2012    -6296.081    2869.8585    16572.431    16.180194 
   23720    873.74849   -6394.2514   -6296.7835    2627.4379    16582.765    16.203358 
   23730    852.45266   -6392.7145   -6297.6221    1652.8249    16595.223    16.224629 
   23740    848.89192   -6393.2186   -6298.5235    147.97079    16609.073    16.234369 
   23750    852.19018   -6394.5134   -6299.4503   -1268.2968    16623.161    16.229897 
   23760    856.02373   -6395.8531   -6300.3624   -2184.3947    16636.359    16.210524 
   23770    860.88234   -6397.2715   -6301.2388   -2315.7408    16647.951    16.183551 
   23780    858.79763   -6397.8407   -6302.0405   -2335.3863    16657.781    16.149943 
   23790    867.28804   -6399.5066   -6302.7593   -2971.9362    16665.747    16.115507 
   23800    854.13442   -6398.6687   -6303.3887   -2877.6008    16671.433    16.093736 
   23810    845.13796   -6398.1927   -6303.9163   -2958.1682    16674.804    16.089131 
   23820    849.49081   -6399.1197   -6304.3577   -3914.4789    16675.733    16.092363 
   23830    845.51276   -6399.0408   -6304.7226   -4314.2452    16673.533    16.091235 
   23840    846.99132   -6399.5107   -6305.0276   -3479.6238    16667.891     16.07655 
   23850    841.15907   -6399.0914   -6305.2588   -2514.9131    16659.387    16.041703 
   23860    847.70357   -6399.9889   -6305.4262   -2103.3827    16648.737    15.997029 
   23870    845.72628   -6399.8953   -6305.5533   -1945.2865     16636.28    15.959108 
   23880    827.13853   -6397.8955   -6305.6269    -1995.546    16622.148    15.928562 
   23890     837.9963   -6399.1228    -6305.643   -2382.2198    16606.289    15.892929 
   23900    843.88167    -6399.749   -6305.6127   -2368.4397     16588.44    15.853637 
   23910    823.21351   -6397.3653   -6305.5346   -1007.6183    16568.679    15.822996 
   23920    814.34062     -6396.21   -6305.3691    524.63107    16548.012    15.805778 
   23930     830.0407   -6397.6738   -6305.0815    994.63509     16527.61    15.801378 
   23940    867.77342   -6401.5119   -6304.7104    403.00101    16507.831    15.803049 
   23950    867.13369   -6401.0524   -6304.3223    1206.0286     16488.42    15.807777 
   23960    859.41815   -6399.8063   -6303.9369     2966.693    16469.995    15.813855 
   23970    865.39034   -6400.0714   -6303.5358    3876.1636    16453.816    15.813161 
   23980    879.11966   -6401.2143   -6303.1472    4023.8932    16440.603    15.804048 
   23990    876.49271   -6400.5729   -6302.7988    4394.6227    16430.565    15.795546 
   24000    875.33167   -6400.1349   -6302.4903     4566.325    16423.974     15.79008 
   24010    904.92881   -6403.1682    -6302.222     3390.683    16420.866    15.786196 
   24020      931.395   -6405.9394   -6302.0409    2484.3889    16420.456    15.787202 
   24030    921.98548   -6404.8588     -6302.01    2917.0842    16422.098     15.79302 
   24040    887.02367   -6401.0641   -6302.1153    4051.6648    16426.076    15.802105 
   24050    861.60519   -6398.4122   -6302.2989    4826.4932    16433.219    15.811911 
   24060    861.75903    -6398.649   -6302.5185    5016.7234    16444.151    15.820304 
   24070     877.6952   -6400.6879   -6302.7797    4142.6464    16458.978    15.828736 
   24080    870.25967    -6400.162   -6303.0833    3138.7432    16477.097    15.834425 
   24090    860.73693   -6399.4245    -6303.408    2365.8501    16497.738    15.833558 
   24100    875.18364   -6401.3919   -6303.7638    1469.1072    16520.234    15.827247 
   24110    848.43105   -6398.8165   -6304.1727    1683.6264    16543.989    15.810312 
   24120    825.24541   -6396.6715   -6304.6141    1642.7974    16569.052      15.7822 
   24130    830.48487   -6397.6753   -6305.0334    159.46119    16595.275    15.754176 
   24140    851.65725   -6400.4288   -6305.4252   -1950.7726    16621.499    15.728554 
   24150    851.82196   -6400.8536   -6305.8316    -3465.051    16646.094    15.705106 
   24160    831.62907   -6399.0528   -6306.2833   -4197.9359    16667.833    15.679035 
   24170    811.67887   -6397.2856   -6306.7416    -4388.496    16686.107    15.643428 
   24180    807.28301   -6397.2172   -6307.1635   -4681.0825    16700.724      15.6045 
   24190     816.1634   -6398.5741   -6307.5299   -5102.6404    16711.446    15.572644 
   24200    830.85526   -6400.5332   -6307.8501   -5148.0828    16718.003    15.553798 
   24210    841.23727    -6401.999   -6308.1578   -4914.0548    16720.363    15.550115 
   24220    822.97674    -6400.262   -6308.4578   -4416.5324    16718.746    15.558979 
   24230    818.63703   -6400.0401   -6308.7199   -4824.4444    16713.502    15.567802 
   24240    824.87691   -6400.9576   -6308.9413   -5474.9524    16704.384    15.562347 
   24250    811.41299   -6399.6269   -6309.1126   -4819.8501    16691.043    15.539063 
   24260    810.54949   -6399.6206   -6309.2025   -3728.0897    16673.973    15.502444 
   24270    816.69955   -6400.2871    -6309.183   -2620.7551    16654.084    15.459846 
   24280    812.96075   -6399.7177   -6309.0307   -1758.3203    16632.302    15.424971 
   24290     842.8849    -6402.771   -6308.7459   -1467.0278    16609.343    15.412549 
   24300    874.24126   -6405.8784   -6308.3554   -1326.2229    16585.507    15.424065 
   24310    864.05961   -6404.3096   -6307.9225   -1053.1813    16560.944    15.450838 
   24320    839.42573   -6401.0922    -6307.453   -495.08986    16535.935     15.47569 
   24330    833.82225   -6399.9183   -6306.9042   -317.91865    16510.868    15.476292 
   24340    833.44882   -6399.2231   -6306.2507    328.41794    16485.977    15.453311 
   24350    839.90471    -6399.186   -6305.4933    1851.3218    16461.816    15.423297 
   24360    867.09604   -6401.3852   -6304.6593    3572.4939    16439.516    15.391474 
   24370    876.01926    -6401.535   -6303.8138     4486.356    16420.338    15.361407 
   24380    904.39021   -6403.9452   -6303.0591    3695.4418    16404.857    15.338921 
   24390    891.56649   -6401.8874   -6302.4318    3514.7815    16392.577     15.32981 
   24400    888.34612   -6401.0345   -6301.9381    3460.9001    16383.238    15.330778 
   24410    907.05544    -6402.729   -6301.5456    3211.0837    16376.722    15.337567 
   24420    905.81618   -6402.3295   -6301.2843    4154.8078    16372.901    15.345986 
   24430    882.11015   -6399.5432   -6301.1424     4829.639    16372.335    15.352675 
   24440    874.65166   -6398.6411   -6301.0724    4431.6805    16375.463    15.354957 
   24450     891.3569   -6400.4879   -6301.0557    3336.7104    16381.922    15.352481 
   24460    882.83509   -6399.5805    -6301.099     3286.491    16390.949    15.347425 
   24470    867.85312   -6398.0056   -6301.1953     3253.286    16402.395    15.332993 
   24480    874.93309   -6398.9107   -6301.3105    2346.4831    16416.154    15.308547 
   24490    895.98729   -6401.3995   -6301.4507    717.96134    16431.493    15.286128 
   24500    882.81861   -6400.1127    -6301.633   -269.38496    16447.214    15.272305 
   24510    865.98379   -6398.4641   -6301.8623   -78.199825    16462.567    15.265398 
   24520     869.9927   -6399.1576   -6302.1087   -163.35516     16477.61    15.277014 
   24530     886.0866   -6401.2253    -6302.381   -713.99198    16492.267    15.312903 
   24540    881.36879    -6401.015   -6302.6969   -683.42778    16506.185     15.35591 
   24550      870.318   -6400.1422   -6303.0569   -808.73593    16519.326    15.396705 
   24560    858.65173   -6399.2248   -6303.4409   -1110.5151    16531.583    15.437924 
   24570     837.8405   -6397.2754    -6303.813   -606.21509    16542.842     15.48203 
   24580    842.84946   -6398.1709   -6304.1497   -700.17629    16553.391    15.524569 
   24590    852.34867   -6399.5349   -6304.4542   -1394.9107    16563.175    15.555721 
   24600    845.75902   -6399.0907    -6304.745   -2111.7657    16571.692    15.568152 
   24610    848.34236   -6399.6527   -6305.0189   -3025.1742    16578.388    15.564191 
   24620    861.31611   -6401.3719   -6305.2908   -3933.4108    16582.569     15.55835 
   24630    857.90363   -6401.2824   -6305.5819   -3651.3714    16583.661    15.566572 
   24640    848.45438   -6400.5356   -6305.8893   -3201.9977     16581.85    15.593217 
   24650    832.59145   -6399.0724   -6306.1956   -3123.8252    16577.499    15.631895 
   24660    817.17717   -6397.6341   -6306.4767   -2785.5448    16570.769    15.674377 
   24670    810.50347   -6397.1205   -6306.7076   -1790.9531    16561.989    15.715251 
   24680    821.78587   -6398.5457   -6306.8743   -877.43159    16551.941    15.754051 
   24690    832.44493   -6399.8418   -6306.9814   -1563.4571    16541.265    15.793118 
   24700    841.05877   -6400.8743   -6307.0529   -3180.5312     16529.49    15.836408 
   24710     836.8604   -6400.4295   -6307.0765   -4148.9125     16515.47    15.889033 
   24720    846.70448   -6401.4919   -6307.0407   -4428.8021    16498.481    15.951891 
   24730    845.53613   -6401.2684   -6306.9476   -3594.7286    16478.412    16.014801 
   24740    829.29306   -6399.2721   -6306.7632   -1737.0921    16456.002    16.070664 
   24750    845.05294   -6400.7079    -6306.441   -695.63112    16432.632    16.113097 
   24760    872.50107   -6403.3259   -6305.9971    -173.5996     16409.17    16.144755 
   24770    866.19025   -6402.1069    -6305.482    1570.6119    16386.178    16.171027 
   24780     868.8843   -6401.8337   -6304.9083    3094.5006    16364.887    16.187809 
   24790    889.97008   -6403.5742   -6304.2967     3269.598    16346.366    16.189184 
   24800    907.10495   -6404.9101   -6303.7212    2710.2428    16330.713    16.177817 
   24810    919.64195   -6405.8236   -6303.2362    2604.9825    16317.513    16.165354 
   24820    919.15172   -6405.4062   -6302.8734    3405.3785    16306.662    16.165988 
   24830    917.15733   -6404.9461   -6302.6358    4716.0472    16298.699    16.187628 
   24840    925.10624   -6405.7262   -6302.5292     5399.515    16294.481    16.229584 
   24850     907.1749    -6403.773   -6302.5763    5991.1146    16294.497     16.28218 
   24860    878.80215   -6400.7647    -6302.733    5945.6492    16299.061    16.335339 
   24870    873.66643   -6400.4287   -6302.9699    5153.1356    16308.032    16.385652 
   24880    853.44042   -6398.4434   -6303.2408    5013.9862    16320.824    16.432663 
   24890    840.08021   -6397.2235   -6303.5113    5297.1164    16337.255     16.46834 
   24900    844.15493   -6397.9216   -6303.7548    4613.7755    16357.372      16.4797 
   24910    845.42049   -6398.2655   -6303.9576    2830.0033     16380.59    16.468794 
   24920    850.60899   -6398.9912   -6304.1045    667.17575    16405.525     16.44962 
   24930    873.52096   -6401.6579   -6304.2154   -878.13432    16430.519    16.434776 
   24940    875.63697   -6402.0191   -6304.3405   -853.97039    16454.455    16.432248 
   24950    859.35397   -6400.3579   -6304.4957   -746.89469     16477.24    16.433738 
   24960    861.66202   -6400.7794   -6304.6597   -1445.9315    16498.944    16.430953 
   24970    874.83515   -6402.4155   -6304.8264   -3133.8827    16519.001    16.436558 
   24980    869.45838   -6402.0088   -6305.0195   -4020.7522    16536.253    16.457335 
   24990    848.76199   -6399.9174   -6305.2368   -3818.0953    16550.064     16.48394 
   25000    845.62039   -6399.7837   -6305.4534   -3714.7922    16560.562    16.508239 
Loop time of 16489.3 on 16 procs for 20000 steps with 864 atoms

Performance: 0.105 ns/day, 229.019 hours/ns, 1.213 timesteps/s
94.7% CPU use with 16 MPI tasks x 1 OpenMP threads

MPI task timing breakdown:
Section |  min time  |  avg time  |  max time  |%varavg| %total
---------------------------------------------------------------
Pair    | 11395      | 14080      | 16269      |1177.6 | 85.39
Bond    | 0.00172    | 0.005642   | 0.013222   |   4.8 |  0.00
Neigh   | 0.25587    | 0.31512    | 0.3764     |   6.3 |  0.00
Comm    | 213.08     | 1490.8     | 3651.5     |2189.5 |  9.04
Output  | 1.2842     | 1.3066     | 1.6322     |   7.4 |  0.01
Modify  | 5.6294     | 916.98     | 2495.9     |2907.4 |  5.56
Other   |            | 0.1102     |            |       |  0.00

Nlocal:        54.0000 ave          67 max          45 min
Histogram: 2 3 0 2 4 2 1 0 1 1
Nghost:        597.938 ave         641 max         525 min
Histogram: 1 1 0 1 2 2 1 4 0 4
Neighs:         0.00000 ave           0 max           0 min
Histogram: 16 0 0 0 0 0 0 0 0 0
FullNghs:      2898.75 ave        3854 max        2067 min
Histogram: 1 1 2 3 3 2 1 1 1 1

Total # of neighbors = 46380
Ave neighs/atom = 53.680556
Ave special neighs/atom = 0.0000000
Neighbor list builds = 2000
Dangerous builds = 2000
unfix   3
                
Total wall time: 5:42:46
