LAMMPS (2 Aug 2023)
OMP_NUM_THREADS environment is not set. Defaulting to 1 thread. (src/comm.cpp:98)
  using 1 OpenMP thread(s) per MPI task
read_restart    ../structure.ready
Reading restart file ...
  restart file = 2 Aug 2023, LAMMPS = 2 Aug 2023
  restoring atom style full from restart
  orthogonal box = (-0.96561355 -0.92810536 -8.6502923) to (22.50209 22.464582 73.259722)
  1 by 1 by 1 MPI processor grid
  pair style chgnet/gpu stores no restart info
  1536 atoms
Finding 1-2 1-3 1-4 neighbors ...
  special bond factors lj:    0        0        0       
  special bond factors coul:  0        0        0       
     0 = max # of 1-2 neighbors
     0 = max # of 1-3 neighbors
     0 = max # of 1-4 neighbors
     1 = max # of special neighbors
  special bonds CPU = 0.000 seconds
  read_restart CPU = 0.019 seconds

pair_style      chgnet/gpu /ocean/projects/cts180021p/wuziqi/clease/lammps-ASC/potentials/CHGNET
pair_coeff      * * MPtrj-efsm Cl K Li

neighbor        0.3 bin
neigh_modify    delay 10

timestep	    0.001
compute	        msd all msd
Resetting peratom fix info from restart file:
  fix style: STORE/ATOM, fix ID: msd_COMPUTE_STORE
thermo_style	custom step temp pe etotal press vol c_msd[4]
thermo	        10
dump	        1 all custom 10 xyz-mix.dump type id x y z
dump	        2 all custom 10 force-mix.dump type id fx fy fz

fix             2 gLiquid npt temp 1500 900.0 $(100.0*dt) z 1.01325 1.01325 $(1000.0*dt) couple none
fix             2 gLiquid npt temp 1500 900.0 0.10000000000000000555 z 1.01325 1.01325 $(1000.0*dt) couple none
fix             2 gLiquid npt temp 1500 900.0 0.10000000000000000555 z 1.01325 1.01325 1 couple none
run             10000
All restart file peratom fix info was re-assigned
Neighbor list info ...
  update: every = 1 steps, delay = 10 steps, check = yes
  max neighbors/atom: 2000, page size: 100000
  master list distance cutoff = 6.3
  ghost atom cutoff = 6.3
  binsize = 3.15, bins = 8 8 27
  1 neighbor lists, perpetual/occasional/extra = 1 0 0
  (1) pair chgnet/gpu, perpetual
      attributes: full, newton on
      pair build: full/bin
      stencil: full/bin/3d
      bin: standard
Per MPI rank memory allocation (min/avg/max) = 6.552 | 6.552 | 6.552 Mbytes
   Step          Temp          PotEng         TotEng         Press          Volume        c_msd[4]   
     20000   1489.388      -5641.9189     -5346.403       4439.9519      44966.358      56.411627    
     20010   1487.2109     -5641.4344     -5346.3505      4458.9612      44966.468      56.609392    
     20020   1520.5915     -5647.9969     -5346.2898      4149.588       44966.634      56.793892    
     20030   1505.4585     -5644.953      -5346.2485      4181.2218      44966.667      56.997406    
     20040   1496.5659     -5643.2153     -5346.2752      4211.4163      44966.564      57.200747    
     20050   1480.5255     -5640.0341     -5346.2766      4266.9818      44966.337      57.38639     
     20060   1484.5923     -5640.8082     -5346.2439      4173.5282      44965.682      57.563134    
     20070   1478.1085     -5639.4207     -5346.1428      4132.5189      44964.333      57.741093    
     20080   1494.8174     -5642.595      -5346.0018      3928.2692      44962.574      57.926894    
     20090   1491.4952     -5641.745      -5345.811       3938.1662      44960.578      58.126541    
     20100   1521.7047     -5647.5527     -5345.6247      3799.8393      44958.314      58.315198    
     20110   1526.6397     -5648.3914     -5345.4842      4394.4871      44955.697      58.48155     
     20120   1509.5051     -5644.9468     -5345.4393      5468.2127      44953.263      58.648292    
     20130   1507.212      -5644.5179     -5345.4655      5885.3121      44951.691      58.839952    
     20140   1500.2299     -5643.2146     -5345.5475      5903.9909      44951.31       59.047492    
     20150   1495.6492     -5642.4518     -5345.6936      5706.8618      44952.456      59.259072    
     20160   1491.427      -5641.8127     -5345.8923      5417.0109      44955.111      59.457227    
     20170   1475.1597     -5638.8076     -5346.1148      5455.1192      44958.567      59.640232    
     20180   1484.096      -5640.8232     -5346.3573      5251.392       44962.465      59.835929    
     20190   1500.0226     -5644.2524     -5346.6265      4953.6698      44966.657      60.053712    
     20200   1493.3828     -5643.286      -5346.9775      4849.7597      44970.664      60.266866    
     20210   1482.3976     -5641.53       -5347.4011      4932.3303      44974.078      60.457153    
     20220   1485.7154     -5642.651      -5347.8638      4744.7558      44976.676      60.622054    
     20230   1519.8614     -5649.9932     -5348.4309      4248.3801      44978.354      60.766641    
     20240   1524.9039     -5651.7411     -5349.1783      4230.8004      44979.314      60.914056    
     20250   1516.8681     -5651.1229     -5350.1546      4655.6985      44979.771      61.083064    
     20260   1470.3554     -5643.0007     -5351.2612      5394.7518      44980.002      61.273426    
     20270   1451.9466     -5640.4801     -5352.3931      5503.0433      44980.639      61.476213    
     20280   1461.8244     -5643.509      -5353.4621      5077.9311      44982.129      61.695837    
     20290   1458.4894     -5643.8375     -5354.4523      4645.2211      44984.263      61.902248    
     20300   1438.4887     -5640.7826     -5355.3658      4552.7155      44986.756      62.10023     
     20310   1468.7064     -5647.5846     -5356.1722      4382.4021      44989.431      62.305204    
     20320   1504.6583     -5655.49       -5356.9442      4376.55        44991.979      62.498586    
     20330   1490.3363     -5653.4839     -5357.7798      4858.958       44994.445      62.678203    
     20340   1482.0602     -5652.7354     -5358.6734      5022.2521      44997.411      62.865512    
     20350   1460.6142     -5649.3516     -5359.5448      4868.0534      45001.229      63.073447    
     20360   1437.6485     -5645.6056     -5360.3555      4652.7831      45005.744      63.286739    
     20370   1405.5947     -5639.8594     -5360.9693      5013.4762      45010.589      63.484124    
     20380   1427.9299     -5644.7051     -5361.3833      4972.7757      45015.917      63.665256    
     20390   1477.1375     -5654.7308     -5361.6456      4428.6653      45021.923      63.840003    
     20400   1477.515      -5655.0623     -5361.9021      4491.8124      45028.499      64.038767    
     20410   1447.6619     -5649.3717     -5362.1348      4824.2273      45035.497      64.261028    
     20420   1442.0146     -5648.3994     -5362.2831      4626.0889      45042.948      64.464038    
     20430   1438.6794     -5647.7955     -5362.3409      4624.88        45050.907      64.636281    
     20440   1407.897      -5641.5916     -5362.2446      4786.7309      45059.272      64.814748    
     20450   1407.2028     -5641.1653     -5361.9561      4699.8916      45068.041      65.030916    
     20460   1420.4985     -5643.2596     -5361.4124      4480.8553      45077.445      65.272624    
     20470   1430.5975     -5644.4707     -5360.6197      4353.3308      45087.873      65.503976    
     20480   1446.7406     -5646.676      -5359.622       4582.0611      45099.253      65.713132    
     20490   1452.2438     -5646.6079     -5358.4619      4788.9356      45111.735      65.926025    
     20500   1437.7189     -5642.4023     -5357.1383      4819.8827      45125.771      66.154863    
     20510   1462.8946     -5645.9425     -5355.6833      4292.1119      45141.216      66.377109    
     20520   1472.1456     -5646.2292     -5354.1345      4134.5596      45157.315      66.579081    
     20530   1485.0018     -5647.2587     -5352.613       3996.2723      45173.791      66.795591    
     20540   1508.0818     -5650.4355     -5351.2105      3597.8797      45190.432      67.042636    
     20550   1500.5492     -5647.7325     -5350.0021      3562.3929      45206.71       67.317605    
     20560   1479.4123     -5642.5708     -5349.0342      3810.3328      45222.647      67.595101    
     20570   1491.707      -5644.2133     -5348.2372      3761.3839      45238.786      67.845541    
     20580   1505.1708     -5646.2446     -5347.5972      3667.0042      45255.265      68.093351    
     20590   1505.1134     -5645.8118     -5347.1757      3810.2515      45271.91       68.352514    
     20600   1495.5183     -5643.6683     -5346.9361      4145.8345      45288.856      68.611114    
     20610   1492.5913     -5642.9883     -5346.8368      3982.9337      45306.668      68.865931    
     20620   1495.7318     -5643.6193     -5346.8447      3517.4869      45325.693      69.121954    
     20630   1505.4811     -5645.684      -5346.975       3138.2247      45345.63       69.404366    
     20640   1485.0967     -5641.8721     -5347.2076      3414.8421      45365.715      69.726617    
     20650   1446.2128     -5634.4266     -5347.4773      3859.0988      45385.872      70.083355    
     20660   1463.9001     -5638.1829     -5347.7241      3732.4639      45406.454      70.452999    
     20670   1446.5932     -5634.9507     -5347.9259      4140.8989      45427.441      70.813915    
     20680   1418.5253     -5629.5216     -5348.0659      4349.8926      45449.102      71.16171     
     20690   1425.3079     -5630.8781     -5348.0766      3938.4506      45471.847      71.49376     
     20700   1442.4742     -5634.1699     -5347.9624      3734.4311      45495.293      71.811101    
     20710   1458.1792     -5637.1421     -5347.8184      3908.8712      45519.209      72.128287    
     20720   1449.5794     -5635.2759     -5347.6586      4453.5408      45543.662      72.437984    
     20730   1474.4946     -5640.0846     -5347.5238      4345.9008      45568.832      72.737265    
     20740   1487.1537     -5642.5181     -5347.4455      3917.3675      45594.788      73.045646    
     20750   1449.1086     -5634.9763     -5347.4524      4236.4913      45621.275      73.368734    
     20760   1403.2547     -5625.8551     -5347.4293      4454.8319      45648.152      73.687231    
     20770   1425.749      -5630.1636     -5347.2746      3944.1447      45675.293      73.984633    
     20780   1469.2613     -5638.5443     -5347.0218      3383.5765      45702.199      74.270845    
     20790   1467.6664     -5637.9833     -5346.7772      3776.556       45728.59       74.572973    
     20800   1480.4189     -5640.3801     -5346.6438      3845.0091      45754.521      74.905548    
     20810   1483.6917     -5640.9565     -5346.5709      3533.7946      45779.798      75.263111    
     20820   1494.4918     -5643.1604     -5346.6318      3193.1466      45804.289      75.622549    
     20830   1512.074      -5646.8833     -5346.8662      2656.9862      45827.62       75.955605    
     20840   1492.3695     -5643.408      -5347.3005      2712.337       45849.652      76.251166    
     20850   1481.3064     -5641.812      -5347.8996      2976.6221      45870.534      76.51493     
     20860   1468.9776     -5640.0784     -5348.6122      3158.8124      45890.584      76.782328    
     20870   1446.0238     -5636.3101     -5349.3982      3402.7823      45910.036      77.070511    
     20880   1439.5496     -5635.8102     -5350.1829      3236.7243      45928.883      77.361618    
     20890   1434.3043     -5635.5198     -5350.9333      2864.908       45946.814      77.614048    
     20900   1400.6606     -5629.5535     -5351.6423      2842.7755      45963.903      77.824123    
     20910   1380.8548     -5626.1426     -5352.1612      2709.6177      45980.287      78.015343    
     20920   1397.6941     -5629.8362     -5352.5136      2221.74        45995.63       78.186353    
     20930   1392.971      -5629.0708     -5352.6854      2236.4683      46009.377      78.329317    
     20940   1386.3536     -5627.7598     -5352.6874      2458.6454      46021.295      78.459381    
     20950   1401.8243     -5630.6514     -5352.5093      2509.3918      46031.611      78.602092    
     20960   1399.1034     -5629.756      -5352.1538      2625.0248      46040.744      78.776651    
     20970   1404.0312     -5630.1943     -5351.6144      2760.2705      46048.807      78.943055    
     20980   1385.408      -5625.7009     -5350.8161      2988.8176      46056.093      79.070909    
     20990   1387.5637     -5624.9612     -5349.6487      2628.2348      46063.246      79.169331    
     21000   1407.5604     -5627.217      -5347.9369      1878.8204      46070.144      79.245052    
     21010   1418.0358     -5626.9841     -5345.6255      1535.7063      46075.893      79.31992     
     21020   1444.3519     -5629.4015     -5342.8214      1333.2149      46080.046      79.411175    
     21030   1482.0522     -5633.9147     -5339.8543      1257.2139      46082.636      79.51495     
     21040   1491.535      -5633.1929     -5337.251       1681.3028      46083.829      79.642131    
     21050   1490.3546     -5631.0249     -5335.3172      2160.3753      46083.852      79.798835    
     21060   1472.2981     -5626.1342     -5334.0091      2703.9729      46083.031      79.976538    
     21070   1501.8583     -5631.1926     -5333.2024      2530.1941      46081.766      80.143983    
     21080   1481.0071     -5626.5967     -5332.7437      2909.5298      46080.183      80.273696    
     21090   1478.7055     -5625.9445     -5332.5481      3076.9358      46078.762      80.36738     
     21100   1481.2314     -5626.441      -5332.5435      2833.0682      46077.585      80.44606     
     21110   1471.8428     -5624.7114     -5332.6767      2732.835       46076.167      80.5309      
     21120   1487.8875     -5628.1772     -5332.9591      2491.3167      46074.143      80.624896    
     21130   1485.2381     -5628.108      -5333.4155      2277.4407      46070.961      80.702715    
     21140   1475.3381     -5626.7607     -5334.0325      2141.9026      46066.014      80.751706    
     21150   1489.0628     -5630.2588     -5334.8074      2049.4108      46059.156      80.76998     
     21160   1469.5581     -5627.317      -5335.7356      2648.2152      46050.81       80.763827    
     21170   1450.5132     -5624.5675     -5336.7649      2945.4815      46041.364      80.749233    
     21180   1478.6806     -5631.2721     -5337.8807      2340.0263      46030.73       80.751027    
     21190   1476.2974     -5632.0576     -5339.1391      2032.9797      46018.529      80.769914    
     21200   1443.2492     -5626.8373     -5340.476       2346.3944      46004.679      80.823696    
     21210   1430.7289     -5625.6548     -5341.7777      2489.5822      45989.486      80.904977    
     21220   1426.8832     -5626.1268     -5343.0128      2400.2882      45973.023      80.995925    
     21230   1414.4389     -5624.7982     -5344.1533      2431.2142      45955.126      81.079333    
     21240   1427.0932     -5628.3589     -5345.2032      2065.8935      45935.542      81.145797    
     21250   1449.9178     -5633.8927     -5346.2082      1471.1187      45914.014      81.214855    
     21260   1459.1641     -5636.7645     -5347.2455      1682.2731      45890.54       81.290345    
     21270   1421.1933     -5630.2863     -5348.3012      2477.8711      45865.454      81.351496    
     21280   1415.5549     -5630.1738     -5349.3075      2722.6087      45839.161      81.376844    
     21290   1417.8138     -5631.5061     -5350.1915      2674.1708      45812.002      81.373256    
     21300   1418.4118     -5632.4355     -5351.0023      2612.7745      45784.538      81.370734    
     21310   1417.028      -5632.9211     -5351.7625      2814.8628      45756.898      81.370488    
     21320   1423.0679     -5634.8287     -5352.4717      2908.9715      45729.056      81.356577    
     21330   1406.4394     -5632.1924     -5353.1347      3233.9391      45701          81.300147    
     21340   1407.8992     -5633.0797     -5353.7323      3226.3391      45672.917      81.209279    
     21350   1420.9697     -5636.2229     -5354.2822      2938.0438      45644.975      81.115155    
     21360   1414.9456     -5635.5604     -5354.8149      2993.6559      45617.078      81.030157    
     21370   1422.0455     -5637.5079     -5355.3537      2934.2466      45589.146      80.943031    
     21380   1410.8475     -5635.7754     -5355.843       2964.0774      45561.292      80.854217    
     21390   1441.0274     -5642.2877     -5356.3672      2683.2825      45533.748      80.780373    
     21400   1433.9159     -5641.4612     -5356.9517      3085.9643      45506.483      80.74031     
     21410   1426.0777     -5640.5391     -5357.5848      3535.6463      45479.633      80.740271    
     21420   1430.7224     -5642.1372     -5358.2614      3631.3205      45453.415      80.757832    
     21430   1440.7549     -5644.8794     -5359.013       3422.2978      45428.052      80.800669    
     21440   1434.3854     -5644.4451     -5359.8425      3179.0648      45403.881      80.861036    
     21450   1412.7856     -5641.0514     -5360.7345      3168.5461      45380.868      80.889906    
     21460   1409.9415     -5641.4019     -5361.6493      3072.5489      45358.599      80.872962    
     21470   1374.6405     -5635.2708     -5362.5224      3202.1387      45336.587      80.817783    
     21480   1384.7953     -5638.0496     -5363.2863      2727.2734      45314.493      80.742272    
     21490   1379.5437     -5637.6588     -5363.9376      2406.5218      45292.202      80.670644    
     21500   1356.3437     -5633.5609     -5364.4429      2427.4772      45269.704      80.611011    
     21510   1375.6182     -5637.7515     -5364.8091      2630.2949      45247.151      80.56582     
     21520   1401.1816     -5643.0615     -5365.047       3102.0481      45224.588      80.564754    
     21530   1435.4567     -5650.0902     -5365.275       3388.1015      45202.191      80.617907    
     21540   1456.3408     -5654.5463     -5365.5874      3201.6163      45180.134      80.704466    
     21550   1445.0351     -5652.8079     -5366.0922      2982.781       45158.41       80.803725    
     21560   1446.1186     -5653.6919     -5366.7613      2721.5423      45137.344      80.89846     
     21570   1444.9991     -5654.3185     -5367.61        2864.3202      45117.163      80.988808    
     21580   1445.3678     -5655.4453     -5368.6636      3246.2195      45097.952      81.057435    
     21590   1447.0133     -5657.0105     -5369.9023      3633.5588      45079.747      81.070944    
     21600   1443.7229     -5657.8521     -5371.3967      4145.2413      45062.513      81.024772    
     21610   1407.5937     -5652.3387     -5373.052       4984.5402      45046.2        80.968185    
     21620   1391.9355     -5650.8347     -5374.6548      5323.8363      45031.174      80.95421     
     21630   1390.1571     -5651.9546     -5376.1275      5255.4928      45017.776      80.972072    
     21640   1401.212      -5655.4688     -5377.4482      4670.9571      45005.968      80.976682    
     21650   1411.7375     -5658.7123     -5378.6033      3867.2226      44995.243      80.957934    
     21660   1400.8629     -5657.5422     -5379.591       3530.4327      44985.128      80.936511    
     21670   1397.9765     -5657.7656     -5380.3871      3212.2572      44975.308      80.930459    
     21680   1402.9162     -5659.3674     -5381.0088      2977.185       44965.551      80.943959    
     21690   1391.7497     -5657.6177     -5381.4746      3492.5297      44955.707      80.978405    
     21700   1408.9893     -5661.3893     -5381.8256      3895.1962      44945.77       81.011566    
     21710   1431.1037     -5666.0955     -5382.144       3911.279       44936.287      81.042717    
     21720   1407.7074     -5661.787      -5382.4777      4073.0958      44927.794      81.092479    
     21730   1405.5048     -5661.7053     -5382.833       3653.6192      44920.281      81.148898    
     21740   1394.3955     -5659.8237     -5383.1557      3337.8454      44913.218      81.203801    
     21750   1372.9114     -5655.8324     -5383.4271      3267.8144      44906.285      81.238692    
     21760   1376.3543     -5656.7087     -5383.6203      3362.9459      44899.366      81.232796    
     21770   1377.0057     -5656.9493     -5383.7317      3676.8244      44892.578      81.201551    
     21780   1374.4544     -5656.4872     -5383.7757      4258.5443      44886.12       81.175446    
     21790   1383.6142     -5658.2802     -5383.7513      4657.2627      44880.472      81.189357    
     21800   1393.9515     -5660.2793     -5383.6994      4558.8225      44876.009      81.253622    
     21810   1403.8517     -5662.2092     -5383.6649      4382.9349      44872.799      81.330073    
     21820   1394.2604     -5660.2903     -5383.6491      4462.9384      44870.842      81.405887    
     21830   1414.5026     -5664.3486     -5383.6911      4224.633       44869.886      81.487564    
     21840   1425.7742     -5666.6884     -5383.7943      4082.2737      44869.339      81.569099    
     21850   1416.226      -5665.0305     -5384.031       4402.5205      44868.711      81.646128    
     21860   1374.2898     -5657.0339     -5384.3551      4960.3428      44868.406      81.69947     
     21870   1380.1966     -5658.5303     -5384.6795      4681.0078      44868.992      81.726592    
     21880   1387.0972     -5660.1958     -5384.9758      4038.6785      44870.233      81.765662    
     21890   1399.8878     -5663.0596     -5385.3018      3517.9536      44871.543      81.847613    
     21900   1392.5927     -5661.9653     -5385.655       3400.6671      44872.691      81.98006     
     21910   1395.7447     -5663.0134     -5386.0777      3437.9876      44873.833      82.141637    
     21920   1398.682      -5664.0916     -5386.573       3523.425       44875.204      82.300514    
     21930   1419.6461     -5668.8538     -5387.1756      3668.7503      44877.013      82.463191    
     21940   1411.3461     -5667.9719     -5387.9407      4217.512       44878.957      82.62905     
     21950   1356.1303     -5657.8792     -5388.8035      4909.4876      44880.998      82.774229    
     21960   1336.8805     -5654.8868     -5389.6306      4576.2383      44883.717      82.882277    
     21970   1322.4193     -5652.7094     -5390.3224      3991.6957      44887.151      82.956803    
     21980   1294.7617     -5647.734      -5390.8347      3998.8914      44890.975      83.01956     
     21990   1305.4831     -5650.1118     -5391.0853      3716.451       44895.068      83.095533    
     22000   1341.1637     -5657.2482     -5391.1421      3297.5211      44899.381      83.186812    
     22010   1346.9358     -5658.2798     -5391.0284      3370.157       44903.852      83.285485    
     22020   1349.2006     -5658.4929     -5390.7922      3617.491       44908.555      83.394117    
     22030   1348.7601     -5658.0542     -5390.4409      3749.5973      44913.615      83.47677     
     22040   1338.5404     -5655.4918     -5389.9062      3682.626       44918.953      83.519176    
     22050   1333.1096     -5653.6897     -5389.1817      3585.803       44924.103      83.542117    
     22060   1311.9851     -5648.5334     -5388.2168      3684.2075      44928.922      83.582226    
     22070   1324.7018     -5649.7852     -5386.9453      3556.3533      44933.684      83.6508      
     22080   1340.1747     -5651.2771     -5385.3672      3382.4035      44938.675      83.730745    
     22090   1370.4202     -5655.4933     -5383.5823      3230.9581      44943.964      83.806318    
     22100   1390.9197     -5657.7338     -5381.7554      3334.828       44949.153      83.89652     
     22110   1420.6974     -5661.9785     -5380.0918      3161.1114      44953.836      84.013108    
     22120   1458.9719     -5668.2323     -5378.7514      2846.4931      44957.873      84.170712    
     22130   1448.4711     -5665.2341     -5377.8367      3023.6534      44961.406      84.348476    
     22140   1455.1376     -5666.068      -5377.3479      3393.9563      44965.05       84.514774    
     22150   1429.9784     -5660.9004     -5377.1722      4500.9515      44969.439      84.668516    
     22160   1399.8127     -5654.9799     -5377.237       5378.2237      44975.261      84.840745    
     22170   1402.6686     -5655.7419     -5377.4324      5471.6222      44982.794      85.031919    
     22180   1389.8143     -5653.4429     -5377.6838      5540.4508      44992.095      85.205995    
     22190   1401.9183     -5656.1847     -5378.024       5185.0175      45003.15       85.350652    
     22200   1406.6525     -5657.5155     -5378.4155      4881.6737      45015.681      85.485655    
     22210   1423.2426     -5661.3303     -5378.9386      4471.7115      45029.414      85.607389    
     22220   1417.5326     -5660.8499     -5379.5911      3962.3686      45044.101      85.735078    
     22230   1420.201      -5662.1924     -5380.4042      3052.303       45059.23       85.887471    
     22240   1371.8686     -5653.4648     -5381.2665      3039.5687      45074.068      86.076383    
     22250   1338.8415     -5647.7421     -5382.0967      3482.7534      45088.612      86.283117    
     22260   1342.3078     -5649.1099     -5382.7768      3567.8905      45103.36       86.461295    
     22270   1339.6924     -5649.1216     -5383.3074      3896.6648      45118.381      86.622225    
     22280   1347.9545     -5651.1929     -5383.7394      4215.5601      45133.527      86.809537    
     22290   1348.2654     -5651.5884     -5384.0732      4069.3754      45148.671      87.004112    
     22300   1347.7543     -5651.7444     -5384.3306      3732.7011      45163.549      87.182638    
     22310   1335.8927     -5649.5892     -5384.529       3476.7158      45177.917      87.349238    
     22320   1337.9067     -5650.0975     -5384.6377      3356.8873      45191.791      87.52473     
     22330   1322.6585     -5647.0759     -5384.6415      3622.3049      45205.255      87.716526    
     22340   1349.2113     -5652.2798     -5384.5769      3547.5452      45218.47       87.900416    
     22350   1330.2999     -5648.3555     -5384.4049      3808.7118      45231.34       88.061283    
     22360   1337.0198     -5649.4717     -5384.1878      3549.6861      45243.678      88.206893    
     22370   1327.3169     -5647.229      -5383.8703      3092.9306      45254.797      88.375109    
     22380   1310.6633     -5643.4937     -5383.4393      2790.371       45264.149      88.576421    
     22390   1289.8193     -5638.7849     -5382.8663      2775.7311      45271.884      88.812029    
     22400   1285.8868     -5637.2358     -5382.0975      2890.9359      45278.481      89.060674    
     22410   1338.8866     -5646.7705     -5381.1162      2724.8876      45284.175      89.262234    
     22420   1353.9512     -5648.6627     -5380.0194      3264.8281      45288.937      89.38449     
     22430   1342.1113     -5645.2493     -5378.9552      3642.3481      45292.798      89.433637    
     22440   1348.3501     -5645.4456     -5377.9136      3415.6433      45295.727      89.418731    
     22450   1344.6037     -5643.6801     -5376.8914      3272.9111      45297.646      89.384451    
     22460   1364.4968     -5646.6936     -5375.9579      3268.1338      45298.772      89.367762    
     22470   1387.7919     -5650.4963     -5375.1385      3401.0873      45299.316      89.388484    
     22480   1399.7487     -5652.2585     -5374.5283      3869.1692      45299.17       89.430186    
     22490   1408.5902     -5653.6655     -5374.1811      4162.8806      45298.367      89.47214     
     22500   1382.3        -5648.3108     -5374.0427      4567.0637      45297.069      89.538215    
     22510   1368.7803     -5645.644      -5374.0584      4650.6371      45295.341      89.629934    
     22520   1392.2396     -5650.3997     -5374.1594      3972.1811      45293.315      89.693903    
     22530   1382.0942     -5648.5682     -5374.3409      3525.0989      45290.895      89.708162    
     22540   1379.4009     -5648.3287     -5374.6358      3142.5559      45288.079      89.699473    
     22550   1366.948      -5646.1985     -5374.9764      3177.7861      45284.944      89.691366    
     22560   1370.5799     -5647.2733     -5375.3306      3364.5037      45281.379      89.716583    
     22570   1378.6634     -5649.2655     -5375.7189      3417.0706      45277.455      89.774493    
     22580   1383.2073     -5650.6187     -5376.1705      3363.4188      45273.497      89.821597    
     22590   1393.1303     -5653.1129     -5376.6959      3265.3324      45269.806      89.858858    
     22600   1365.7406     -5648.2727     -5377.2902      3520.1884      45266.431      89.901402    
     22610   1361.7393     -5648.1031     -5377.9146      3460.8075      45263.646      89.960844    
     22620   1374.633      -5651.2789     -5378.5321      3361.3576      45261.614      90.025511    
     22630   1386.3972     -5654.3057     -5379.2246      3316.8537      45260.173      90.109449    
     22640   1390.3032     -5655.8602     -5380.0042      3167.4132      45259.098      90.230709    
     22650   1392.1292     -5657.1229     -5380.9046      2778.124       45258.209      90.391317    
     22660   1378.4733     -5655.4025     -5381.8936      2595.3174      45257.389      90.559281    
     22670   1359.3128     -5652.624      -5382.9169      2578.5894      45256.653      90.705553    
     22680   1352.4744     -5652.2252     -5383.8749      2546.2337      45255.747      90.803722    
     22690   1403.3867     -5663.3218     -5384.8697      1978.545       45254.391      90.884975    
     22700   1375.423      -5658.8368     -5385.9332      2511.8235      45252.304      91.013735    
     22710   1365.5099     -5657.9583     -5387.0215      2919.8891      45249.762      91.207769    
     22720   1370.3648     -5659.9955     -5388.0955      3113.5928      45247.188      91.434975    
     22730   1334.0142     -5653.8054     -5389.1179      3462.9511      45244.713      91.643745    
     22740   1337.6685     -5655.4351     -5390.0225      3059.5072      45242.307      91.827037    
     22750   1371.176      -5662.9116     -5390.8507      2364.4478      45239.788      91.990127    
     22760   1353.7353     -5660.2888     -5391.6883      2533.2989      45237.144      92.121687    
     22770   1336.6599     -5657.7041     -5392.4916      2954.8417      45234.668      92.238443    
     22780   1336.0445     -5658.3153     -5393.2249      2962.8328      45232.374      92.386177    
     22790   1322.4406     -5656.2784     -5393.8873      3021.8579      45229.767      92.573204    
     22800   1327.2249     -5657.8008     -5394.4604      2857.5567      45226.675      92.771408    
     22810   1360.0969     -5664.85       -5394.9873      2431.6775      45223.212      92.911325    
     22820   1380.1481     -5669.4441     -5395.6029      2318.6513      45219.14       92.970138    
     22830   1363.6203     -5666.8964     -5396.3346      2847.8215      45214.314      93.019553    
     22840   1338.7343     -5662.7201     -5397.096       2902.2398      45208.991      93.084096    
     22850   1320.9628     -5659.9644     -5397.8664      2656.4474      45203.23       93.149389    
     22860   1287.2729     -5653.9519     -5398.5385      2524.2282      45196.646      93.2206      
     22870   1293.9631     -5655.809      -5399.0681      2309.4662      45188.765      93.29816     
     22880   1286.1113     -5654.6228     -5399.4399      2458.7046      45179.423      93.404587    
     22890   1280.9324     -5653.8193     -5399.664       2900.6108      45168.998      93.545015    
     22900   1291.2717     -5655.9441     -5399.7373      3410.4919      45158.042      93.663905    
     22910   1310.6345     -5659.7238     -5399.6751      3649.0889      45147.043      93.745404    
     22920   1324.9306     -5662.4513     -5399.5661      3432.1166      45135.794      93.821038    
     22930   1347.2793     -5666.8059     -5399.4864      2719.3958      45123.456      93.895578    
     22940   1341.5754     -5665.6666     -5399.4788      2312.6196      45109.312      93.95067     
     22950   1338.7244     -5665.1598     -5399.5377      2053.2048      45093.348      93.99923     
     22960   1335.1222     -5664.5654     -5399.6581      1939.3493      45075.727      94.041698    
     22970   1337.9774     -5665.3129     -5399.839       1983.5139      45056.509      94.080632    
     22980   1320.9295     -5662.1316     -5400.0403      2419.2283      45035.907      94.136734    
     22990   1332.6941     -5664.728      -5400.3024      2572.3383      45014.315      94.18772     
     23000   1341.9015     -5666.8601     -5400.6076      2869.9342      44992.092      94.202088    
     23010   1327.659      -5664.4233     -5400.9968      3205.1244      44969.456      94.243178    
     23020   1330.0461     -5665.3942     -5401.494       3088.6192      44946.607      94.371964    
     23030   1324.8201     -5664.936      -5402.0728      2891.7938      44923.601      94.565362    
     23040   1320.3323     -5664.724      -5402.7512      2871.6572      44900.492      94.75422     
     23050   1317.7309     -5664.9917     -5403.535       2981.9448      44877.411      94.898787    
     23060   1328.2825     -5667.991      -5404.4407      3146.5654      44854.362      95.011193    
     23070   1340.5092     -5671.5469     -5405.5707      3713.0974      44831.187      95.113249    
     23080   1310.1068     -5666.8198     -5406.8759      4184.3989      44807.954      95.183391    
     23090   1316.7066     -5669.5939     -5408.3404      4087.1668      44784.805      95.221975    
     23100   1300.8977     -5667.9877     -5409.8709      3946.7898      44761.613      95.221302    
     23110   1278.3535     -5664.9968     -5411.3532      3748.3569      44738.723      95.181405    
     23120   1279.7402     -5666.6521     -5412.7333      3362.6779      44716.367      95.140365    
     23130   1256.7996     -5663.2705     -5413.9035      3703.9142      44694.142      95.111941    
     23140   1265.7444     -5665.9889     -5414.8471      3778.0366      44671.902      95.092544    
     23150   1285.6083     -5670.6588     -5415.5757      3932.133       44649.57       95.087599    
     23160   1283.0116     -5670.7163     -5416.1484      4234.8919      44627.39       95.109285    
     23170   1292.2682     -5672.985      -5416.5805      4266.1351      44605.811      95.151772    
     23180   1291.4672     -5673.1498     -5416.9042      4187.7609      44584.885      95.200548    
     23190   1301.2013     -5675.3438     -5417.1668      4010.9225      44564.374      95.257913    
     23200   1293.1616     -5673.9609     -5417.3792      4092.9667      44544.111      95.316284    
     23210   1285.0445     -5672.4924     -5417.5212      4254.661       44524.076      95.370528    
     23220   1282.1974     -5671.9944     -5417.5881      4452.7275      44504.388      95.410885    
     23230   1285.5222     -5672.6082     -5417.5421      4593.4921      44485.215      95.42218     
     23240   1291.583      -5673.7079     -5417.4393      4641.4615      44466.793      95.409233    
     23250   1282.2394     -5671.7047     -5417.2901      4718.5657      44449.242      95.373912    
     23260   1294.1844     -5673.8789     -5417.0942      4401.6176      44432.368      95.323659    
     23270   1293.1478     -5673.4266     -5416.8476      4074.8018      44415.931      95.283133    
     23280   1292.0511     -5672.9637     -5416.6023      3928.7506      44400.081      95.288559    
     23290   1292.5331     -5672.7715     -5416.3144      3769.0792      44384.96       95.354096    
     23300   1333.6707     -5680.6824     -5416.063       3628.8975      44370.409      95.468016    
     23310   1327.5144     -5679.2626     -5415.8647      4324.8646      44356.65       95.59691     
     23320   1327.2018     -5679.0791     -5415.7433      4475.4628      44344.378      95.706681    
     23330   1367.8467     -5687.2035     -5415.8031      3686.5864      44333.579      95.777764    
     23340   1327.4922     -5679.4083     -5416.0149      3630.4667      44323.767      95.825937    
     23350   1324.2231     -5679.1029     -5416.3581      3826.4674      44314.92       95.875231    
     23360   1332.4288     -5681.1555     -5416.7826      4119.9303      44307.133      95.946334    
     23370   1307.4823     -5676.7101     -5417.2869      4506.6179      44300.452      96.048182    
     23380   1299.4346     -5675.6514     -5417.8249      4247.249       44294.883      96.177307    
     23390   1294.6134     -5675.2075     -5418.3377      3879.7534      44290.114      96.31532     
     23400   1324.6851     -5681.6785     -5418.842       3401.0013      44286.06       96.453429    
     23410   1323.9159     -5682.0952     -5419.4113      3576.353       44282.82       96.577543    
     23420   1286.2051     -5675.2324     -5420.0309      4200.3373      44280.642      96.690639    
     23430   1265.482      -5671.6509     -5420.5611      4477.023       44279.591      96.818964    
     23440   1292.5302     -5677.4454     -5420.9889      4217.4768      44279.249      96.963974    
     23450   1272.814      -5673.8859     -5421.3413      4530.2049      44279.266      97.097568    
     23460   1246.9386     -5668.9918     -5421.5813      4840.9008      44279.878      97.233734    
     23470   1230.6337     -5665.8018     -5421.6264      4925.835       44281.516      97.381116    
     23480   1283.1428     -5676.1479     -5421.554       4201.6584      44284.342      97.54261     
     23490   1280.3609     -5675.4434     -5421.4014      4181.6881      44287.913      97.710426    
     23500   1278.9538     -5675.0171     -5421.2543      4476.3276      44291.932      97.856427    
     23510   1291.7135     -5677.4114     -5421.1169      4633.0433      44296.305      97.976108    
     23520   1314.7997     -5681.8978     -5421.0227      4498.1871      44301.224      98.091709    
     23530   1322.9912     -5683.522      -5421.0216      4396.5273      44306.949      98.227011    
     23540   1318.5697     -5682.7632     -5421.1401      4425.7165      44313.562      98.370589    
     23550   1305.7475     -5680.4132     -5421.3342      4691.0082      44321.074      98.498439    
     23560   1297.8286     -5679.0469     -5421.5391      4845.9367      44329.436      98.619178    
     23570   1304.618      -5680.6227     -5421.7678      4668.5761      44338.368      98.751528    
     23580   1294.1838     -5678.8004     -5422.0158      4589.3324      44347.77       98.914197    
     23590   1293.0464     -5678.8444     -5422.2854      4333.3601      44357.908      99.114109    
     23600   1264.5342     -5673.4237     -5422.522       4227.9478      44368.736      99.322445    
     23610   1258.5906     -5672.4166     -5422.6942      4016.3343      44379.782      99.522736    
     23620   1262.9893     -5673.3615     -5422.7663      3723.9953      44390.569      99.726739    
     23630   1271.7075     -5675.098      -5422.773       3730.4789      44400.851      99.929308    
     23640   1269.6731     -5674.6761     -5422.7548      4094.7154      44410.887      100.12202    
     23650   1253.8054     -5671.4458     -5422.6729      4270.0706      44421.076      100.31142    
     23660   1282.4531     -5676.9939     -5422.5368      3855.1833      44431.443      100.49667    
     23670   1283.1194     -5676.9467     -5422.3574      3819.4118      44441.816      100.68493    
     23680   1301.5342     -5680.4678     -5422.2248      3714.3382      44452.155      100.90337    
     23690   1323.2052     -5684.7023     -5422.1594      3657.2861      44462.374      101.14833    
     23700   1315.8331     -5683.3154     -5422.2353      4242.2976      44472.429      101.39092    
     23710   1314.2467     -5683.2415     -5422.4761      4414.5764      44482.535      101.64051    
     23720   1299.8542     -5680.726      -5422.8163      4157.4562      44492.788      101.89045    
     23730   1290.7085     -5679.3827     -5423.2876      3954.9759      44503.096      102.11391    
     23740   1279.6076     -5677.7395     -5423.847       3927.2787      44513.62       102.32111    
     23750   1258.6581     -5674.162      -5424.4262      3980.288       44524.697      102.529      
     23760   1262.2388     -5675.458      -5425.0117      3652.4329      44536.258      102.72343    
     23770   1232.8844     -5670.1666     -5425.5447      3521.9542      44547.964      102.9307     
     23780   1217.538      -5667.5596     -5425.9826      3072.7727      44559.826      103.1771     
     23790   1227.3574     -5669.7711     -5426.2458      2626.8348      44571.567      103.4036     
     23800   1258.0313     -5676.0161     -5426.4047      2542.7152      44582.575      103.55688    
     23810   1249.7818     -5674.4714     -5426.4968      2962.7761      44592.591      103.6681     
     23820   1264.4932     -5677.4553     -5426.5618      3106.2972      44601.863      103.78741    
     23830   1279.2367     -5680.4161     -5426.5973      3022.8167      44610.677      103.95533    
     23840   1290.0513     -5682.6475     -5426.6828      3019.2583      44619.042      104.18146    
     23850   1268.9051     -5678.5986     -5426.8297      3241.7321      44626.91       104.42979    
     23860   1251.6161     -5675.3489     -5427.0103      3219.4657      44634.279      104.68112    
     23870   1259.4546     -5677.0664     -5427.1726      2834.7018      44641.252      104.91689    
     23880   1257.2098     -5676.7793     -5427.3309      2557.0364      44647.733      105.108      
     23890   1218.647      -5669.2592     -5427.4621      2938.7286      44653.524      105.24364    
     23900   1206.0554     -5666.7506     -5427.4519      3078.0965      44658.845      105.33077    
     23910   1221.6351     -5669.6382     -5427.2483      2786.9797      44663.963      105.39476    
     23920   1211.4632     -5667.1948     -5426.8232      2945.6214      44668.832      105.43397    
     23930   1215.6855     -5667.3655     -5426.1561      3154.6795      44673.45       105.44678    
     23940   1240.7038     -5671.4084     -5425.235       3174.3588      44677.726      105.44738    
     23950   1245.7881     -5671.2806     -5424.0984      3461.8406      44681.521      105.45242    
     23960   1254.3099     -5671.6952     -5422.8221      3701.0572      44685.027      105.47693    
     23970   1282.4854     -5675.9246     -5421.4611      3391.8998      44688.41       105.49075    
     23980   1300.2562     -5678.1328     -5420.1434      3068.9109      44691.666      105.50503    
     23990   1302.8581     -5677.4894     -5418.9837      3270.2807      44694.971      105.54805    
     24000   1289.9656     -5673.9569     -5418.0093      3572.7946      44698.773      105.6145     
     24010   1289.6427     -5673.1036     -5417.2201      3343.8845      44703.269      105.72457    
     24020   1275.7609     -5669.699      -5416.5697      3130.4505      44708.281      105.87155    
     24030   1274.3043     -5668.8611     -5416.0209      2973.9963      44713.648      106.02016    
     24040   1312.1552     -5675.9282     -5415.5778      2739.3166      44719.281      106.14094    
     24050   1312.0574     -5675.6104     -5415.2794      3117.4143      44724.924      106.24674    
     24060   1333.7763     -5679.8782     -5415.2379      3496.7608      44730.616      106.36299    
     24070   1330.3628     -5679.4226     -5415.4596      3974.6622      44736.666      106.50383    
     24080   1306.4151     -5675.1504     -5415.9389      4254.4458      44743.063      106.67761    
     24090   1310.778      -5676.6973     -5416.6201      3988.2889      44749.597      106.86067    
     24100   1315.7372     -5678.5591     -5417.498       3617.4876      44756.251      107.01911    
     24110   1300.6824     -5676.6548     -5418.5808      3743.5071      44763.134      107.15528    
     24120   1303.515      -5678.4441     -5419.808       3518.2114      44770.4        107.27425    
     24130   1300.3482     -5679.1666     -5421.1589      3193.1209      44778.243      107.35174    
     24140   1283.7965     -5677.2799     -5422.5563      2986.3918      44786.771      107.38278    
     24150   1268.3973     -5675.5437     -5423.8755      2905.8644      44796.027      107.39499    
     24160   1255.5752     -5674.1862     -5425.0621      2930.1356      44805.833      107.43185    
     24170   1258.7129     -5675.8147     -5426.068       2671.9794      44816.033      107.51559    
     24180   1255.0761     -5675.9484     -5426.9233      2354.4992      44826.507      107.63369    
     24190   1248.562      -5675.3672     -5427.6346      2163.7516      44837.199      107.77791    
     24200   1250.4032     -5676.3241     -5428.2262      2107.0021      44847.703      107.93427    
     24210   1228.446      -5672.4448     -5428.7035      2325.4537      44857.651      108.08207    
     24220   1233.6197     -5673.8423     -5429.0745      2132.1644      44866.949      108.20057    
     24230   1237.5229     -5674.8948     -5429.3525      1997.1236      44875.402      108.29545    
     24240   1226.8534     -5672.9963     -5429.5711      2416.371       44882.895      108.3706     
     24250   1220.5225     -5671.8871     -5429.7179      3019.8367      44889.517      108.45787    
     24260   1216.0511     -5671.0415     -5429.7595      3627.8048      44895.466      108.58296    
     24270   1232.5204     -5674.2686     -5429.7189      3555.5068      44901.12       108.7022     
     24280   1267.0315     -5681.05       -5429.6528      2869.2356      44906.831      108.80705    
     24290   1284.4186     -5684.5056     -5429.6586      2219.7683      44912.648      108.93851    
     24300   1281.6486     -5684.1204     -5429.8229      2233.1618      44918.507      109.11897    
     24310   1241.9876     -5676.5229     -5430.0948      2723.205       44924.353      109.33513    
     24320   1219.0145     -5672.2456     -5430.3757      2886.3336      44930.196      109.55201    
     24330   1222.4821     -5673.145      -5430.5871      2798.3711      44936.096      109.72832    
     24340   1233.3991     -5675.4756     -5430.7515      2547.5674      44941.81       109.85659    
     24350   1239.7908     -5676.8914     -5430.8991      2160.8767      44946.929      109.9514     
     24360   1248.8738     -5678.8403     -5431.0459      2010.0892      44951.073      110.0337     
     24370   1259.8724     -5681.2218     -5431.2451      2092.7504      44953.947      110.12858    
     24380   1253.6496     -5680.2682     -5431.5262      2316.3163      44955.529      110.26044    
     24390   1267.3004     -5683.374      -5431.9235      2095.6048      44955.943      110.4169     
     24400   1258.3547     -5682.1091     -5432.4335      2174.8671      44954.996      110.53236    
     24410   1254.9152     -5682.0615     -5433.0684      2061.4771      44952.711      110.56521    
     24420   1257.843      -5683.4008     -5433.8267      1724.578       44949.117      110.52639    
     24430   1260.6464     -5684.874      -5434.7437      1654.4895      44944.125      110.46785    
     24440   1243.943      -5682.6072     -5435.7911      2228.9759      44937.744      110.45379    
     24450   1216.1245     -5678.1969     -5436.9004      3032.2638      44930.285      110.51977    
     24460   1216.0056     -5679.2413     -5437.9684      3181.5277      44922.289      110.66742    
     24470   1228.403      -5682.7438     -5439.011       2497.7728      44914.056      110.82871    
     24480   1216.4076     -5681.3796     -5440.0269      2038.8439      44905.233      110.94725    
     24490   1205.0747     -5680.0745     -5440.9704      1915.4763      44895.432      111.01216    
     24500   1199.233      -5679.7247     -5441.7797      1864.4159      44884.476      111.0061     
     24510   1211.7104     -5682.9031     -5442.4824      1537.1285      44872.287      110.9549     
     24520   1198.1537     -5680.801      -5443.0702      1708.8748      44858.664      110.89716    
     24530   1181.8512     -5678.0197     -5443.5235      2167.1441      44843.65       110.82271    
     24540   1184.4161     -5678.8103     -5443.8052      2504.2119      44827.413      110.70774    
     24550   1211.6536     -5684.3606     -5443.9512      2467.2652      44810.365      110.58429    
     24560   1211.0074     -5684.2892     -5444.008       2566.2743      44793.048      110.53315    
     24570   1187.787      -5679.6786     -5444.0046      2978.9855      44775.741      110.57766    
     24580   1201.1083     -5682.2205     -5443.9034      3212.2081      44758.356      110.69398    
     24590   1187.3389     -5679.2754     -5443.6904      3814.4879      44740.816      110.83424    
     24600   1205.0094     -5682.4852     -5443.3941      3593.9187      44723.246      110.94889    
     24610   1221.9103     -5685.4922     -5443.0477      3035.5076      44705.354      111.01961    
     24620   1229.1432     -5686.5945     -5442.7149      2672.9243      44686.499      111.04488    
     24630   1210.6867     -5682.6262     -5442.4086      2553.015       44666.336      111.0138     
     24640   1201.9762     -5680.5934     -5442.1041      2591.0546      44644.966      110.94335    
     24650   1200.8118     -5679.9866     -5441.7283      2903.4841      44622.551      110.86399    
     24660   1239.5613     -5687.2961     -5441.3494      2681.0506      44599.431      110.77103    
     24670   1219.4741     -5682.9441     -5440.983       3040.6733      44575.947      110.66844    
     24680   1206.6725     -5680.0807     -5440.6596      3339.8192      44552.444      110.57735    
     24690   1229.5651     -5684.2734     -5440.3101      3155.3398      44529.223      110.54948    
     24700   1235.7368     -5685.2014     -5440.0135      3149.9551      44506.279      110.57986    
     24710   1212.0918     -5680.3041     -5439.8077      3278.3112      44483.182      110.61119    
     24720   1202.798      -5678.2749     -5439.6225      3275.1947      44459.528      110.62059    
     24730   1200.8634     -5677.7073     -5439.4388      3209.2478      44434.933      110.5988     
     24740   1194.0896     -5676.1428     -5439.2183      3551.348       44409.22       110.52921    
     24750   1195.0896     -5676.0857     -5438.9628      3976.1465      44382.737      110.43225    
     24760   1212.007      -5679.1615     -5438.682       4066.3689      44356.103      110.36038    
     24770   1234.5101     -5683.385      -5438.4405      3843.5962      44329.685      110.34196    
     24780   1254.4811     -5687.2555     -5438.3485      3712.3999      44303.238      110.35611    
     24790   1251.852      -5686.7769     -5438.3915      3789.941       44276.614      110.37586    
     24800   1256.5602     -5687.8726     -5438.553       3850.8751      44250.046      110.39764    
     24810   1254.4368     -5687.7261     -5438.8278      4316.5539      44223.677      110.40485    
     24820   1231.861      -5683.5707     -5439.1518      4895.4556      44197.843      110.35063    
     24830   1218.4786     -5681.2383     -5439.4747      4973.8435      44173.208      110.26454    
     24840   1222.0005     -5682.2252     -5439.7628      4792.6679      44150.166      110.20186    
     24850   1239.3862     -5685.9829     -5440.0709      4179.7232      44128.49       110.18088    
     24860   1269.6757     -5692.4011     -5440.4793      3582.1647      44107.471      110.19082    
     24870   1292.2671     -5697.501      -5441.0967      3236.0649      44086.541      110.21202    
     24880   1262.5223     -5692.4169     -5441.9144      3592.5225      44065.615      110.23656    
     24890   1246.9554     -5690.2764     -5442.8626      3624.1232      44045.168      110.27172    
     24900   1228.0558     -5687.4998     -5443.8359      3525.828       44025.467      110.30488    
     24910   1218.0957     -5686.5062     -5444.8186      3268.7325      44006.568      110.30233    
     24920   1204.8665     -5684.7949     -5445.7321      3072.7601      43988.664      110.2999     
     24930   1238.8733     -5692.4385     -5446.6283      2265.4816      43971.514      110.34533    
     24940   1237.7301     -5693.1365     -5447.5531      2141.6148      43954.553      110.42508    
     24950   1216.0345     -5689.7878     -5448.5092      2821.0643      43937.624      110.51554    
     24960   1224.0429     -5692.3019     -5449.4342      3339.0838      43920.822      110.63389    
     24970   1221.3209     -5692.6611     -5450.3336      3950.4869      43904.507      110.77205    
     24980   1214.1553     -5692.125      -5451.2192      4349.3728      43889.183      110.88244    
     24990   1198.3638     -5689.83       -5452.0574      4609.8197      43874.962      110.92985    
     25000   1197.2981     -5690.3672     -5452.8061      4739.1045      43861.672      110.92574    
     25010   1214.8333     -5694.5552     -5453.5149      4692.1366      43849.149      110.91127    
     25020   1210.4817     -5694.394      -5454.2171      4688.6213      43837.185      110.90872    
     25030   1196.0583     -5692.2169     -5454.9018      4719.0233      43825.677      110.94024    
     25040   1189.7907     -5691.5988     -5455.5272      4866.1845      43814.529      110.98147    
     25050   1184.1868     -5691.0311     -5456.0715      5110.9938      43803.665      111.00382    
     25060   1188.6846     -5692.4117     -5456.5597      5174.1667      43793.283      111.02949    
     25070   1179.9859     -5691.1047     -5456.9786      5287.234       43783.81       111.08758    
     25080   1160.9362     -5687.666      -5457.3196      5255.1676      43775.445      111.16385    
     25090   1158.6585     -5687.4331     -5457.5387      5042.7657      43768.212      111.22893    
     25100   1180.74       -5691.9316     -5457.6559      4534.8637      43762.128      111.25899    
     25110   1185.7983     -5692.9926     -5457.7132      4457.9329      43757.077      111.24903    
     25120   1194.0997     -5694.6724     -5457.7459      4467.5318      43753.193      111.24987    
     25130   1197.8693     -5695.4817     -5457.8073      4601.133       43750.716      111.28162    
     25140   1171.6209     -5690.2947     -5457.8283      4966.6855      43749.772      111.31455    
     25150   1187.1973     -5693.3752     -5457.8183      4439.1306      43750.207      111.33251    
     25160   1213.0676     -5698.5117     -5457.8217      3844.5882      43751.42       111.32799    
     25170   1199.1923     -5695.8076     -5457.8707      3866.6098      43753.01       111.33595    
     25180   1189.4728     -5693.9795     -5457.971       4184.8237      43755.105      111.35964    
     25190   1201.9489     -5696.5865     -5458.1027      4160.0021      43757.819      111.38884    
     25200   1188.5643     -5694.0798     -5458.2516      4127.505       43760.906      111.43829    
     25210   1187.7063     -5694.0901     -5458.4322      3992.0718      43764.297      111.54218    
     25220   1193.7742     -5695.5132     -5458.6513      3940.5632      43768.023      111.70926    
     25230   1169.9511     -5691.015      -5458.88        4460.855       43772.09       111.91152    
     25240   1178.2494     -5692.9054     -5459.1238      4636.9211      43776.773      112.13532    
     25250   1197.7777     -5697.0355     -5459.3793      4663.6956      43782.415      112.36316    
     25260   1202.0779     -5698.2191     -5459.7096      4662.3194      43789.226      112.5523     
     25270   1196.0111     -5697.4695     -5460.1638      4663.2144      43796.911      112.68262    
     25280   1189.0643     -5696.6536     -5460.7262      4677.2908      43805.14       112.75372    
     25290   1204.032      -5700.36       -5461.4628      4173.382       43813.826      112.78325    
     25300   1191.4783     -5698.7388     -5462.3324      3910.7945      43822.579      112.82557    
     25310   1198.3711     -5701.1543     -5463.3803      3618.8695      43831.324      112.90813    
     25320   1210.9461     -5704.8765     -5464.6074      3400.2218      43840.076      113.02862    
     25330   1199.1861     -5703.9371     -5466.0014      3701.5042      43848.7        113.18949    
     25340   1178.6627     -5701.3433     -5467.4797      4267.5383      43857.096      113.40666    
     25350   1150.1675     -5697.0732     -5468.8635      4709.6627      43865.523      113.65659    
     25360   1131.286      -5694.5028     -5470.0395      4621.3631      43874.356      113.88497    
     25370   1137.622      -5696.6788     -5470.9583      4000.5601      43883.597      114.07573    
     25380   1130.0942     -5695.8611     -5471.6342      3560.0406      43893.155      114.22417    
     25390   1133.6465     -5697.0231     -5472.0914      3270.9406      43903.159      114.29966    
     25400   1149.3995     -5700.4424     -5472.3851      2928.957       43913.345      114.31746    
     25410   1137.4067     -5698.2246     -5472.5468      3114.2371      43923.17       114.33479    
     25420   1127.3372     -5696.2603     -5472.5804      3287.1564      43932.806      114.39438    
     25430   1127.8889     -5696.2522     -5472.4629      3280.2639      43942.516      114.48236    
     25440   1151.5625     -5700.6976     -5472.2111      2655.0301      43952.354      114.57801    
     25450   1150.8007     -5700.2205     -5471.8851      2243.4245      43962.112      114.71735    
     25460   1137.7498     -5697.2402     -5471.4944      2360.7964      43971.586      114.89538    
     25470   1142.7267     -5697.7544     -5471.021       2378.4778      43980.916      115.08408    
     25480   1136.6105     -5695.9673     -5470.4475      2721.1891      43990.374      115.24949    
     25490   1156.2899     -5699.2273     -5469.8028      2520.0259      44000.133      115.35709    
     25500   1156.5486     -5698.5864     -5469.1106      2393.4831      44009.841      115.40561    
     25510   1166.5351     -5699.8586     -5468.4014      2360.5748      44018.965      115.42914    
     25520   1168.1354     -5699.4701     -5467.6953      2571.013       44027.134      115.45441    
     25530   1159.3521     -5697.0575     -5467.0254      3045.7717      44034.368      115.4852     
     25540   1154.5676     -5695.4443     -5466.3616      3423.019       44040.885      115.5368     
     25550   1160.7475     -5696.0094     -5465.7005      3432.5339      44047.091      115.63123    
     25560   1173.9613     -5698.0034     -5465.0727      3344.9178      44053.255      115.77123    
     25570   1167.4644     -5696.1335     -5464.4919      3498.1384      44059.381      115.89575    
     25580   1158.2244     -5693.7803     -5463.972       3719.6253      44065.555      115.97166    
     25590   1166.6772     -5694.9456     -5463.4601      3688.9987      44071.979      116.01445    
     25600   1201.5499     -5701.4326     -5463.0279      3692.787       44078.69       116.04754    
     25610   1195.1008     -5699.8601     -5462.735       4288.9582      44085.652      116.09288    
     25620   1165.1493     -5693.7268     -5462.5445      5020.296       44092.915      116.16359    
     25630   1169.7393     -5694.5021     -5462.4091      4859.223       44100.828      116.27308    
     25640   1167.312      -5693.9026     -5462.2912      4471.2685      44109.484      116.4055     
     25650   1170.4023     -5694.4387     -5462.2141      4219.5901      44118.618      116.51414    
     25660   1175.7212     -5695.4535     -5462.1736      3980.4494      44127.867      116.56753    
     25670   1181.3876     -5696.5778     -5462.1735      3699.1599      44136.865      116.58001    
     25680   1181.7414     -5696.7305     -5462.256       3124.3847      44145.411      116.58061    
     25690   1158.3378     -5692.2118     -5462.381       2739.9602      44153.227      116.60648    
     25700   1146.6072     -5690.009      -5462.5057      2498.1535      44160.205      116.67789    
     25710   1151.585      -5691.0883     -5462.5973      2634.9961      44166.389      116.7604     
     25720   1141.7596     -5689.17       -5462.6286      3241.1944      44171.776      116.81761    
     25730   1177.15       -5696.2335     -5462.6701      3295.6817      44176.616      116.84415    
     25740   1192.4744     -5699.3606     -5462.7566      3289.0824      44181.036      116.87958    
     25750   1186.4278     -5698.359      -5462.9547      3569.0711      44185.345      116.95068    
     25760   1167.5253     -5694.895      -5463.2413      3888.6002      44190.301      117.07809    
     25770   1174.2953     -5696.5708     -5463.5738      4033.9105      44196.36       117.24109    
     25780   1172.4408     -5696.5763     -5463.9472      4189.7709      44203.552      117.3974     
     25790   1149.9942     -5692.5187     -5464.3434      4296.4964      44211.864      117.5408     
     25800   1157.2085     -5694.3234     -5464.7166      3819.3281      44221.103      117.7191     
     25810   1150.4633     -5693.3035     -5465.0351      3401.5389      44230.871      117.9567     
     25820   1132.3114     -5689.9937     -5465.3268      3508.4531      44241.007      118.21991    
     25830   1137.1078     -5691.1505     -5465.532       3509.5806      44251.656      118.5009     
     25840   1153.2956     -5694.5112     -5465.6809      3177.5824      44262.721      118.79053    
     25850   1140.452      -5692.0778     -5465.7957      3070.5708      44273.799      119.05739    
     25860   1148.549      -5693.7832     -5465.8946      2638.2206      44284.667      119.28221    
     25870   1148.3531     -5693.8103     -5465.9606      2375.1981      44295.052      119.46861    
     25880   1123.1065     -5688.8448     -5466.0044      2795.8185      44304.662      119.63175    
     25890   1111.0429     -5686.4235     -5465.9766      3115.0081      44313.658      119.7667     
     25900   1117.5974     -5687.592      -5465.8447      3010.3169      44322.239      119.87852    
     25910   1141.2428     -5692.1049     -5465.6659      2495.2923      44330.373      120.00405    
     25920   1142.2048     -5692.0979     -5465.4681      2161.8122      44337.981      120.14045    
     25930   1149.7243     -5693.4258     -5465.304       1934.5307      44344.751      120.28427    
     25940   1151.32       -5693.6235     -5465.1852      2073.0903      44350.348      120.43984    
     25950   1135.3934     -5690.3577     -5465.0794      2342.5241      44354.741      120.60302    
     25960   1137.0439     -5690.5968     -5464.991       2165.7125      44358.056      120.7841     
     25970   1134.1872     -5689.9347     -5464.8957      2262.9614      44360.418      120.98185    
     25980   1126.4374     -5688.2761     -5464.7748      2898.7393      44361.926      121.18853    
     25990   1131.0391     -5689.0316     -5464.6173      3549.5128      44362.857      121.39749    
     26000   1144.2257     -5691.479      -5464.4482      3632.4456      44363.694      121.5985     
     26010   1167.3232     -5695.9318     -5464.3181      3097.5054      44364.694      121.79902    
     26020   1176.2545     -5697.6562     -5464.2705      2437.1858      44365.697      122.02226    
     26030   1173.9465     -5697.293      -5464.3652      2076.1282      44366.222      122.27816    
     26040   1161.5513     -5695.025      -5464.5566      2258.8442      44366.017      122.53209    
     26050   1170.4773     -5697.0941     -5464.8547      2672.0437      44365.195      122.75811    
     26060   1158.3342     -5695.0781     -5465.248       2987.5556      44363.786      122.95844    
     26070   1141.8844     -5692.2616     -5465.6954      2751.5907      44361.927      123.14759    
     26080   1160.1216     -5696.3694     -5466.1846      2039.7631      44359.851      123.33182    
     26090   1147.813      -5694.4768     -5466.7343      1746.5876      44357.399      123.50554    
     26100   1142.2512     -5693.9747     -5467.3357      1571.5509      44354.243      123.65291    
     26110   1158.1948     -5697.7786     -5467.9761      1420.6618      44350.081      123.79576    
     26120   1182.3805     -5703.33       -5468.7287      1340.354       44344.673      123.96547    
     26130   1163.0811     -5700.3864     -5469.6144      1933.0122      44338.262      124.14504    
     26140   1147.5894     -5698.2653     -5470.5671      2452.8039      44331.387      124.29377    
     26150   1144.2136     -5698.5575     -5471.5291      2648.6536      44324.316      124.41142    
     26160   1120.5521     -5694.7742     -5472.4406      2676.7086      44316.873      124.5303     
     26170   1115.8512     -5694.6504     -5473.2495      2522.6569      44308.65       124.6397     
     26180   1116.845      -5695.5278     -5473.9298      2164.7638      44299.419      124.7221     
     26190   1113.4196     -5695.3909     -5474.4725      2033.0009      44289.184      124.7724     
     26200   1119.8356     -5697.0985     -5474.9071      2124.4487      44277.933      124.79646    
     26210   1119.6297     -5697.3977     -5475.2471      2293.7359      44265.764      124.81108    
     26220   1144.6896     -5702.6689     -5475.5461      2166.1789      44252.836      124.82743    
     26230   1142.2757     -5702.4818     -5475.8379      2313.5105      44239.281      124.83623    
     26240   1143.879      -5703.1077     -5476.1457      2307.421       44225.242      124.82623    
     26250   1139.5126     -5702.5635     -5476.4679      2332.1428      44210.789      124.80278    
     26260   1114.0047     -5697.7991     -5476.7646      2706.67        44196.218      124.77807    
     26270   1130.1737     -5701.2821     -5477.0394      2603.9428      44181.708      124.78435    
     26280   1119.6965     -5699.4229     -5477.259       2937.5955      44167.052      124.83491    
     26290   1115.3331     -5698.7538     -5477.4557      3233.6803      44152.295      124.92153    
     26300   1116.6724     -5699.1617     -5477.598       3448.4238      44137.742      125.01606    
     26310   1109.2233     -5697.8002     -5477.7144      3521.4303      44123.672      125.07551    
     26320   1083.84       -5692.8083     -5477.759       3487.3485      44109.94       125.11572    
     26330   1100.5608     -5696.0881     -5477.7211      2924.5113      44096.303      125.17275    
     26340   1099.9334     -5695.8516     -5477.609       2771.5752      44082.422      125.25879    
     26350   1094.9596     -5694.6984     -5477.4427      2841.3793      44068.217      125.36601    
     26360   1120.1698     -5699.4792     -5477.2215      2593.8034      44053.759      125.49573    
     26370   1126.2468     -5700.4482     -5476.9848      2835.8181      44039.068      125.64477    
     26380   1126.3635     -5700.2684     -5476.7818      3099.6838      44024.474      125.79383    
     26390   1137.6263     -5702.3397     -5476.6184      3062.4574      44010.19       125.89896    
     26400   1138.043      -5702.3254     -5476.5214      3137.0257      43996.107      125.92723    
     26410   1122.1183     -5699.1394     -5476.4951      3682.6069      43982.131      125.89109    
     26420   1135.1316     -5701.7534     -5476.527       3817.1522      43968.492      125.82595    
     26430   1119.6505     -5698.7457     -5476.591       4176.8345      43955.389      125.76712    
     26440   1101.3496     -5695.1865     -5476.663       4531.8837      43943.162      125.7551     
     26450   1104.9728     -5695.9581     -5476.7157      4619.4939      43931.938      125.80827    
     26460   1134.0556     -5701.7802     -5476.7673      4188.4361      43921.594      125.8928     
     26470   1139.7763     -5703.0154     -5476.8674      3940.7782      43912.006      125.98245    
     26480   1131.5283     -5701.6132     -5477.1017      3580.3836      43903.112      126.06893    
     26490   1125.8089     -5700.817      -5477.4404      3625.3751      43894.496      126.13734    
     26500   1139.5159     -5703.9899     -5477.8936      3781.9296      43885.897      126.17942    
     26510   1155.184      -5707.723      -5478.518       4001.5066      43877.391      126.19228    
     26520   1152.7907     -5708.1544     -5479.4242      4271.1989      43869.222      126.1874     
     26530   1147.6101     -5708.3408     -5480.6385      4206.9353      43861.631      126.18862    
     26540   1156.2647     -5711.6078     -5482.1883      3650.041       43854.628      126.2087     
     26550   1131.4316     -5708.462      -5483.9698      3335.1063      43847.817      126.23331    
     26560   1113.1076     -5706.6343     -5485.7778      3005.4525      43840.96       126.26722    
     26570   1110.7597     -5707.7955     -5487.4049      2445.0487      43834.051      126.32176    
     26580   1129.3499     -5712.8862     -5488.807       1623.2979      43826.758      126.36834    
     26590   1113.4677     -5710.8831     -5489.9551      1746.567       43818.687      126.38956    
     26600   1093.059      -5707.7197     -5490.8412      2192.7912      43809.997      126.37577    
     26610   1088.5259     -5707.4604     -5491.4813      2501.5196      43800.794      126.32755    
     26620   1109.087      -5712.0315     -5491.9727      2608.9452      43791.14       126.29588    
     26630   1119.7802     -5714.5741     -5492.3937      2845.9033      43781.179      126.31708    
     26640   1124.4181     -5715.9031     -5492.8024      3237.6954      43771.097      126.37659    
     26650   1140.3343     -5719.5289     -5493.2703      3146.5924      43761.178      126.46968    
     26660   1133.7188     -5718.7665     -5493.8204      3076.3236      43751.446      126.60438    
     26670   1100.7114     -5712.8167     -5494.4197      3168.7602      43741.704      126.73604    
     26680   1089.6082     -5711.194      -5495.0001      2776.5519      43731.999      126.81859    
     26690   1086.1299     -5711.0164     -5495.5126      2552.7334      43722.344      126.87254    
     26700   1069.4048     -5708.1354     -5495.9501      2788.3094      43712.741      126.92425    
     26710   1074.439      -5709.4805     -5496.2964      2838.0463      43703.428      126.96649    
     26720   1082.9793     -5711.4547     -5496.5761      2600.0704      43694.433      127.002      
     26730   1069.0052     -5708.8865     -5496.7805      2465.8002      43685.337      127.0462     
     26740   1072.3378     -5709.6804     -5496.9132      2174.3335      43675.747      127.11419    
     26750   1068.3002     -5708.9385     -5496.9724      2238.7205      43665.274      127.19195    
     26760   1058.9285     -5707.0298     -5496.9232      2778.8712      43653.878      127.25385    
     26770   1081.2585     -5711.3101     -5496.7729      3335.1372      43642.104      127.29036    
     26780   1087.0194     -5712.2314     -5496.5512      3909.923       43630.479      127.29725    
     26790   1098.8145     -5714.3357     -5496.3152      4098.0009      43619.254      127.2677     
     26800   1108.7231     -5716.0792     -5496.0927      4002.1226      43608.396      127.21231    
     26810   1088.0872     -5711.7708     -5495.8787      4016.5708      43597.702      127.17081    
     26820   1096.9395     -5713.3323     -5495.6838      3617.0487      43587.138      127.16471    
     26830   1104.966      -5714.7312     -5495.4901      3382.7644      43576.606      127.18146    
     26840   1109.3131     -5715.4457     -5495.3421      3207.5124      43565.876      127.19189    
     26850   1122.9045     -5718.0352     -5495.2348      3093.799       43554.647      127.20066    
     26860   1136.4265     -5720.7598     -5495.2765      2959.1452      43542.691      127.22708    
     26870   1115.583      -5716.8179     -5495.4702      3193.4461      43530.005      127.26327    
     26880   1102.9762     -5714.6338     -5495.7875      3115.3459      43516.846      127.28624    
     26890   1093.1367     -5713.0836     -5496.1896      2859.9571      43503.059      127.28339    
     26900   1081.0821     -5711.1412     -5496.6391      2788.3663      43488.403      127.26671    
     26910   1074.9158     -5710.3887     -5497.11        2788.5626      43472.946      127.25534    
     26920   1062.8489     -5708.4485     -5497.564       3070.2985      43456.861      127.24659    
     26930   1064.579      -5709.204      -5497.9763      3327.1089      43440.443      127.24709    
     26940   1071.7143     -5710.9937     -5498.3502      3788.3182      43423.959      127.27418    
     26950   1071.4435     -5711.2903     -5498.7006      4360.3712      43407.779      127.30017    
     26960   1084.0008     -5714.1332     -5499.0519      4463.0208      43392.418      127.29394    
     26970   1073.3819     -5712.3878     -5499.4135      4466.7379      43378.27       127.25661    
     26980   1087.6907     -5715.6302     -5499.8168      4169.1881      43365.547      127.18753    
     26990   1067.9341     -5712.1447     -5500.2512      4330.9157      43354.199      127.10448    
     27000   1049.2752     -5708.8806     -5500.6894      4447.4544      43344.288      127.03102    
     27010   1063.1182     -5712.0084     -5501.0705      4163.419       43335.924      126.96309    
     27020   1049.9637     -5709.7537     -5501.4258      4461.7863      43328.942      126.89318    
     27030   1034.4996     -5706.9606     -5501.701       4757.6235      43323.347      126.84747    
     27040   1068.9361     -5713.9984     -5501.9062      4442.5064      43319.257      126.85655    
     27050   1074.5807     -5715.2878     -5502.0756      4421.3239      43316.404      126.91714    
     27060   1077.9661     -5716.1602     -5502.2762      4326.1382      43314.747      126.98376    
     27070   1079.8264     -5716.7604     -5502.5074      4074.5282      43314.39       127.041      
     27080   1081.2466     -5717.317      -5502.7822      3902.6099      43315.082      127.10497    
     27090   1088.2826     -5719.054      -5503.1231      3756.1429      43316.449      127.20123    
     27100   1104.9524     -5722.8069     -5503.5685      3518.8341      43318.17       127.34866    
     27110   1109.9394     -5724.4211     -5504.1933      3356.7108      43320.006      127.51296    
     27120   1112.1634     -5725.7062     -5505.037       3134.0266      43321.911      127.65287    
     27130   1110.8262     -5726.5067     -5506.1029      2983.0774      43323.771      127.76882    
     27140   1098.9509     -5725.4216     -5507.374       3159.0568      43325.603      127.87439    
     27150   1072.3537     -5721.4955     -5508.7252      3435.8191      43327.606      127.96873    
     27160   1049.0904     -5718.1545     -5510           3477.9474      43329.81       128.03635    
     27170   1049.302      -5719.3213     -5511.1247      3162.1225      43332.02       128.10373    
     27180   1047.575      -5719.8995     -5512.0456      2815.9958      43334.056      128.18798    
     27190   1052.3262     -5721.6116     -5512.815       2627.7602      43335.747      128.28459    
     27200   1044.2381     -5720.6089     -5513.4171      2554.5353      43336.91       128.40659    
     27210   1030.6654     -5718.371      -5513.8722      2451.1306      43337.402      128.55212    
     27220   1036.671      -5719.8593     -5514.1689      2223.5597      43337.077      128.72655    
     27230   1052.1123     -5723.0977     -5514.3435      2171.6816      43335.944      128.93772    
     27240   1055.6076     -5723.9092     -5514.4615      2547.889       43334.129      129.1396     
     27250   1038.5365     -5720.5752     -5514.5147      3227.5646      43331.791      129.27755    
     27260   1053.7384     -5723.599      -5514.5222      3099.3443      43329.18       129.32509    
     27270   1029.7955     -5718.7808     -5514.4546      3168.1122      43326.347      129.30945    
     27280   1028.4688     -5718.3776     -5514.3146      3158.0672      43323.363      129.28949    
     27290   1022.3663     -5716.8926     -5514.0405      3431.4208      43320.474      129.28645    
     27300   1042.8579     -5720.5953     -5513.6774      3545.9299      43317.913      129.2894     
     27310   1042.6112     -5720.0819     -5513.2129      3835.3437      43315.654      129.30085    
     27320   1041.968      -5719.4458     -5512.7044      3945.7825      43313.765      129.31518    
     27330   1057.3674     -5721.9397     -5512.1429      3670.7479      43312.163      129.34951    
     27340   1073.9507     -5724.6522     -5511.565       3261.8238      43310.648      129.41485    
     27350   1087.6943     -5726.8612     -5511.0471      3214.1922      43309.141      129.50388    
     27360   1080.9374     -5725.0909     -5510.6175      3764.2377      43307.648      129.60493    
     27370   1082.7385     -5725.1111     -5510.2803      4237.9966      43306.428      129.71129    
     27380   1094.2208     -5727.1377     -5510.0286      4488.3124      43305.857      129.82966    
     27390   1096.0793     -5727.3849     -5509.9071      4692.4878      43306.27       129.96788    
     27400   1083.0572     -5724.8262     -5509.9321      4847.1812      43307.921      130.10265    
     27410   1036.6905     -5715.7017     -5510.0074      5101.5785      43311.076      130.19597    
     27420   1044.017      -5717.2273     -5510.0794      4521.2683      43315.852      130.24436    
     27430   1058.6486     -5720.146      -5510.095       3784.7392      43321.727      130.27407    
     27440   1071.1856     -5722.6747     -5510.1361      3327.7867      43328.107      130.31063    
     27450   1060.171      -5720.5785     -5510.2254      3767.7102      43334.715      130.36572    
     27460   1038.1834     -5716.3304     -5510.34        4345.4588      43341.647      130.45472    
     27470   1047.4691     -5718.2728     -5510.44        4246.1449      43349.14       130.56325    
     27480   1057.4837     -5720.3489     -5510.529       3757.6846      43357.409      130.64578    
     27490   1088.2421     -5726.6195     -5510.6967      3062.1827      43366.327      130.67268    
     27500   1082.5715     -5725.7963     -5510.9986      2782.4024      43375.437      130.66001    
     27510   1069.8281     -5723.766      -5511.4968      2825.0865      43384.434      130.65879    
     27520   1072.3366     -5724.9917     -5512.2247      2945.9167      43393.338      130.71133    
     27530   1046.3486     -5720.7828     -5513.1723      3524.739       43402.284      130.82767    
     27540   1036.6671     -5719.9633     -5514.2736      3816.1281      43411.542      130.99241    
     27550   1041.5772     -5722.1583     -5515.4945      4001.4124      43421.233      131.20093    
     27560   1037.8329     -5722.6948     -5516.7739      4069.197       43431.445      131.43923    
     27570   1045.537      -5725.5198     -5518.0703      3658.748       43442.237      131.64909    
     27580   1042.2585     -5726.1145     -5519.3155      3272.4759      43453.54       131.78925    
     27590   1039.0133     -5726.6133     -5520.4582      3099.9349      43465.21       131.86429    
     27600   1027.5811     -5725.3293     -5521.4425      3064.8207      43477.094      131.90778    
[...]
     48200   889.78139     -5714.391      -5537.8456     -365.34117      48911.095      299.90263    
     48210   874.73811     -5711.9293     -5538.3688     -78.02268       48921.888      300.02705    
     48220   892.18781     -5715.8492     -5538.8264     -242.0806       48932.119      300.17398    
     48230   916.21465     -5721.0707     -5539.2806     -670.7066       48941.271      300.32898    
     48240   908.4235      -5720.0332     -5539.789      -883.35796      48947.906      300.47303    
     48250   892.16561     -5717.3533     -5540.3348     -854.34251      48951.241      300.56343    
     48260   882.40109     -5715.9364     -5540.8554     -845.82738      48951.352      300.58396    
     48270   884.12656     -5716.7472     -5541.3238     -967.17644      48948.284      300.56394    
     48280   889.43906     -5718.2194     -5541.7419     -1176.5849      48941.626      300.52206    
     48290   892.38527     -5719.1986     -5542.1366     -1207.3346      48930.734      300.45872    
     48300   890.72474     -5719.2393     -5542.5067     -1054.8582      48915.547      300.40031    
     48310   893.71537     -5720.1914     -5542.8655     -799.27315      48896.702      300.36411    
     48320   891.21282     -5720.0369     -5543.2075     -415.00019      48875.144      300.31649    
     48330   889.65839     -5720.0457     -5543.5247     -65.035479      48852.263      300.23275    
     48340   888.60618     -5720.1328     -5543.8206      166.43318      48829.386      300.11913    
     48350   885.23171     -5719.7194     -5544.0767      278.12642      48807.417      299.98495    
     48360   886.8794      -5720.2767     -5544.3072      202.58691      48786.692      299.85644    
     48370   877.49574     -5718.5951     -5544.4874      395.29642      48767.112      299.75907    
     48380   880.15894     -5719.2393     -5544.6031      490.14582      48749.225      299.71105    
     48390   884.81815     -5720.2123     -5544.6517      576.3986       48733.426      299.71602    
     48400   890.64376     -5721.3563     -5544.6398      566.68413      48719.959      299.74943    
     48410   897.62272     -5722.689      -5544.5878      438.9835       48708.744      299.78015    
     48420   900.40819     -5723.1775     -5544.5236      414.0903       48699.33       299.79331    
     48430   883.85663     -5719.8102     -5544.4404      679.07687      48691.671      299.79632    
     48440   863.55715     -5715.6149     -5544.2728      829.61305      48686.605      299.79876    
     48450   859.0274      -5714.3782     -5543.9348      666.05851      48684.596      299.82307    
     48460   869.20218     -5715.828      -5543.3658      390.51471      48685.043      299.88401    
     48470   882.30993     -5717.6199     -5542.5569      292.78126      48687.014      300.00424    
     48480   894.9826      -5719.1239     -5541.5465      350.51651      48690.065      300.2004     
     48490   885.76849     -5716.1433     -5540.3942      674.66381      48694.472      300.44968    
     48500   888.03475     -5715.3494     -5539.1506      718.22264      48701.192      300.71615    
     48510   892.51882     -5714.9385     -5537.85        517.17034      48710.383      300.96913    
     48520   889.88307     -5713.1521     -5536.5866      413.05367      48721.411      301.18642    
     48530   893.98329     -5712.7749     -5535.3958      236.05571      48733.813      301.38228    
     48540   908.28802     -5714.5364     -5534.319      -28.771148      48746.915      301.56869    
     48550   920.20119     -5715.9792     -5533.3982     -268.75633      48759.782      301.75885    
     48560   928.57336     -5716.9277     -5532.6855     -437.28193      48771.517      301.95889    
     48570   915.46452     -5713.8029     -5532.1616     -237.68976      48781.654      302.17308    
     48580   913.00232     -5712.9327     -5531.78       -130.73956      48790.75       302.38997    
     48590   924.23076     -5714.8722     -5531.4916     -176.01689      48799.187      302.59159    
     48600   927.57998     -5715.3593     -5531.3141     -77.457009      48806.95       302.77746    
     48610   929.93943     -5715.7804     -5531.2671     -124.98817      48814.258      302.94589    
     48620   928.44772     -5715.5526     -5531.3353     -365.75212      48820.961      303.08724    
     48630   921.37341     -5714.3247     -5531.511      -680.77444      48826.209      303.18791    
     48640   910.31076     -5712.3787     -5531.76       -1013.4308      48828.83       303.24887    
     48650   899.60806     -5710.541      -5532.0459     -1295.5072      48827.71       303.28135    
     48660   893.42709     -5709.5973     -5532.3286     -1543.4991      48821.802      303.29331    
     48670   897.73213     -5710.7249     -5532.6019     -1900.8186      48810.13       303.26988    
     48680   897.51771     -5710.9486     -5532.8682     -1900.8324      48791.671      303.20123    
     48690   895.94443     -5710.9058     -5533.1376     -1564.1609      48766.478      303.10491    
     48700   892.70379     -5710.5172     -5533.392      -965.4353       48735.925      303.03035    
     48710   898.15415     -5711.8198     -5533.6132     -481.80277      48702.202      303.00188    
     48720   919.51261     -5716.2953     -5533.8508     -287.21356      48667.115      302.99902    
     48730   922.75132     -5717.2537     -5534.1666      18.161826      48631.56       302.99016    
     48740   909.19094     -5714.967      -5534.5705      373.74013      48596.685      302.96691    
     48750   905.17291     -5714.6356     -5535.0364      416.92157      48563.647      302.93247    
     48760   908.05756     -5715.7299     -5535.5582      220.78898      48532.589      302.87871    
     48770   914.2664      -5717.5485     -5536.1449      93.940062      48502.889      302.78993    
     48780   925.73269     -5720.5254     -5536.8468      220.10921      48474.099      302.68045    
     48790   918.00689     -5719.8157     -5537.67        800.73122      48446.773      302.59035    
     48800   898.57042     -5716.8615     -5538.5722      1384.0846      48422.867      302.5553     
     48810   901.23611     -5718.3127     -5539.4946      1375.4247      48404.238      302.58686    
     48820   903.80703     -5719.7607     -5540.4325      1230.4783      48390.935      302.67177    
     48830   898.4631      -5719.6271     -5541.3591      1147.227       48382.386      302.77212    
     48840   901.78364     -5721.1816     -5542.2549      952.25082      48378.133      302.86447    
     48850   897.11675     -5721.093      -5543.0922      835.21047      48377.455      302.94681    
     48860   897.14805     -5721.8577     -5543.8506      577.33588      48379.75       303.00055    
     48870   895.05815     -5722.1133     -5544.5209      403.21657      48384.175      303.01207    
     48880   894.69829     -5722.6198     -5545.0988      149.80085      48389.964      303.00406    
     48890   889.48064     -5722.0591     -5545.5734     -102.75117      48396.179      303.01462    
     48900   882.33508     -5721.0121     -5545.9442     -63.121707      48401.962      303.0791     
     48910   875.23681     -5719.8549     -5546.1953      91.849606      48407.388      303.20532    
     48920   872.30578     -5719.4008     -5546.3228      338.14514      48413.039      303.37263    
     48930   863.74285     -5717.7008     -5546.3219      499.93103      48419.79       303.55588    
     48940   875.01848     -5719.8263     -5546.2101      377.51727      48428.145      303.74432    
     48950   893.68918     -5723.3401     -5546.0194      70.032551      48437.597      303.92975    
     48960   900.99693     -5724.5947     -5545.824       50.251027      48447.191      304.09204    
     48970   897.20584     -5723.6576     -5545.6391      144.05362      48456.769      304.19561    
     48980   904.5244      -5724.9452     -5545.4746      22.044471      48466.54       304.24149    
     48990   900.46891     -5724.0062     -5545.3403      58.13784       48476.223      304.26896    
     49000   882.64201     -5720.3474     -5545.2186      251.63427      48485.901      304.31368    
     49010   881.22322     -5719.9036     -5545.0563      199.80828      48496.14       304.39885    
     49020   887.18136     -5720.8619     -5544.8325      98.679627      48506.839      304.53221    
     49030   886.71358     -5720.5071     -5544.5704      117.77906      48517.638      304.69817    
     49040   878.69408     -5718.6134     -5544.2679      231.25625      48528.596      304.85546    
     49050   880.13928     -5718.5457     -5543.9134      247.25857      48540.062      304.97047    
     49060   872.96928     -5716.6981     -5543.4885      181.94967      48552.139      305.05849    
     49070   880.24186     -5717.6503     -5542.9977     -281.99098      48564.416      305.13923    
     49080   887.85619     -5718.5958     -5542.4324     -831.23848      48575.297      305.19962    
     49090   907.86281     -5721.9998     -5541.8668     -1323.3693      48582.824      305.22311    
     49100   903.22281     -5720.5518     -5541.3394     -1237.3925      48585.49       305.21234    
     49110   899.99491     -5719.4561     -5540.8842     -777.23891      48583.655      305.18227    
     49120   897.87459     -5718.6119     -5540.4608     -303.70035      48579.053      305.15805    
     49130   893.29045     -5717.2976     -5540.056      -47.450285      48573.406      305.13703    
     49140   896.3898      -5717.5126     -5539.656       22.192357      48567.695      305.09461    
     49150   894.38488     -5716.7183     -5539.2595     -90.247362      48562.171      305.05056    
     49160   896.46445     -5716.7567     -5538.8853     -353.77628      48556.432      305.05663    
     49170   896.40628     -5716.3879     -5538.5281     -513.25899      48549.596      305.12667    
     49180   899.38052     -5716.6403     -5538.1903     -453.41655      48541.176      305.2407     
     49190   906.86479     -5717.8147     -5537.8797     -314.36664      48531.4        305.36261    
     49200   916.53146     -5719.4733     -5537.6203     -59.059064      48520.828      305.44745    
     49210   923.57334     -5720.6876     -5537.4374      231.32423      48510.399      305.48619    
     49220   921.61262     -5720.2266     -5537.3654      452.08137      48501.108      305.51027    
     49230   908.01276     -5717.5305     -5537.3678      677.10057      48493.796      305.5612     
     49240   919.69744     -5719.9098     -5537.4286      307.17191      48488.98       305.65589    
     49250   920.93054     -5720.2764     -5537.5506     -30.427409      48485.473      305.77094    
     49260   902.78585     -5716.8512     -5537.7256      117.77239      48482.147      305.86296    
     49270   906.26357     -5717.7224     -5537.9067      314.21852      48479.349      305.90328    
     49280   915.896       -5719.8248     -5538.0979      557.44476      48477.807      305.91441    
     49290   912.63001     -5719.3956     -5538.3168      816.73977      48478.372      305.93547    
     49300   918.28016     -5720.7733     -5538.5734      739.3998       48481.798      306.01426    
     49310   912.40621     -5719.9032     -5538.8687      662.73656      48487.831      306.18865    
     49320   884.91947     -5714.7407     -5539.16        594.00824      48496.096      306.44961    
     49330   876.50598     -5713.2784     -5539.3671      151.99167      48506.201      306.74213    
     49340   891.3479      -5716.3268     -5539.4706     -629.41741      48516.486      307.00539    
     49350   901.19599     -5718.3333     -5539.5231     -1055.3902      48524.335      307.20665    
     49360   897.17983     -5717.573      -5539.5597     -1114.4945      48528.247      307.34951    
     49370   909.46463     -5720.0566     -5539.6058     -1170.0257      48527.99       307.45394    
     49380   907.75422     -5719.79       -5539.6786     -1027.7626      48523.552      307.53719    
     49390   901.62642     -5718.6617     -5539.7661     -734.39333      48515.571      307.61508    
     49400   897.60299     -5717.9517     -5539.8544     -572.42868      48505.082      307.68742    
     49410   893.38714     -5717.1826     -5539.9218     -429.58172      48492.753      307.75258    
     49420   898.33865     -5718.208      -5539.9648     -314.85714      48479.175      307.80858    
     49430   903.62465     -5719.288      -5539.9959     -260.92354      48464.76       307.85621    
     49440   909.86473     -5720.5745     -5540.0443     -144.71261      48449.743      307.91305    
     49450   911.57428     -5720.9861     -5540.1167      140.82349      48434.599      307.99226    
     49460   923.79384     -5723.5294     -5540.2355      264.98588      48420.227      308.10721    
     49470   930.00514     -5724.969      -5540.4427      299.12744      48407.084      308.26548    
     49480   917.00854     -5722.6875     -5540.7399      522.33959      48395.363      308.44359    
     49490   903.32618     -5720.3079     -5541.075       785.04234      48385.806      308.62162    
     49500   902.37297     -5720.4481     -5541.4044      929.23118      48379.283      308.78691    
     49510   903.45743     -5720.9806     -5541.7217      1000.967       48376.278      308.91304    
     49520   895.80068     -5719.7703     -5542.0306      934.1901       48376.933      308.97946    
     49530   882.50709     -5717.399      -5542.297       826.15834      48381.008      309.00327    
     49540   880.32321     -5717.1628     -5542.4941      506.42992      48387.943      309.03044    
     49550   876.77497     -5716.5538     -5542.5891      283.54594      48396.678      309.09883    
     49560   893.86334     -5719.9559     -5542.6006     -0.64825553     48406.276      309.21729    
     49570   905.38527     -5722.2188     -5542.5773     -14.252901      48415.788      309.39382    
     49580   911.40095     -5723.4027     -5542.5677      154.39836      48425.164      309.62268    
     49590   920.88236     -5725.3301     -5542.6138      144.28712      48434.896      309.87343    
     49600   907.32009     -5722.7494     -5542.7241      192.39705      48445.081      310.10471    
     49610   900.6069      -5721.5596     -5542.8663     -35.311116      48455.741      310.28005    
     49620   901.24477     -5721.8353     -5543.0155     -201.42473      48466.161      310.38573    
     49630   891.83692     -5720.1075     -5543.1543      2.7065097      48475.84       310.46884    
     49640   879.17451     -5717.6986     -5543.2578      377.08057      48485.459      310.60653    
     49650   884.15259     -5718.7134     -5543.2848      514.66515      48496.297      310.82884    
     49660   901.61813     -5722.1602     -5543.2662      302.51092      48508.772      311.1101     
     49670   890.67708     -5719.9515     -5543.2284      125.85055      48522.227      311.40674    
     49680   882.06063     -5718.1736     -5543.1601     -174.05623      48535.921      311.6706     
     49690   877.51462     -5717.131      -5543.0195     -384.96161      48548.812      311.87084    
     49700   877.66363     -5716.9255     -5542.7845     -393.62312      48560.186      312.02118    
     49710   878.38458     -5716.7322     -5542.4481     -337.89273      48569.985      312.16718    
     49720   883.79508     -5717.3588     -5542.0012     -360.88421      48578.373      312.31777    
     49730   892.42728     -5718.5277     -5541.4574     -282.85759      48585.336      312.46457    
     49740   892.13757     -5717.8125     -5540.7996     -134.58936      48591.189      312.61034    
     49750   907.00572     -5719.9904     -5540.0274     -269.08201      48596.369      312.77955    
     49760   906.63758     -5719.0232     -5539.1333     -338.41576      48600.553      312.96401    
     49770   903.0144      -5717.2767     -5538.1057     -442.39304      48603.445      313.11603    
     49780   901.36482     -5715.754      -5536.9103     -560.19761      48604.664      313.20126    
     49790   898.57811     -5713.8094     -5535.5187     -561.02656      48603.865      313.21906    
     49800   893.89729     -5711.3126     -5533.9506     -483.01572      48601.031      313.1972     
     49810   900.74619     -5711.0013     -5532.2804     -452.85807      48596.424      313.16722    
     49820   901.95389     -5709.6163     -5530.6558     -430.38452      48590.221      313.14479    
     49830   898.59223     -5707.5414     -5529.2478     -470.79772      48582.473      313.14597    
     49840   897.61146     -5706.2216     -5528.1226     -472.18789      48573.121      313.17016    
     49850   913.23092     -5708.4884     -5527.2903     -347.96816      48562.163      313.19992    
     49860   915.47962     -5708.3599     -5526.7156      111.7131       48550.161      313.22559    
     49870   913.18757     -5707.5344     -5526.3449      567.57551      48538.73       313.27672    
     49880   918.25271     -5708.3093     -5526.1148      787.90688      48529.473      313.39638    
     49890   911.7292      -5706.8822     -5525.9821      854.52141      48523.196      313.54884    
     49900   924.70644     -5709.4153     -5525.9403      644.67076      48520.016      313.69175    
     49910   921.15766     -5708.7579     -5525.9871      698.96932      48519.354      313.85616    
     49920   918.81301     -5708.4159     -5526.1102      837.78989      48521.316      314.056      
     49930   938.23905     -5712.4805     -5526.3204      744.36297      48526.234      314.26614    
     49940   933.29915     -5711.8359     -5526.656       966.88238      48533.983      314.47082    
     49950   934.79442     -5712.6101     -5527.1335      1110.8037      48545.195      314.67542    
     49960   935.68136     -5713.3967     -5527.7441      1045.9019      48560.321      314.9091     
     49970   934.71514     -5713.9596     -5528.4987      844.08366      48579.142      315.14431    
     49980   916.94204     -5711.2819     -5529.3474      531.21444      48600.865      315.32055    
     49990   896.31633     -5708.0522     -5530.2102      176.94985      48624.314      315.44577    
     50000   882.99724     -5706.2102     -5531.0109     -232.46929      48648.173      315.59706    
Loop time of 8047.76 on 1 procs for 20000 steps with 1536 atoms

Performance: 0.215 ns/day, 111.774 hours/ns, 2.485 timesteps/s, 3.817 katom-step/s
123.7% CPU use with 1 MPI tasks x 1 OpenMP threads

MPI task timing breakdown:
Section |  min time  |  avg time  |  max time  |%varavg| %total
---------------------------------------------------------------
Pair    | 7989.9     | 7989.9     | 7989.9     |   0.0 | 99.28
Bond    | 0.022669   | 0.022669   | 0.022669   |   0.0 |  0.00
Neigh   | 6.0017     | 6.0017     | 6.0017     |   0.0 |  0.07
Comm    | 0.71322    | 0.71322    | 0.71322    |   0.0 |  0.01
Output  | 49.395     | 49.395     | 49.395     |   0.0 |  0.61
Modify  | 1.5684     | 1.5684     | 1.5684     |   0.0 |  0.02
Other   |            | 0.1505     |            |       |  0.00

Nlocal:           1536 ave        1536 max        1536 min
Histogram: 1 0 0 0 0 0 0 0 0 0
Nghost:           2526 ave        2526 max        2526 min
Histogram: 1 0 0 0 0 0 0 0 0 0
Neighs:              0 ave           0 max           0 min
Histogram: 1 0 0 0 0 0 0 0 0 0
FullNghs:        49436 ave       49436 max       49436 min
Histogram: 1 0 0 0 0 0 0 0 0 0

Total # of neighbors = 49436
Ave neighs/atom = 32.184896
Ave special neighs/atom = 0
Neighbor list builds = 2000
Dangerous builds = 2000
unfix           3

write_data      structure.end.data
System init for write_data ...
write_restart   structure.end
System init for write_restart ...
                    
Total wall time: 3:29:10
