LAMMPS (29 Sep 2021 - Update 3)
OMP_NUM_THREADS environment is not set. Defaulting to 1 thread. (src/comm.cpp:98)
  using 1 OpenMP thread(s) per MPI task
Reading data file ...
  orthogonal box = (0.0000000 0.0000000 0.0000000) to (16.534670 17.767358 74.594796)
  1 by 2 by 8 MPI processor grid
  reading atoms ...
  864 atoms
Finding 1-2 1-3 1-4 neighbors ...
  special bond factors lj:    0        0        0       
  special bond factors coul:  0        0        0       
     0 = max # of 1-2 neighbors
     0 = max # of 1-3 neighbors
     0 = max # of 1-4 neighbors
     1 = max # of special neighbors
  special bonds CPU = 0.001 seconds
  read_data CPU = 0.010 seconds
Neighbor list info ...
  update every 1 steps, delay 10 steps, check yes
  max neighbors/atom: 2000, page size: 100000
  master list distance cutoff = 6.22
  ghost atom cutoff = 6.22
  binsize = 3.11, bins = 6 6 24
  1 neighbor lists, perpetual/occasional/extra = 1 0 0
  (1) pair quip, perpetual
      attributes: full, newton on
      pair build: full/bin
      stencil: full/bin/3d
      bin: standard
Setting up Verlet run ...
  Unit style    : metal
  Current step  : 0
  Time step     : 0.001
Per MPI rank memory allocation (min/avg/max) = 8.894 | 8.906 | 8.915 Mbytes
Step Temp PotEng TotEng Press Volume c_msd[4] 
       0            0   -8413.4292   -8413.4292   -12531.916    21914.265            0 
      10    63.367096   -8420.5059   -8413.4372   -13062.757    21914.265 0.00028900792 
      20    162.23389   -8431.5423   -8413.4448   -13580.932    21914.265 0.0035442006 
      30    203.76318   -8436.1707   -8413.4406   -13263.999    21914.265  0.011998633 
      40     225.5427      -8438.6   -8413.4404   -13091.981    21914.265  0.023619499 
      50    238.39464   -8440.0352   -8413.4419   -13192.953    21914.265  0.036411648 
      60    237.91747   -8439.9798   -8413.4397    -13151.82    21914.265  0.049420327 
      70    242.25882   -8440.4649   -8413.4405   -12986.142    21914.265  0.062561747 
      80    243.33226   -8440.5825   -8413.4384   -12841.846    21914.265  0.075987004 
      90     256.1439    -8442.014   -8413.4408   -12985.089    21914.265  0.088683986 
     100    260.92723   -8442.5467   -8413.4399   -13129.532    21914.265   0.10092572 
     110    263.36735   -8442.8185   -8413.4395   -13314.209    21914.265   0.11296329 
     120    267.45703   -8443.2754   -8413.4402   -13403.997    21914.265   0.12509928 
     130    267.20277   -8443.2463   -8413.4395   -13198.457    21914.265   0.13819283 
     140    269.21359   -8443.4705   -8413.4393   -12839.711    21914.265   0.15259322 
     150     276.3754   -8444.2699   -8413.4398   -12564.061    21914.265   0.16775295 
     160    282.09052   -8444.9077   -8413.4401   -12400.914    21914.265   0.18315323 
     170    283.74907   -8445.0928   -8413.4402     -12430.3    21914.265    0.1989762 
     180    279.57367   -8444.6271   -8413.4402   -12727.353    21914.265   0.21536827 
     190    272.01519   -8443.7829   -8413.4391   -12943.608    21914.265   0.23180139 
     200    272.98877   -8443.8921   -8413.4397   -13066.814    21914.265    0.2476891 
     210    278.28656   -8444.4833     -8413.44   -13119.162    21914.265   0.26290373 
     220    281.61115   -8444.8543   -8413.4402    -13052.65    21914.265   0.27743582 
     230    283.45537   -8445.0589    -8413.439   -12948.839    21914.265   0.29133107 
     240    292.81696   -8446.1046   -8413.4404   -13016.029    21914.265    0.3048675 
     250    295.20203   -8446.3705   -8413.4402   -13077.887    21914.265   0.31931215 
     260    290.46684   -8445.8415   -8413.4394   -13040.528    21914.265   0.33532684 
     270    290.61991    -8445.858   -8413.4389   -13235.455    21914.265   0.35239777 
     280    301.25443   -8447.0456   -8413.4402   -13515.282    21914.265   0.36952956 
     290    308.28623   -8447.8304   -8413.4406   -13611.572    21914.265   0.38667041 
     300    309.20907   -8447.9319   -8413.4392   -13455.868    21914.265    0.4041006 
     310     314.5316   -8448.5273   -8413.4408   -13198.597    21914.265   0.42152557 
     320    312.09261   -8448.2546   -8413.4402   -12968.083    21914.265   0.43866959 
     330    305.84421   -8447.5573   -8413.4399   -12657.381    21914.265   0.45536472 
     340    303.20988   -8447.2632   -8413.4397   -12498.026    21914.265   0.47172581 
     350    307.13857   -8447.7018     -8413.44   -12492.368    21914.265   0.48754232 
     360    312.15901   -8448.2619   -8413.4401   -12369.505    21914.265   0.50223919 
     370     318.6847   -8448.9898     -8413.44   -12195.898    21914.265   0.51545083 
     380    326.66636   -8449.8808   -8413.4407   -12030.164    21914.265   0.52751087 
     390    328.67292   -8450.1043   -8413.4403   -11786.931    21914.265   0.53983918 
     400    329.42172   -8450.1875     -8413.44   -11529.418    21914.265   0.55338123 
     410    329.12824   -8450.1558   -8413.4411   -11363.621    21914.265   0.56856317 
     420    321.17839   -8449.2675   -8413.4396   -11329.503    21914.265   0.58578319 
     430    319.73313   -8449.1067     -8413.44   -11645.546    21914.265   0.60460993 
     440    321.87014   -8449.3455   -8413.4404   -12168.872    21914.265   0.62482739 
     450    321.69175   -8449.3257   -8413.4405   -12517.526    21914.265   0.64605131 
     460    321.58625   -8449.3131   -8413.4397   -12738.117    21914.265   0.66602281 
     470    327.73765   -8450.0009   -8413.4413    -13118.13    21914.265   0.68222539 
     480    325.78012   -8449.7811   -8413.4399   -13518.975    21914.265   0.69547134 
     490    325.26696   -8449.7242   -8413.4402   -13912.333    21914.265   0.70709849 
     500    326.02809   -8449.8096   -8413.4407    -14245.82    21914.265    0.7181905 
     510     321.8067   -8449.3384   -8413.4404   -14358.421    21914.265   0.73031831 
     520    314.82643   -8448.5595   -8413.4401   -14393.561    21914.265   0.74493886 
     530    311.55922   -8448.1945   -8413.4396    -14504.26    21914.265   0.76206346 
     540    316.52181   -8448.7487   -8413.4402   -14692.451    21914.265   0.78048733 
     550    323.45997   -8449.5224     -8413.44   -14675.954    21914.265   0.79880458 
     560    332.20295   -8450.4987   -8413.4409    -14432.97    21914.265   0.81596428 
     570    332.37528   -8450.5179   -8413.4409   -14008.452    21914.265   0.83234674 
     580    324.44532    -8449.632   -8413.4397   -13682.622    21914.265   0.84880328 
     590    322.54654   -8449.4211   -8413.4405   -13611.186    21914.265   0.86493346 
     600    320.03229     -8449.14   -8413.4399   -13618.158    21914.265   0.88136827 
     610     322.0694   -8449.3667   -8413.4393   -13770.866    21914.265   0.89972436 
     620    332.97088   -8450.5844    -8413.441   -14040.679    21914.265   0.91979176 
     630    336.52886   -8450.9806   -8413.4403   -14106.634    21914.265    0.9400978 
     640    340.63169   -8451.4378   -8413.4399   -14084.373    21914.265   0.95883362 
     650     349.6267   -8452.4431   -8413.4417   -14126.089    21914.265   0.97518253 
     660     345.3101   -8451.9607   -8413.4408    -13925.09    21914.265   0.98949595 
     670    335.30236   -8450.8431   -8413.4396   -13541.064    21914.265    1.0025057 
     680    335.35657   -8450.8495     -8413.44   -13120.509    21914.265    1.0157598 
     690    342.86707   -8451.6878   -8413.4405   -12807.122    21914.265    1.0306556 
     700    350.61517   -8452.5527    -8413.441   -12613.893    21914.265    1.0481195 
     710    351.61871   -8452.6647   -8413.4411    -12558.63    21914.265     1.067876 
     720    346.37378   -8452.0785     -8413.44   -12478.274    21914.265    1.0873947 
     730    347.79156   -8452.2373   -8413.4406   -12593.955    21914.265    1.1041491 
     740    351.02442    -8452.599   -8413.4417   -12781.856    21914.265    1.1188548 
     750    344.89782   -8451.9145   -8413.4406   -12888.282    21914.265     1.133643 
     760      340.342   -8451.4064   -8413.4407   -13050.736    21914.265    1.1491825 
     770    340.04955   -8451.3737   -8413.4407   -13326.749    21914.265    1.1643304 
     780      345.357   -8451.9656   -8413.4405   -13558.373    21914.265    1.1777023 
     790    357.12317   -8453.2788   -8413.4411   -13831.043    21914.265    1.1886997 
     800    366.64045   -8454.3407   -8413.4414   -14129.874    21914.265    1.1976392 
     810    368.68447   -8454.5688   -8413.4415   -14063.484    21914.265    1.2056605 
     820    366.60174   -8454.3361   -8413.4411   -13908.726    21914.265    1.2141717 
     830    365.85586   -8454.2531   -8413.4413   -13853.131    21914.265    1.2243585 
     840     368.4524   -8454.5423   -8413.4409   -13972.673    21914.265    1.2365636 
     850    371.87492   -8454.9262    -8413.443    -14131.16    21914.265    1.2503596 
     860     358.1746   -8453.3954   -8413.4405     -13818.7    21914.265    1.2649975 
     870    354.45705   -8452.9806   -8413.4404   -13465.958    21914.265     1.278191 
     880    366.65296   -8454.3425   -8413.4418   -13399.092    21914.265    1.2880847 
     890    376.93995   -8455.4909   -8413.4426    -13274.53    21914.265    1.2959326 
     900    375.96913   -8455.3817   -8413.4418   -13062.805    21914.265    1.3041818 
     910    374.01489   -8455.1632   -8413.4413   -12824.206    21914.265    1.3130528 
     920    378.94842   -8455.7136   -8413.4414   -12747.174    21914.265    1.3222121 
     930    388.54983   -8456.7859   -8413.4426   -12880.601    21914.265    1.3329508 
     940    389.80019   -8456.9258    -8413.443   -12981.003    21914.265    1.3457299 
     950    382.52604   -8456.1127   -8413.4413   -12918.004    21914.265    1.3587946 
     960    381.75271   -8456.0275   -8413.4424   -13120.356    21914.265    1.3710856 
     970    380.20365    -8455.854   -8413.4417   -13297.868    21914.265    1.3835601 
     980    384.06597   -8456.2848   -8413.4416    -13360.21    21914.265    1.3967998 
     990    391.39252    -8457.104   -8413.4436    -13319.56    21914.265    1.4114384 
    1000    385.55287   -8456.4508   -8413.4418   -13032.957    21914.265    1.4285977 
    1010    381.98963   -8456.0536   -8413.4421   -12900.345    21914.265    1.4480597 
    1020    382.08452   -8456.0644   -8413.4423   -12891.786    21914.265    1.4678099 
    1030    380.66666   -8455.9065   -8413.4425   -12820.478    21914.265    1.4859085 
    1040    378.02017   -8455.6107    -8413.442   -12814.774    21914.265    1.5012686 
    1050    381.70997   -8456.0224   -8413.4421   -12925.622    21914.265    1.5119118 
    1060    391.42566   -8457.1073   -8413.4432    -13146.33    21914.265    1.5173209 
    1070    396.24192   -8457.6441   -8413.4428   -13102.084    21914.265    1.5196151 
    1080    397.63032   -8457.7993    -8413.443   -12889.784    21914.265    1.5211703 
    1090    396.12759   -8457.6308   -8413.4422   -12537.537    21914.265    1.5231683 
    1100    400.33119   -8458.1002   -8413.4426   -12299.668    21914.265    1.5256834 
    1110    407.17314   -8458.8635   -8413.4428   -12099.612    21914.265    1.5296348 
    1120    413.19804   -8459.5369    -8413.444   -11926.861    21914.265    1.5369315 
    1130    409.94165   -8459.1721   -8413.4425   -11927.354    21914.265    1.5487344 
    1140    411.69689   -8459.3679   -8413.4425   -12274.932    21914.265    1.5644715 
    1150    417.92932   -8460.0654   -8413.4448   -12599.199    21914.265    1.5822789 
    1160    409.45399   -8459.1175   -8413.4423   -12608.558    21914.265    1.6004412 
    1170    405.75202   -8458.7057   -8413.4435   -12496.116    21914.265    1.6169469 
    1180    399.97271   -8458.0606    -8413.443   -12466.412    21914.265    1.6317671 
    1190    393.04741   -8457.2883   -8413.4433   -12618.331    21914.265    1.6460138 
    1200    381.93867   -8456.0489   -8413.4431   -12576.103    21914.265    1.6602667 
    1210    376.72969   -8455.4667   -8413.4419   -12745.258    21914.265    1.6726433 
    1220     387.4652   -8456.6661   -8413.4437   -13270.317    21914.265    1.6819979 
    1230    392.11995   -8457.1848   -8413.4433   -13698.725    21914.265    1.6894908 
    1240    392.35374   -8457.2109   -8413.4432   -14054.078    21914.265    1.6958816 
    1250    387.63167   -8456.6848   -8413.4439   -14383.659    21914.265    1.7022745 
    1260    377.01437   -8455.4984   -8413.4419   -14780.957    21914.265    1.7098627 
    1270    380.16106   -8455.8505   -8413.4429    -15291.91    21914.265    1.7186286 
    1280    386.65141    -8456.575   -8413.4435   -15684.863    21914.265    1.7280931 
    1290    386.45138   -8456.5524   -8413.4431   -15669.118    21914.265    1.7377267 
    1300    384.49318   -8456.3333   -8413.4425   -15192.167    21914.265    1.7465203 
    1310    389.16883   -8456.8559   -8413.4435   -14748.802    21914.265    1.7543822 
    1320    395.91985   -8457.6092   -8413.4437   -14540.669    21914.265    1.7626209 
    1330    402.24128   -8458.3144   -8413.4438   -14482.176    21914.265    1.7719127 
    1340    406.72312   -8458.8138   -8413.4433   -14593.779    21914.265    1.7822942 
    1350    413.88937   -8459.6138   -8413.4438   -14633.206    21914.265    1.7929881 
    1360    418.26368   -8460.1021   -8413.4441   -14272.723    21914.265    1.8043383 
    1370    412.53709   -8459.4628   -8413.4437   -13640.472    21914.265    1.8173742 
    1380    404.03017    -8458.513   -8413.4428   -13053.663    21914.265    1.8314414 
    1390    402.11865   -8458.3013   -8413.4444   -12796.252    21914.265    1.8446224 
    1400    396.75786   -8457.7017   -8413.4428   -12890.081    21914.265    1.8555613 
    1410     401.1626   -8458.1945   -8413.4442   -13251.623    21914.265    1.8625402 
    1420    405.53922    -8458.683   -8413.4445   -13540.901    21914.265    1.8651673 
    1430    404.12534   -8458.5245   -8413.4437   -13662.885    21914.265    1.8648977 
    1440    405.72045   -8458.7027    -8413.444   -13771.634    21914.265    1.8643414 
    1450    406.67484   -8458.8092    -8413.444   -13873.149    21914.265    1.8661066 
    1460    406.94702   -8458.8395   -8413.4439   -13898.845    21914.265    1.8707341 
    1470    405.99802   -8458.7335   -8413.4438    -13583.81    21914.265    1.8783175 
    1480    405.25435   -8458.6503   -8413.4436   -13097.342    21914.265    1.8881067 
    1490    408.19865    -8458.979   -8413.4439   -12662.726    21914.265    1.8977467 
    1500    414.56579   -8459.6887   -8413.4433   -12296.863    21914.265    1.9065246 
    1510    429.03716   -8461.3044   -8413.4447   -11735.577    21914.265    1.9156573 
    1520    435.43303   -8462.0188   -8413.4456   -11140.275    21914.265    1.9269758 
    1530    420.46896   -8460.3486   -8413.4446     -10759.3    21914.265    1.9420002 
    1540    404.55727   -8458.5707   -8413.4417   -10562.297    21914.265    1.9594173 
    1550     414.5371   -8459.6878   -8413.4456   -10873.945    21914.265    1.9756145 
    1560    415.64167   -8459.8093   -8413.4438    -11180.84    21914.265    1.9896674 
    1570    417.51903   -8460.0192   -8413.4444   -11574.862    21914.265      2.00287 
    1580    420.71133   -8460.3754   -8413.4444   -12084.028    21914.265    2.0173903 
    1590    422.23753   -8460.5459   -8413.4446   -12650.323    21914.265    2.0354221 
    1600    420.26548   -8460.3254   -8413.4441   -13157.964    21914.265    2.0567995 
    1610    418.97614   -8460.1816   -8413.4442   -13379.664    21914.265    2.0784503 
    1620    422.99101    -8460.629   -8413.4437   -13476.483    21914.265    2.0978277 
    1630    431.41255   -8461.5707    -8413.446   -13473.665    21914.265     2.115193 
    1640    426.28653   -8460.9963   -8413.4434   -13430.412    21914.265    2.1338075 
    1650    431.13487   -8461.5387    -8413.445   -13658.596    21914.265       2.1559 
    1660    436.17822   -8462.1019   -8413.4456   -13638.641    21914.265    2.1797337 
    1670    428.12023   -8461.2022   -8413.4447   -13252.346    21914.265    2.2035441 
    1680    422.66155   -8460.5919   -8413.4434   -13022.696    21914.265    2.2262152 
    1690    430.34848   -8461.4521    -8413.446   -12966.155    21914.265    2.2464937 
    1700    426.21611   -8460.9896   -8413.4446   -12849.343    21914.265    2.2649593 
    1710    421.63281   -8460.4781   -8413.4443    -12902.06    21914.265    2.2822078 
    1720    425.52952   -8460.9136   -8413.4451   -13254.993    21914.265    2.2992296 
    1730    433.21398   -8461.7705   -8413.4448   -13760.925    21914.265    2.3170264 
    1740    441.86781   -8462.7372   -8413.4461   -14050.542    21914.265    2.3352522 
    1750    438.27813    -8462.336   -8413.4454   -13921.401    21914.265    2.3528289 
    1760    429.17186   -8461.3192   -8413.4444   -13408.002    21914.265    2.3694072 
    1770    428.81898   -8461.2807   -8413.4453    -12917.73    21914.265    2.3858611 
    1780    433.34916   -8461.7857    -8413.445   -12638.931    21914.265    2.4026666 
    1790     441.0669   -8462.6474   -8413.4457   -12705.172    21914.265     2.419074 
    1800    447.24535   -8463.3359    -8413.445   -12842.309    21914.265    2.4345236 
    1810    451.04914   -8463.7611   -8413.4459   -13058.485    21914.265    2.4502124 
    1820    445.08252   -8463.0941   -8413.4445   -13035.825    21914.265    2.4671851 
    1830    441.70858   -8462.7187   -8413.4454   -12922.342    21914.265    2.4853863 
    1840    432.65555   -8461.7082   -8413.4449   -13058.866    21914.265    2.5046773 
    1850    428.24526   -8461.2146   -8413.4432   -13494.155    21914.265    2.5239509 
    1860    442.70809   -8462.8312   -8413.4464     -14052.9    21914.265    2.5417036 
    1870    445.34398   -8463.1238   -8413.4451   -14177.248    21914.265    2.5577578 
    1880    449.56383   -8463.5931   -8413.4436   -14088.107    21914.265    2.5732932 
    1890    469.70151   -8465.8424   -8413.4465   -13965.821    21914.265    2.5900107 
    1900    475.61979   -8466.5029   -8413.4468   -13338.709    21914.265    2.6092547 
    1910    460.77113   -8464.8444   -8413.4447   -12266.897    21914.265    2.6300063 
    1920    453.29076   -8464.0097   -8413.4444   -11600.031    21914.265    2.6488623 
    1930    455.01355   -8464.2038   -8413.4464   -11532.276    21914.265     2.664581 
    1940    446.57627   -8463.2611   -8413.4448   -11610.068    21914.265    2.6787843 
    1950    442.24787   -8462.7779   -8413.4445    -12067.88    21914.265     2.691974 
    1960    445.34565   -8463.1243   -8413.4453   -12574.104    21914.265    2.7033659 
    1970     445.3849   -8463.1293   -8413.4459   -12683.518    21914.265    2.7130116 
    1980    438.45896   -8462.3558    -8413.445   -12521.804    21914.265    2.7223802 
    1990    435.82997    -8462.062   -8413.4445   -12590.151    21914.265    2.7312795 
    2000    445.20858   -8463.1089   -8413.4452   -13039.215    21914.265    2.7384799 
Loop time of 1433.66 on 16 procs for 2000 steps with 864 atoms

Performance: 0.121 ns/day, 199.119 hours/ns, 1.395 timesteps/s
97.0% CPU use with 16 MPI tasks x 1 OpenMP threads

MPI task timing breakdown:
Section |  min time  |  avg time  |  max time  |%varavg| %total
---------------------------------------------------------------
Pair    | 581.64     | 871.94     | 1348.9     | 754.5 | 60.82
Bond    | 0.00016403 | 0.00054497 | 0.0026267  |   0.0 |  0.00
Neigh   | 0.018018   | 0.03207    | 0.060612   |   7.5 |  0.00
Comm    | 62.065     | 503.23     | 778.69     | 931.7 | 35.10
Output  | 18.111     | 40.176     | 67.266     | 273.1 |  2.80
Modify  | 0.010236   | 0.011302   | 0.016331   |   1.3 |  0.00
Other   |            | 18.27      |            |       |  1.27

Nlocal:        54.0000 ave          84 max          36 min
Histogram: 3 3 4 0 0 2 1 0 1 2
Nghost:        477.750 ave         592 max         348 min
Histogram: 2 0 2 1 3 3 1 0 0 4
Neighs:         0.00000 ave           0 max           0 min
Histogram: 16 0 0 0 0 0 0 0 0 0
FullNghs:      2234.12 ave        4892 max        1038 min
Histogram: 5 5 0 0 2 0 2 0 0 2

Total # of neighbors = 35746
Ave neighs/atom = 41.372685
Ave special neighs/atom = 0.0000000
Neighbor list builds = 199
Dangerous builds = 198
Setting up Verlet run ...
  Unit style    : metal
  Current step  : 2000
  Time step     : 0.001
Per MPI rank memory allocation (min/avg/max) = 8.894 | 8.907 | 8.916 Mbytes
Step Temp PotEng TotEng Press Volume c_msd[4] 
    2000         1125   -8463.1089   -8337.6135   -9343.1186    21914.265    2.7384799 
    2010    996.26014   -8448.7669   -8337.6326   -7746.6509    21909.363    2.7425681 
    2020    830.85704   -8430.2019   -8337.5185   -5506.3344    21896.206    2.7503857 
    2030     807.6437   -8427.1491   -8337.0552   -5393.3919    21876.946    2.7546348 
    2040    798.25536   -8425.1955    -8336.149   -5083.5075    21852.002    2.7550378 
    2050    796.30348   -8423.7736   -8334.9448   -4665.8385    21821.717    2.7541533 
    2060    813.63708   -8424.4432   -8333.6808   -4542.2657    21786.564    2.7548953 
    2070    812.16754   -8423.1482   -8332.5497   -3506.7136    21746.939    2.7594903 
    2080    812.76868   -8422.1804   -8331.5149   -2138.2878    21704.013    2.7678587 
    2090    821.17489   -8422.0383    -8330.435   -1416.7034    21659.309    2.7786681 
    2100    826.59135   -8421.4442   -8329.2367   -1417.7297    21613.767    2.7873221 
    2110     846.2267   -8422.3232   -8327.9254    -1953.215    21567.595    2.7907078 
    2120    866.60406   -8423.1866   -8326.5156   -2517.9517    21520.508    2.7927121 
    2130    873.48582   -8422.5068   -8325.0681    -2933.373    21472.174    2.7987649 
    2140    871.32165   -8420.7918   -8323.5946   -3291.0544    21422.439    2.8112532 
    2150    872.21492   -8419.3906   -8322.0937   -3445.3587    21371.264    2.8287609 
    2160    884.55134   -8419.2282   -8320.5551   -3302.0901    21318.835    2.8462854 
    2170    898.54831   -8419.1818   -8318.9474   -2487.5394    21265.662    2.8603788 
    2180    914.38675   -8419.2363   -8317.2351   -951.99684    21212.878    2.8722238 
    2190    948.61943   -8421.2355   -8315.4156    331.24417    21162.127    2.8853322 
    2200    974.70386   -8422.2781   -8313.5484    1328.3695    21114.741    2.9015558 
    2210    972.34465   -8420.1896   -8311.7231    2142.0644    21071.637    2.9234311 
    2220    956.17447   -8416.6193   -8309.9566    2541.0128    21033.404    2.9518362 
    2230     968.7343   -8416.2622   -8308.1984    2029.7086    21000.123    2.9800028 
    2240    992.41348   -8417.1072    -8306.402    1069.2394    20971.027    3.0018304 
    2250    989.48355   -8414.9628   -8304.5844    882.43059    20945.038    3.0205766 
    2260    1000.7643    -8414.385   -8302.7482    1270.5946    20921.757    3.0419355 
    2270    1030.3184   -8415.7992   -8300.8657    1449.5343    20901.275    3.0688063 
    2280    1050.1257   -8416.1395   -8298.9964    1371.1287    20883.536    3.1004867 
    2290    1057.7297   -8415.1902   -8297.1989     980.8092    20868.238    3.1342296 
    2300    1053.8823   -8413.0557   -8295.4935    898.74493     20854.87    3.1704106 
    2310    1056.5907   -8411.6956   -8293.8314    1666.1041    20843.266    3.2078789 
    2320    1085.3266   -8413.2308    -8292.161    2442.6916    20833.929    3.2459378 
    2330    1093.9027   -8412.5289   -8290.5024    2956.5698    20827.426    3.2871969 
    2340    1083.2164   -8409.7655    -8288.931    3019.9522     20824.05    3.3315353 
    2350    1088.8477    -8408.896   -8287.4334    2301.6045    20823.649    3.3787235 
    2360    1124.5126   -8411.4074   -8285.9663    906.56919     20825.38    3.4324995 
    2370    1135.2859   -8411.2031   -8284.5602     198.0753    20827.968    3.4947156 
    2380    1117.2446   -8407.8888   -8283.2585    188.11754    20830.701    3.5618498 
    2390    1115.7115     -8406.49   -8282.0307    78.028662    20833.479    3.6286205 
    2400    1156.7682    -8409.882   -8280.8428    280.00737    20836.246    3.6903979 
    2410    1151.0561   -8408.1406   -8279.7386    1379.1085    20839.275    3.7471847 
    2420    1141.2772   -8406.0734   -8278.7622    1697.5965    20843.427    3.8056294 
    2430    1148.8683   -8406.0082   -8277.8502    1306.4746     20848.99    3.8729772 
    2440    1161.9568   -8406.6234   -8277.0054    1312.7931    20855.645    3.9476796 
    2450    1161.2756   -8405.8058   -8276.2637    2437.9972     20863.45    4.0253924 
    2460    1133.9746   -8402.1381   -8275.6416    4287.3572    20873.415    4.1012367 
    2470    1140.0746   -8402.2652   -8275.0881      5513.42    20887.132     4.168905 
    2480    1184.5941   -8406.7283    -8274.585    5290.3093    20905.583    4.2318168 
    2490    1186.7376   -8406.5949   -8274.2126    5397.4318    20928.591     4.299742 
    2500    1187.9653   -8406.5413    -8274.022    5495.3648      20956.1    4.3724732 
    2510    1168.2939   -8404.2931   -8273.9681    5244.0148    20988.045    4.4490733 
    2520    1160.6995   -8403.5132   -8274.0354    5079.1065    21024.091    4.5321709 
    2530    1171.2869   -8404.8449   -8274.1861    4291.6379    21063.874    4.6233722 
    2540    1197.9252   -8408.0627   -8274.4323    3164.2366    21106.516     4.719697 
    2550    1209.8016   -8409.7882    -8274.833    2118.4956    21150.829    4.8226151 
    2560    1162.3014   -8405.0499   -8275.3934    1553.7449    21195.727     4.935339 
    2570    1149.9868    -8404.308   -8276.0252    568.07739    21240.481    5.0566413 
    2580    1198.6576   -8410.3954   -8276.6834   -1218.1614    21284.009    5.1824084 
    2590    1229.3139   -8414.6271   -8277.4953   -2059.1487    21324.713    5.3087969 
    2600    1210.9348   -8413.6247   -8278.5431   -2048.7773    21361.811    5.4345072 
    2610     1183.793   -8411.8311   -8279.7772   -2118.0566    21395.305    5.5581425 
    2620    1154.3419   -8409.8566   -8281.0881   -2277.8458    21425.263    5.6793515 
    2630    1154.8612   -8411.2507   -8282.4242   -3274.1767    21451.533    5.7990841 
    2640    1146.7057    -8411.695   -8283.7783   -3493.8184    21473.425    5.9189575 
    2650    1112.1983   -8409.1516   -8285.0843   -2949.8422    21490.906    6.0394491 
    2660    1125.2865   -8411.8402   -8286.3128    -3479.713    21504.506    6.1579929 
    2670    1136.3989   -8414.2534   -8287.4864   -3901.4234    21513.978    6.2738184 
    2680    1120.0444   -8413.5537   -8288.6111   -3540.1261    21519.129      6.38573 
    2690    1096.4671   -8411.9673   -8289.6547   -3143.0148    21520.477    6.4947711 
    2700    1111.5468    -8414.643   -8290.6483    -3540.132    21518.512     6.602742 
    2710    1109.7661    -8415.398   -8291.6019   -3472.2642    21513.122    6.7117289 
    2720    1082.0795   -8413.1764   -8292.4688   -3162.3792    21504.519    6.8225483 
    2730    1079.5973   -8413.6403   -8293.2096   -2953.3451    21493.174      6.93338 
    2740     1096.913   -8416.1888   -8293.8265   -3246.2516      21479.4    7.0369144 
    2750    1113.4059   -8418.6068   -8294.4047    -3098.027    21463.127    7.1263427 
    2760    1121.2284   -8420.0631   -8294.9884   -2936.1005    21444.602    7.2047323 
    2770    1144.6519   -8423.3097   -8295.6221   -3482.9519    21424.035    7.2802235 
    2780    1132.0728   -8422.5835   -8296.2991   -3384.2587     21401.13    7.3619432 
    2790    1119.8675   -8421.9094   -8296.9865   -2572.1775    21376.134    7.4551705 
    2800    1107.3424    -8421.153   -8297.6273   -1545.7166    21349.943    7.5613079 
    2810    1112.1402   -8422.2564   -8298.1955   -1198.6097    21323.551    7.6759658 
    2820    1117.8359   -8423.4044   -8298.7081   -1148.4236    21297.384    7.7895816 
    2830    1116.1287   -8423.7119   -8299.2061   -1239.3338    21271.489    7.8929289 
    2840    1091.2529   -8421.4064   -8299.6755   -922.94321    21245.825    7.9840168 
    2850    1080.6018   -8420.6153   -8300.0725   -630.86171    21220.659    8.0663823 
    2860    1086.2505   -8421.5388    -8300.366   -887.64881    21196.206    8.1443211 
    2870    1085.2278   -8421.6419   -8300.5831   -990.86227    21172.222    8.2235208 
    2880    1078.9167   -8421.0648     -8300.71   -446.54367    21148.652    8.3095148 
    2890    1101.4639   -8423.6135   -8300.7436   -299.18231    21125.886    8.4043769 
    2900    1106.5905   -8424.1407   -8300.6989   -97.315663    21104.065    8.5026185 
    2910    1105.6369   -8423.9228   -8300.5873    7.5729634    21083.319    8.5932599 
    2920    1130.7465   -8426.5628   -8300.4263   -219.01566    21063.666    8.6769914 
    2930    1159.8332   -8429.6694   -8300.2883   -701.40789    21044.775    8.7603033 
    2940    1133.2016   -8426.6065   -8300.1962     255.7092    21026.338    8.8473598 
    2950    1117.1246   -8424.7259    -8300.109     1003.152    21009.086    8.9398546 
    2960    1137.5035   -8426.9069   -8300.0167    1046.6844    20993.633    9.0350455 
    2970    1131.6333   -8426.1892   -8299.9538    1115.3906    20979.967    9.1300267 
    2980    1122.7829   -8425.1543   -8299.9062    1189.5951    20968.063    9.2219095 
    2990    1170.5046   -8430.4631   -8299.8916    288.82286    20957.785     9.307523 
    3000    1173.9591   -8430.9312   -8299.9743   -28.586181    20948.324    9.3837339 
    3010    1139.1235   -8427.2308   -8300.1598    1042.6194    20939.412     9.447811 
    3020    1168.3819   -8430.7436   -8300.4088    1342.6687    20931.827    9.5069952 
    3030    1202.9321   -8434.9686   -8300.7797    1523.5565    20925.865    9.5756472 
    3040    1181.0672   -8433.0726   -8301.3228    2111.3412     20921.65    9.6641862 
    3050    1171.1641   -8432.6584   -8302.0133    2111.0853    20919.582    9.7708817 
    3060    1147.0079   -8430.7499   -8302.7994    1965.2268    20919.615    9.8846008 
    3070    1116.6885   -8428.1566   -8303.5883    2077.7628    20921.555    10.000841 
    3080    1154.6181   -8433.1746   -8304.3752    1295.8778    20925.307    10.121169 
    3090     1169.846   -8435.7372   -8305.2391    1551.4656    20930.243    10.246728 
    3100    1135.1067   -8432.8052   -8306.1823    2972.5209    20936.595    10.382166 
    3110    1168.0358   -8437.4787   -8307.1825    3041.4261     20945.42    10.533666 
    3120    1200.4443   -8442.2011   -8308.2898    2668.6409    20956.789     10.69826 
    3130    1176.4806    -8440.748   -8309.5098    2556.1419    20970.299    10.871217 
    3140    1152.2395    -8439.314     -8310.78    2280.7021    20985.696    11.048075 
    3150    1133.4554   -8438.4445   -8312.0059    1944.3061     21002.69    11.222681 
    3160    1174.9967   -8444.2832   -8313.2106    416.44079    21020.754    11.394175 
    3170    1186.9866   -8446.8581    -8314.448   -1008.0293    21038.454    11.570495 
    3180    1154.4397   -8444.4725    -8315.693   -1467.7994    21054.509    11.756191 
    3190    1138.7236   -8443.9032   -8316.8769   -2300.4029    21068.402    11.945766 
    3200    1114.6328   -8442.2942   -8317.9553   -3062.8531    21079.469    12.132113 
    3210    1099.9394   -8441.6097   -8318.9098   -3268.8682    21087.117    12.309643 
    3220    1107.7146   -8443.3292    -8319.762   -2847.0873    21091.299    12.474504 
    3230    1114.1063   -8444.7981   -8320.5179   -2289.7091     21092.55    12.627473 
    3240    1123.5799   -8446.5592   -8321.2221   -1880.2307    21091.518    12.769679 
    3250    1110.8177   -8445.8073   -8321.8939   -1260.8489    21088.749    12.901569 
    3260    1102.6119   -8445.5152   -8322.5172   -1193.2504    21084.837    13.029074 
    3270    1136.3276   -8449.8811   -8323.1221   -1929.7385    21079.878    13.157567 
    3280    1151.4061   -8452.1908   -8323.7497   -2350.5057    21073.327    13.283992 
    3290    1163.0485   -8454.1879   -8324.4481    -2792.513    21064.787    13.401859 
    3300    1148.0106   -8453.2625   -8325.2002   -2132.1502    21054.053    13.508573 
    3310    1151.4943   -8454.4157   -8325.9648   -1113.1253    21041.794    13.607659 
    3320    1171.0601   -8457.4265   -8326.7929    45.373263    21029.056    13.709751 
    3330     1146.288   -8455.5458   -8327.6757    1197.9621    21016.975    13.820947 
    3340    1169.0577   -8459.0165   -8328.6063    855.44907    21006.482     13.93694 
    3350     1182.694   -8461.5447   -8329.6134    303.18562    20997.268    14.060945 
    3360    1148.9378   -8458.8225   -8330.6567    745.40318    20988.879    14.200478 
    3370    1156.1931   -8460.6712   -8331.6961     480.4739    20981.516    14.355294 
    3380    1144.8583   -8460.4321   -8332.7215    632.69604    20974.994     14.51465 
    3390    1129.3529   -8459.6909   -8333.7099    480.62068    20969.354    14.666461 
    3400    1129.4915   -8460.6452   -8334.6488   -370.14224    20964.376    14.807171 
    3410    1127.3034   -8461.2686   -8335.5162   -569.25872    20959.315    14.938589 
    3420    1110.5438   -8460.1701   -8336.2873    61.812528    20953.993    15.066207 
    3430    1107.2243   -8460.4618   -8336.9493    644.09126    20948.941    15.192531 
    3440     1125.922     -8463.14   -8337.5417    1163.5214    20944.737    15.318533 
    3450    1151.0353   -8466.5408   -8338.1411    944.07248    20941.768    15.441445 
    3460    1151.9058   -8467.3004   -8338.8036    828.14286    20939.835    15.555368 
    3470    1128.9334   -8465.4299   -8339.4957    1303.9714    20938.849    15.657963 
    3480    1149.1205   -8468.3911    -8340.205    883.13108    20939.071     15.74886 
    3490    1159.3612   -8470.2765    -8340.948    842.48047    20940.177      15.8372 
    3500    1144.9638   -8469.4549   -8341.7325    1246.0447    20942.094    15.938253 
    3510    1153.4791   -8471.2371   -8342.5648    772.52114    20945.083     16.05691 
    3520    1144.7647   -8471.1386   -8343.4384   -589.99092    20948.615    16.189909 
    3530    1116.0325   -8468.7926   -8344.2975   -1685.1928    20951.465    16.323585 
    3540    1096.3932    -8467.385   -8345.0807    -2167.554    20952.642    16.448335 
    3550    1081.3833   -8466.3737   -8345.7437   -1781.4439    20951.777    16.566127 
    3560    1088.7039   -8467.7128   -8346.2663   -1347.6771    20949.243    16.682613 
    3570    1116.0973   -8471.1954   -8346.6931   -1364.5019    20945.459    16.804014 
    3580    1135.8372   -8473.7905   -8347.0862   -958.92212     20940.55    16.931674 
    3590    1143.5467   -8475.0718   -8347.5075   -222.04715    20934.923    17.059636 
    3600    1140.9506   -8475.2531   -8347.9783     806.5778    20929.325    17.181453 
    3610    1159.9902   -8477.9145   -8348.5158     1017.625    20924.633    17.297275 
    3620    1166.4996   -8479.2522   -8349.1274    553.40795    20921.039    17.409729 
    3630    1150.4351   -8478.1463   -8349.8135   -65.307772    20918.099    17.521114 
    3640    1123.4631   -8475.8462   -8350.5222   -431.64511    20915.238    17.639257 
    3650    1131.1469   -8477.4129   -8351.2318   -681.97832    20912.073    17.768575 
    3660    1127.9579   -8477.7521   -8351.9267   -361.62755    20908.431    17.908191 
    3670    1109.7647   -8476.3838   -8352.5879    159.46261    20904.586    18.057157 
    3680    1093.5376   -8475.1543   -8353.1685    671.98604    20901.068    18.213342 
    3690    1130.2918    -8479.775   -8353.6893    172.26351    20898.223    18.369733 
    3700    1137.1895   -8481.0423   -8354.1871    100.62315    20895.691    18.519827 
    3710    1138.3122   -8481.6672   -8354.6868    207.76862    20893.349     18.66607 
    3720    1143.1755   -8482.7395   -8355.2165    746.45681    20891.328    18.813715 
    3730    1114.2718   -8480.0482   -8355.7495    1586.0146    20890.115    18.964935 
    3740    1113.9844   -8480.5222   -8356.2556    1642.8241    20890.381    19.120598 
    3750    1137.8231   -8483.6731   -8356.7472     1078.362    20892.165    19.279853 
    3760    1132.1433   -8483.5451   -8357.2528     664.7518    20894.947    19.439511 
    3770    1121.3099   -8482.8344   -8357.7506    155.55066     20898.26    19.596483 
    3780    1143.6486   -8485.8241   -8358.2484    519.98092    20901.717    19.754719 
    3790    1147.8242   -8486.8114   -8358.7698     971.0281    20905.571    19.918683 
    3800     1133.292   -8485.7589   -8359.3385    1027.7413    20910.201     20.08801 
    3810    1114.1925    -8484.204   -8359.9142    990.42451    20915.667    20.260316 
    3820    1137.6897    -8487.408    -8360.497    921.11079    20921.881    20.433501 
    3830    1111.1571   -8485.0331   -8361.0819    1532.6596    20928.845    20.612651 
    3840    1072.1944   -8481.2068   -8361.6019    1662.3473    20937.028    20.805624 
    3850    1091.9444   -8483.8046   -8361.9966    654.67063    20946.437    21.021847 
    3860    1114.7343   -8486.6408   -8362.2905   -562.59839    20956.135    21.260223 
    3870    1120.2277   -8487.4857   -8362.5227   -1477.5632    20965.003    21.502371 
    3880    1142.9821   -8490.2407   -8362.7393   -2245.8092    20972.148    21.732719 
    3890    1146.5154   -8490.8688   -8362.9733   -2378.2219    20976.952    21.951195 
    3900    1171.3298   -8493.9447   -8363.2811   -2851.1924     20979.23    22.156863 
    3910    1146.3051   -8491.5424   -8363.6703   -2132.7009    20978.796    22.348363 
    3920     1108.962   -8487.8185   -8364.1121   -1419.5047    20976.335    22.532368 
    3930    1119.0062   -8489.3892   -8364.5624    -2026.619    20972.479    22.715447 
    3940    1117.8197   -8489.7044   -8365.0099   -2756.2844    20966.804    22.895708 
    3950    1076.8498    -8485.548   -8365.4238    -2261.702    20958.798    23.069128 
    3960    1065.9297   -8484.6598   -8365.7538   -1368.3635    20948.946    23.237131 
    3970     1107.323   -8489.5194   -8365.9959   -1101.0906    20938.065    23.401274 
    3980    1135.4277   -8492.8765   -8366.2178   -208.54258    20926.575    23.560849 
    3990    1130.9186   -8492.6044   -8366.4487     1263.116    20915.361    23.718912 
    4000     1132.014   -8492.9608    -8366.683     1922.539    20905.676    23.879428 
    4010    1134.7171   -8493.5313   -8366.9519    2177.6321    20898.166    24.043204 
    4020    1121.5145   -8492.3868   -8367.2802    2545.6219    20893.033    24.211338 
    4030    1115.0475   -8492.0453   -8367.6601    3585.1055    20890.592    24.377706 
    4040     1108.136   -8491.7197   -8368.1054      3986.11    20891.614    24.536434 
    4050     1104.534   -8491.8621   -8368.6496    3602.2989    20896.365    24.701591 
    4060    1108.4548   -8492.9578    -8369.308    2347.3584     20904.32    24.892267 
    4070    1088.2133   -8491.4764   -8370.0845    948.87508    20914.215    25.105336 
    4080    1062.4776   -8489.4318   -8370.9108    -211.3036    20924.691    25.330032 
    4090    1106.7077   -8495.2346   -8371.7797   -1849.4192    20934.537    25.559039 
    4100    1116.6522   -8497.3087   -8372.7444   -2307.7232    20942.369    25.784226 
    4110    1091.9544   -8495.5628   -8373.7536   -1952.8702    20947.792    25.997247 
    4120    1098.2079   -8497.2454   -8374.7387   -2546.8396    20951.054    26.186023 
    4130    1083.0137   -8496.4663   -8375.6544   -2886.5022    20951.791    26.336141 
    4140    1082.6253   -8497.2384   -8376.4699   -3241.8551    20949.715    26.446935 
    4150    1106.0851   -8500.5928   -8377.2073   -3149.3523    20944.624    26.527812 
    4160    1079.7662   -8498.3024   -8377.8529   -2087.3175     20936.78    26.590503 
    4170    1060.2251   -8496.6399   -8378.3702   -1088.4288    20927.208    26.644533 
    4180    1064.5597   -8497.4829   -8378.7296   -410.52129    20916.894    26.699118 
    4190      1092.74    -8500.856   -8378.9592   -34.355495    20906.497    26.755052 
    4200    1123.6028   -8504.4585   -8379.1189    555.93209    20896.439    26.809296 
    4210    1108.4247   -8502.9104    -8379.264    1858.5044    20887.326    26.863952 
    4220    1066.0144   -8498.2612   -8379.3456    2596.7436    20880.259    26.922998 
    4230    1100.1758   -8502.0767   -8379.3504    1694.5327    20875.751     26.98927 
    4240    1088.8791   -8500.7341    -8379.268    882.57169    20873.019    27.066785 
    4250    1077.5885   -8499.3155   -8379.1089    563.11166    20871.243    27.156909 
    4260    1085.0338   -8499.8885   -8378.8514    579.31347    20870.087    27.254715 
    4270    1061.1998    -8496.859   -8378.4805    336.90297    20869.519    27.349699 
    4280    1068.9159     -8497.22   -8377.9808   -248.13172    20869.279    27.435526 
    4290    1101.7305   -8500.2392   -8377.3395   -1106.4425     20868.78    27.507827 
    4300    1104.1793   -8499.7811   -8376.6083   -867.84586    20867.343    27.566705 
    4310    1062.2576    -8494.317   -8375.8206    417.51326    20865.203    27.620215 
    4320     1063.665   -8493.6005   -8374.9471    1310.8597    20863.495    27.685765 
    4330     1083.308   -8494.7968   -8373.9522      1471.31     20863.06     27.77428 
    4340    1126.4474   -8498.5828   -8372.9259    1255.0186    20864.025     27.88685 
    4350    1125.2039   -8497.4826   -8371.9644    1732.3512    20866.222    28.013463 
    4360    1118.5954   -8495.9256   -8371.1446    2969.7659    20870.114    28.139928 
    4370    1130.8235   -8496.5881    -8370.443    2965.2659     20876.64    28.269925 
    4380     1149.887   -8498.1432   -8369.8716    2251.3135    20885.791    28.412233 
    4390    1155.0196   -8498.2876   -8369.4434    1907.9282    20896.927    28.560297 
    4400    1149.7802   -8497.4148   -8369.1551     1752.285    20909.648    28.701915 
    4410    1147.1031   -8496.9357   -8368.9746    2057.5037    20923.815    28.831526 
    4420      1153.34   -8497.5315   -8368.8747     2521.034    20939.683    28.959096 
    4430    1199.7588    -8502.709   -8368.8741    2192.8102     20957.59    29.103619 
    4440    1213.8844    -8504.444   -8369.0333    1757.1547    20977.227    29.271141 
    4450    1167.5141   -8499.5957   -8369.3577    2297.9861    20998.239    29.456935 
    4460    1148.2699    -8497.852   -8369.7608    2060.5551    21020.943    29.651379 
    4470    1163.3319   -8499.9654    -8370.194    1121.5181    21045.112    29.849511 
    4480    1151.5801   -8499.1306   -8370.6701    583.58152    21069.901    30.049866 
    4490    1150.5079   -8499.5128   -8371.1719   -501.50375    21094.663    30.244089 
    4500    1172.4419    -8502.511   -8371.7233   -1750.6013    21118.373    30.420547 
    4510    1137.3595   -8499.1902   -8372.3161   -2094.1091    21139.924    30.576055 
    4520    1113.8007   -8497.1493   -8372.9031   -2112.9486    21158.964    30.721754 
    4530    1093.9611   -8495.4561   -8373.4231   -1933.7832    21175.524    30.869027 
    4540    1123.9681   -8499.2526   -8373.8722   -2261.8063    21189.758    31.021442 
    4550    1166.0548   -8504.4005   -8374.3254   -2978.8358    21201.398    31.180645 
    4560     1143.863   -8502.4147   -8374.8151   -2819.8776    21209.921    31.348714 
    4570    1152.7714   -8503.9261   -8375.3327   -2546.3333    21215.457     31.52116 
    4580    1179.6581   -8507.4859   -8375.8933     -2525.94    21218.308    31.687469 
    4590    1175.1038   -8507.6401   -8376.5555   -2138.4393    21218.615     31.84119 
    4600    1148.2629   -8505.3694    -8377.279   -1544.3531    21216.815    31.978514 
    4610     1139.424   -8505.1137   -8378.0092   -924.75639     21213.54    32.096699 
    4620    1148.8692   -8506.8836   -8378.7255   -784.90499    21209.385    32.198471 
    4630    1180.5721   -8511.1599   -8379.4653   -1679.2752     21204.44    32.292989 
    4640    1183.1151   -8512.2565   -8380.2782   -1588.8287    21198.034    32.384186 
    4650    1131.7736   -8507.3425   -8381.0915   -477.93102    21190.289      32.4758 
    4660    1121.8064   -8506.9525   -8381.8133   -178.37607    21182.176     32.57906 
    4670    1147.3911   -8510.4444   -8382.4511   -809.65098    21173.984    32.698288 
    4680     1149.243   -8511.2476   -8383.0478   -677.20933    21165.263    32.831674 
    4690    1163.9059   -8513.4628   -8383.6274    391.24573    21156.173    32.978176 
    4700    1163.2642   -8513.9706   -8384.2067    1405.3295    21147.679    33.136571 
    4710    1116.3193   -8509.2767   -8384.7496    2288.1525    21140.794    33.299114 
    4720    1100.6121   -8507.9646   -8385.1896    2459.5056    21136.249    33.449163 
    4730    1150.0654   -8513.8514   -8385.5599    2549.2211    21134.217    33.578471 
    4740    1174.3009   -8516.9471   -8385.9521    3297.2658    21134.819    33.698327 
    4750    1156.9566    -8515.454   -8386.3937    3590.9165     21138.65    33.824483 
    4760    1192.5838   -8519.9237   -8386.8892    1740.8135     21145.73     33.96417 
    4770    1202.6666   -8521.6542   -8387.4949    880.42605    21154.473    34.113294 
    4780    1148.6973   -8516.3124   -8388.1735    1547.6031    21164.044     34.27226 
    4790    1143.2641   -8516.3846   -8388.8518     1406.193     21174.86    34.448243 
    4800      1131.23   -8515.6962   -8389.5058    797.30688    21186.797    34.638056 
    4810    1106.8049   -8513.5657   -8390.0999    -108.3348    21199.248    34.836301 
    4820    1118.4638   -8515.3869   -8390.6206   -1349.4757    21211.274    35.035896 
    4830    1120.2809   -8516.0343   -8391.0653   -1894.8982    21221.767    35.228473 
    4840    1147.8583   -8519.5336   -8391.4883   -2193.3105    21230.168    35.405869 
    4850    1122.9547   -8517.1746   -8391.9073   -1714.2042     21236.29    35.559776 
    4860    1105.3703   -8515.5821   -8392.2764    -1357.281      21240.6    35.693351 
    4870    1159.0855   -8521.9381   -8392.6404   -2448.9708    21243.322    35.815592 
    4880     1107.057   -8516.4984   -8393.0046   -2335.2634    21243.672    35.930532 
    4890     1087.045   -8514.5905    -8393.329   -2847.9707    21241.607     36.04502 
    4900    1108.8655   -8517.2764   -8393.5807    -3887.833    21236.703    36.156738 
    4910    1103.9328   -8516.9403   -8393.7949    -3612.402    21228.164    36.257046 
    4920    1113.9284   -8518.2306   -8393.9702   -3057.1596     21216.24    36.337854 
    4930    1153.1227   -8522.7684   -8394.1359    -2768.375    21201.507    36.389392 
    4940    1172.6576   -8525.1563   -8394.3446   -1952.3715    21184.388    36.413152 
    4950    1166.7009    -8524.793   -8394.6458   -375.49969    21165.765    36.430728 
    4960    1114.0118   -8519.2591   -8394.9894    2182.1857     21147.28    36.465796 
    4970    1090.6317   -8516.9496    -8395.288    3812.2358    21131.298    36.521939 
    4980    1118.1046   -8520.2816   -8395.5554    3259.2779    21119.222    36.597037 
    4990    1128.2953   -8521.6923   -8395.8292     2552.352    21110.616    36.692953 
    5000    1143.8497   -8523.7392    -8396.141    2024.4304    21104.693    36.804276 
Loop time of 2196.18 on 16 procs for 3000 steps with 864 atoms

Performance: 0.118 ns/day, 203.350 hours/ns, 1.366 timesteps/s
96.6% CPU use with 16 MPI tasks x 1 OpenMP threads

MPI task timing breakdown:
Section |  min time  |  avg time  |  max time  |%varavg| %total
---------------------------------------------------------------
Pair    | 808.05     | 1388.2     | 2176.3     |1006.2 | 63.21
Bond    | 0.00024033 | 0.00063358 | 0.0013192  |   0.0 |  0.00
Neigh   | 0.029724   | 0.0467     | 0.089556   |   9.1 |  0.00
Comm    | 11.973     | 491.85     | 1126.3     |1426.9 | 22.40
Output  | 0.21102    | 0.21576    | 0.28428    |   3.8 |  0.01
Modify  | 7.5368     | 315.85     | 711.75     |1422.6 | 14.38
Other   |            | 0.01566    |            |       |  0.00

Nlocal:        54.0000 ave          96 max          36 min
Histogram: 7 1 1 1 3 1 0 0 0 2
Nghost:        482.250 ave         668 max         342 min
Histogram: 4 2 0 1 2 3 0 2 0 2
Neighs:         0.00000 ave           0 max           0 min
Histogram: 16 0 0 0 0 0 0 0 0 0
FullNghs:      2453.00 ave        6304 max        1029 min
Histogram: 8 0 2 2 2 0 0 0 0 2

Total # of neighbors = 39248
Ave neighs/atom = 45.425926
Ave special neighs/atom = 0.0000000
Neighbor list builds = 300
Dangerous builds = 300
Setting up Verlet run ...
  Unit style    : metal
  Current step  : 5000
  Time step     : 0.001
Per MPI rank memory allocation (min/avg/max) = 8.899 | 8.909 | 8.922 Mbytes
Step Temp PotEng TotEng Press Volume c_msd[4] 
    5000    1143.8497   -8523.7392    -8396.141    2024.4304    21104.693    36.804276 
    5010    1150.0983   -8524.4602    -8396.165    1538.2116    21105.626    36.854448 
    5020    1145.8608   -8524.0764   -8396.2539    978.31068      21108.1    36.898875 
    5030    1120.6854   -8521.3894   -8396.3752   -182.06046      21111.5    36.941114 
    5040     1120.021   -8521.4377   -8396.4976   -1426.0707    21114.716    36.982551 
    5050    1147.6913   -8524.6563   -8396.6296   -1970.1309    21116.581    37.011022 
    5060     1145.236   -8524.5716   -8396.8188   -678.29517    21116.662    37.023353 
    5070    1109.4075   -8520.7928   -8397.0368    409.71056    21116.045    37.038921 
    5080    1149.7848   -8525.5414   -8397.2812   -944.50766     21115.61    37.070851 
    5090    1158.8708   -8526.8674   -8397.5937   -2197.2909    21114.272    37.116795 
    5100    1142.5819   -8525.4778   -8398.0211    -2874.813    21110.788      37.1715 
    5110    1148.0342   -8526.6375   -8398.5726   -3504.1745    21104.422    37.224327 
    5120    1126.0566   -8524.8365   -8399.2232   -2830.0383    21094.699    37.262969 
    5130    1121.9622   -8525.0895    -8399.933   -1920.8446    21082.157     37.28261 
    5140    1136.4225   -8527.4901   -8400.7205   -1228.4597    21067.648    37.287675 
    5150    1119.2461   -8526.4519   -8401.5983   -663.12981    21051.871    37.284153 
    5160    1108.8467    -8526.241   -8402.5475   -415.74365    21035.403     37.28143 
    5170    1108.3919   -8527.1828     -8403.54   -537.68792    21018.466    37.297479 
    5180    1098.4402   -8527.0593   -8404.5267   -83.773483    21001.031    37.341028 
    5190    1112.7245   -8529.6089   -8405.4828    486.68535    20983.492    37.413021 
    5200    1118.9164   -8531.2114   -8406.3946    1008.1049    20966.412    37.501911 
    5210    1109.4522    -8530.978   -8407.2169     829.1837    20950.253    37.597781 
    5220     1137.255   -8534.8315    -8407.969    -53.22034    20934.862    37.698263 
    5230    1147.7887   -8536.7327   -8408.6952   -350.92962     20919.48     37.79673 
    5240    1131.2876   -8535.5937   -8409.3969    621.07769    20903.871    37.881647 
    5250    1105.2341    -8533.293   -8410.0025    1859.0409    20888.922    37.950547 
    5260    1105.5109   -8533.8091   -8410.4877    1827.3991    20875.694    38.016494 
    5270    1125.0015   -8536.3726    -8410.877    633.33235    20864.161    38.088319 
    5280    1159.3796   -8540.5507   -8411.2201   -748.80033     20853.26    38.168778 
    5290    1193.0554    -8544.686   -8411.5989   -1568.7167    20841.709    38.257037 
    5300    1176.3256   -8543.2634   -8412.0425   -2065.8888    20828.682    38.349462 
    5310    1176.3654   -8543.7794   -8412.5541   -2851.8042    20813.653    38.440504 
    5320    1152.6094   -8541.6903    -8413.115   -3083.4692    20795.952    38.524991 
    5330    1096.6461   -8535.9563   -8413.6238   -1809.8937    20775.465    38.596218 
    5340    1090.6535   -8535.6648   -8414.0008   -335.31575    20753.326    38.647089 
    5350    1097.5854   -8536.6797   -8414.2424    641.09499    20730.889    38.674591 
    5360    1099.7637   -8537.0431   -8414.3628    1418.9636    20709.145    38.685296 
    5370     1132.755    -8540.791   -8414.4305    2100.4584    20688.853    38.695778 
    5380    1104.7086   -8537.7098   -8414.4779    3225.9623    20670.699    38.725174 
    5390    1073.2048   -8534.1942   -8414.4766    4210.7433    20655.695    38.783216 
    5400     1118.792   -8539.2024   -8414.3995    4268.2893    20644.692    38.872637 
    5410    1174.3951   -8545.3238   -8414.3183    3679.0182    20637.745    38.988633 
    5420    1162.8512   -8544.0659   -8414.3481     3825.511    20634.409    39.121111 
    5430    1113.6063   -8538.6794    -8414.455    4028.6383    20634.727    39.278187 
    5440    1150.6841   -8542.9458   -8414.5852    3049.0317    20638.758    39.471717 
    5450     1162.317   -8544.4271   -8414.7689     2615.463    20645.737    39.700358 
    5460    1102.9187   -8538.0307   -8414.9985    2992.2938    20655.258    39.953598 
    5470    1122.0254   -8540.3774   -8415.2138    1894.5015    20667.447    40.226336 
    5480    1160.1055    -8544.822   -8415.4105    75.950273    20681.325    40.517313 
    5490    1147.1546   -8543.6265   -8415.6597   -1503.5073    20695.218    40.820148 
    5500    1119.7819   -8540.8424   -8415.9291   -2545.7512    20707.666     41.11723 
    5510    1157.3617   -8545.3467   -8416.2413   -2753.6201    20717.683    41.391188 
    5520    1111.7904   -8540.6232   -8416.6013   -1255.5247    20725.174    41.632928 
    5530     1106.736   -8540.4303   -8416.9722   -941.27423    20731.335     41.85045 
    5540    1139.7532   -8544.5032    -8417.362   -1913.9183     20736.43    42.058697 
    5550    1096.0874   -8540.0456   -8417.7754   -1912.8332    20739.755    42.262175 
    5560     1101.951   -8541.1135   -8418.1892   -2409.1828    20741.168    42.458172 
    5570       1141.6   -8545.9521   -8418.6049   -2570.2686    20740.306    42.644009 
    5580    1152.0926   -8547.6179   -8419.1002   -2414.6291    20737.002    42.815661 
    5590     1129.732   -8545.7192   -8419.6959   -2146.9692    20731.424    42.969317 
    5600    1118.5357   -8545.1557   -8420.3813   -1893.1433    20723.846    43.106795 
    5610    1102.0107   -8544.0479    -8421.117   -1404.6496    20714.545    43.240225 
    5620    1109.4691    -8545.633     -8421.87   -902.37486    20703.986    43.378011 
    5630    1132.8309   -8549.0437   -8422.6747   -562.21688    20692.629    43.511031 
    5640    1107.1905   -8547.0218    -8423.513   -52.160216    20680.851    43.611808 
    5650    1120.7998   -8549.4171   -8424.3902    65.041193    20669.065    43.670229 
    5660      1109.88   -8549.0903   -8425.2815    874.09473    20657.508    43.706396 
    5670    1132.2952   -8552.4928   -8426.1836     859.5502    20646.804    43.742581 
    5680    1151.8343   -8555.6231   -8427.1342    512.23101     20636.99    43.792728 
    5690    1115.6778   -8552.5433   -8428.0878    1288.0993    20627.841    43.861188 
    5700    1096.8132   -8551.2863   -8428.9352    2071.8798    20619.997    43.942352 
    5710    1127.5745   -8555.4626     -8429.68    1529.0755    20614.043    44.018041 
    5720    1138.4537   -8557.3572   -8430.3609     837.3144    20609.558    44.084134 
    5730    1135.8056   -8557.6967   -8430.9958    -433.4291     20605.85    44.161407 
    5740    1129.8715   -8557.6111   -8431.5722   -1943.3174    20601.761    44.256028 
    5750    1120.1993   -8557.0279    -8432.068   -2588.8819    20595.937    44.355069 
    5760    1088.8801   -8553.9216   -8432.4553   -2227.1615    20587.798    44.448938 
    5770    1060.3018   -8550.9582     -8432.68   -1795.4547    20577.638    44.536846 
    5780    1097.1968     -8555.18    -8432.786   -1593.0831    20565.815    44.619797 
    5790    1071.4506   -8552.3205   -8432.7986   -461.01976    20552.655    44.705336 
    5800     1079.897   -8553.1865   -8432.7224   -226.80076    20539.063    44.790608 
    5810    1132.8471   -8558.9618    -8432.591   -258.59588    20525.342    44.864661 
    5820    1112.3082   -8556.5492   -8432.4696    1178.3592     20511.61     44.93291 
    5830    1094.4046   -8554.4291   -8432.3466    2735.6064    20499.079    45.012406 
    5840    1105.2433   -8555.4588   -8432.1673    3561.2905    20489.147    45.122485 
    5850    1128.6024   -8557.8525   -8431.9552    3756.5259    20482.582    45.277642 
    5860    1133.3208   -8558.1878   -8431.7642    3574.0044    20479.566     45.47583 
    5870    1132.6434   -8557.9719   -8431.6239    3215.4086    20479.899    45.699434 
    5880    1118.7049   -8556.3096   -8431.5164    2987.7489    20483.243    45.934138 
    5890    1086.8278   -8552.6127   -8431.3754    2744.3391    20489.343    46.167637 
    5900    1108.9298   -8554.8519   -8431.1491     1806.115    20497.887    46.385185 
    5910    1145.0025   -8558.5966   -8430.8699    442.49066    20507.986    46.588637 
    5920    1092.3056   -8552.4337   -8430.5854    520.28841    20518.525    46.787737 
    5930     1076.238      -8550.3    -8430.244     145.7815    20529.372    46.986497 
    5940    1153.6392   -8558.4886   -8429.7984   -1658.9115    20540.101    47.178907 
    5950     1189.123    -8562.011   -8429.3626   -2757.9484    20549.219    47.354027 
    5960    1175.9026   -8560.2395   -8429.0658   -2745.9092    20555.726    47.516991 
    5970    1179.2315   -8560.4759   -8428.9309   -2605.3219    20559.568     47.68493 
    5980    1172.9662   -8559.7816   -8428.9355    -2076.491    20560.959    47.874867 
    5990    1177.8404    -8560.462   -8429.0722   -1567.1987      20560.4    48.090888 
    6000     1158.285   -8558.5371   -8429.3287   -872.36546    20558.412     48.31242 
    6010    1135.7802   -8556.3747   -8429.6767   -519.37215    20555.605     48.51923 
    6020    1155.2087   -8558.9702   -8430.1049   -447.47872    20552.347    48.712101 
    6030    1170.5432   -8561.2437   -8430.6678    2.1572978     20548.76    48.900899 
    6040     1143.765   -8558.9647    -8431.376    467.92638    20545.246     49.09929 
    6050    1143.9365   -8559.8141   -8432.2063    978.38481    20542.243    49.321916 
    6060     1141.803   -8560.5116   -8433.1417    2271.2156    20540.284    49.573968 
    6070    1132.1583   -8560.4708   -8434.1769    3634.7351    20540.504     49.85557 
    6080    1139.5603    -8562.414   -8435.2943    3935.9277    20544.062    50.163448 
    6090    1182.3212   -8568.4041   -8436.5144    2299.8513    20551.069    50.502471 
    6100     1194.548   -8571.1093   -8437.8557    802.64993    20560.124    50.880934 
    6110    1143.3771   -8566.7348   -8439.1893    758.30973    20569.912    51.294659 
    6120    1107.5145   -8563.8603   -8440.3154    371.82026    20580.175     51.72403 
    6130    1130.5627   -8567.3068   -8441.1908   -356.86878    20590.554    52.147601 
    6140    1160.4461   -8571.3438   -8441.8943   -914.81875    20600.405    52.554211 
    6150    1138.4302    -8569.463   -8442.4694   -578.33672    20609.265    52.927856 
    6160    1120.6134   -8567.9263   -8442.9202    297.46645    20617.433    53.261025 
    6170    1130.9759   -8569.4567   -8443.2947    338.00685    20625.608    53.568298 
    6180    1134.6645   -8570.2194   -8443.6458   -150.58169    20633.869    53.878055 
    6190    1158.6499   -8573.2528   -8444.0037   -1389.0027    20641.738    54.204051 
    6200    1168.8995   -8574.7974   -8444.4049   -2377.5175    20648.131    54.537409 
    6210    1136.5276   -8571.6436   -8444.8622   -1780.0268     20652.27    54.865221 
    6220     1119.535   -8570.2137   -8445.3279   -1292.8446    20654.611    55.183481 
    6230    1138.1138   -8572.7301   -8445.7718    -1394.339    20655.642    55.492099 
    6240    1148.2117   -8574.2913   -8446.2066    -1757.396    20655.322    55.798637 
    6250    1135.7181   -8573.3454   -8446.6543   -1770.9337     20653.39     56.10436 
    6260    1103.0251   -8570.1303   -8447.0862   -1350.4625    20649.903    56.400608 
    6270      1106.06   -8570.8434   -8447.4607   -1055.2561    20645.271     56.67886 
    6280    1133.5452   -8574.2157    -8447.767   -932.74765    20639.803    56.927335 
    6290    1162.7687   -8577.7907   -8448.0821   -991.02498    20633.634    57.144321 
    6300    1151.6142     -8576.94   -8448.4757   -1133.1662    20626.737    57.341029 
    6310    1082.5309   -8569.6581   -8448.9002   -408.15835    20619.111    57.527169 
    6320     1072.449   -8568.8802   -8449.2469   -194.18816    20611.322     57.71333 
    6330     1139.293   -8576.6085   -8449.5187   -1184.6293    20603.521    57.907572 
    6340     1145.454   -8577.5732   -8449.7961   -1340.5798    20594.981    58.103423 
    6350    1113.9606   -8574.3729   -8450.1089   -731.02961    20585.559    58.288092 
    6360    1135.6321    -8577.118   -8450.4366   -371.69385    20575.773    58.463325 
    6370     1156.546   -8579.8115   -8450.7971    353.94718    20566.024     58.63108 
    6380    1166.0609   -8581.3198   -8451.2439    1196.8161    20556.978    58.802262 
    6390     1172.517   -8582.6048   -8451.8088    1161.7021    20549.292    58.984734 
    6400    1148.8841    -8580.651   -8452.4913    1782.1583     20543.01    59.171484 
    6410    1116.3465   -8577.7385   -8453.2083    2379.7729    20538.602    59.361341 
    6420    1151.8733   -8582.4543   -8453.9611    1469.6744    20536.421    59.561929 
    6430    1155.3124   -8583.6608    -8454.784    939.56086     20535.74    59.769407 
    6440     1126.757   -8581.3187   -8455.6272    668.78396    20535.976    59.979395 
    6450    1134.9144    -8583.062   -8456.4606   -408.17524     20536.74    60.192024 
    6460    1113.4755   -8581.4443   -8457.2344   -1110.4091    20537.143    60.400214 
    6470    1108.5142   -8581.5833   -8457.9269   -1235.1639    20536.553    60.598746 
    6480    1129.7356   -8584.5648   -8458.5411   -1600.1047     20534.81    60.785382 
    6490     1126.585   -8584.7771   -8459.1049   -1444.2974     20531.66    60.953903 
    6500    1093.9373    -8581.607   -8459.5766   -433.58747     20527.34    61.094325 
    6510    1130.3533   -8586.0648   -8459.9722   -169.98442    20522.659    61.204135 
    6520    1157.2118   -8589.4457    -8460.357   -113.02022    20517.937     61.29908 
    6530    1135.6105   -8587.4404   -8460.7613   -393.39205    20513.211     61.40531 
    6540    1143.9389   -8588.7838   -8461.1756    -1081.209    20508.207    61.539325 
    6550    1143.4373   -8589.1414   -8461.5892   -1127.1525    20502.385    61.697064 
    6560    1149.1572    -8590.192   -8462.0018   -1175.5511    20495.643    61.871437 
    6570    1150.9251   -8590.8085   -8462.4211    -1019.354     20487.98    62.063371 
    6580    1149.4224   -8591.0708    -8462.851   -567.44562    20479.569     62.26397 
    6590     1163.921   -8593.1435   -8463.3064   -553.69436    20470.776    62.447947 
    6600    1147.8183   -8591.8259   -8463.7851   -378.63505    20461.682    62.603058 
    6610    1134.6018   -8590.8182   -8464.2516   -106.42342    20452.423    62.738733 
    6620    1123.0318   -8589.9583   -8464.6824    602.84787    20443.276    62.863178 
    6630    1111.9707   -8589.0979   -8465.0559    1635.4602    20434.905     62.98762 
    6640    1126.5839   -8591.0532   -8465.3811    1932.3296    20428.143    63.125483 
    6650    1128.9198   -8591.5971   -8465.6644    2161.1284    20423.304    63.283589 
    6660    1130.9025   -8592.0726   -8465.9187    1658.8837    20420.491    63.453407 
    6670    1140.9681   -8593.4303   -8466.1536    21.204167    20419.161    63.621199 
    6680    1148.7364   -8594.5427   -8466.3994    -1312.746    20417.912    63.775681 
    6690    1152.1719   -8595.2062   -8466.6797   -2269.8963    20415.485    63.904136 
    6700    1134.0909   -8593.5084   -8466.9989   -2230.5293    20411.087    64.001837 
    6710    1121.2599   -8592.4015   -8467.3233   -2238.8963    20404.703    64.072206 
    6720    1127.7665   -8593.4426   -8467.6386   -2722.5987    20396.309    64.103221 
    6730    1123.4353   -8593.2614   -8467.9405     -2012.93    20385.655    64.075123 
    6740    1138.5972   -8595.2502   -8468.2379   -1057.2889    20373.316    63.986828 
    6750    1138.9521   -8595.5908    -8468.539    293.45019    20360.197    63.853741 
    6760    1142.7233   -8596.3161   -8468.8436    1657.6397    20347.512    63.706914 
    6770    1178.1391   -8600.6127   -8469.1895    2269.5661    20336.448    63.577265 
    6780    1162.0612   -8599.2551   -8469.6255    3053.1143    20327.624    63.469923 
    6790    1120.3578   -8595.0649   -8470.0873    3795.1984    20321.713    63.380608 
    6800    1148.9393   -8598.7091   -8470.5432     3055.464    20319.222    63.301661 
    6810    1148.7358   -8599.1369   -8470.9937    2434.3322    20319.591    63.247044 
    6820    1162.5491   -8601.1671    -8471.483    1845.1962     20322.17    63.246054 
    6830    1166.7884   -8602.1858   -8472.0288    2169.4334    20326.515    63.305939 
    6840    1177.7672    -8604.029   -8472.6473    2448.3544    20332.807    63.415838 
    6850    1186.9748   -8605.7506   -8473.3417    2183.5295    20341.264    63.560876 
    6860    1170.3013   -8604.6401   -8474.0912    1162.4116    20351.581    63.720448 
    6870    1154.6162   -8603.6247   -8474.8256    14.230059     20362.89    63.884253 
    6880    1128.3958   -8601.3545   -8475.4803   -813.08131    20374.165    64.050923 
    6890    1116.0618    -8600.536   -8476.0376   -1144.3133     20384.65    64.226625 
    6900    1101.0996   -8599.3037   -8476.4743   -1318.0795    20394.046    64.417214 
    6910    1111.9274   -8600.8331    -8476.796   -2305.1227    20402.104    64.625868 
    6920    1122.6998   -8602.2765   -8477.0377   -3884.1399    20407.912     64.83895 
    6930    1109.5709   -8600.9931   -8477.2188   -5120.9966    20410.094    65.039379 
    6940    1148.5077   -8605.4961   -8477.3783   -6126.6147    20407.533    65.218133 
    6950    1178.4738   -8609.0355    -8477.575   -6303.2047      20399.4    65.375908 
    6960    1190.6394   -8610.7427   -8477.9251   -5793.4506    20385.532    65.517894 
    6970    1163.1833    -8608.145   -8478.3901   -4531.9746    20366.478     65.65364 
    6980    1159.2512   -8608.2273    -8478.911    -3267.272    20343.393    65.791658 
    6990    1146.2674   -8607.3143   -8479.4464   -1888.8879    20317.482    65.921358 
    7000    1104.6817   -8603.1308   -8479.9019   -124.98282    20290.118    66.030433 
    7010    1166.7107   -8610.4691   -8480.3208    52.253733    20262.755    66.127606 
    7020    1157.8053   -8609.9376   -8480.7826    1189.9763    20235.804    66.220692 
    7030     1121.028   -8606.3081   -8481.2558    2308.1078    20210.221     66.31029 
    7040    1128.8543   -8607.6312   -8481.7058    2440.2086    20186.949    66.401013 
    7050    1110.2766   -8605.9633   -8482.1103    2535.7896    20166.162    66.501724 
    7060    1131.9423    -8608.754   -8482.4842    2630.8599    20147.908    66.605292 
    7070    1153.6368   -8611.5358   -8482.8458    3264.1791    20132.274     66.70078 
    7080    1164.6916    -8613.181   -8483.2579    4178.8619    20119.786    66.788524 
    7090    1139.8318    -8610.877    -8483.727     5143.478     20111.22    66.879563 
    7100    1138.7385   -8611.2802   -8484.2522    5185.5329     20107.24    66.989088 
    7110    1113.2839   -8608.9662   -8484.7777    5359.7467    20107.973    67.129751 
    7120    1137.6585   -8612.2171   -8485.3096    4520.8259    20113.449    67.303832 
    7130    1151.2361   -8614.2767   -8485.8546    3252.8483    20122.927    67.498163 
    7140    1138.6932   -8613.4525   -8486.4296    1978.4588    20135.214    67.690227 
    7150    1109.3623   -8610.7389   -8486.9879    944.42732    20149.161    67.863019 
    7160    1105.2709   -8610.7694   -8487.4748    374.95454    20163.892    68.015493 
    7170    1158.4219   -8617.1554   -8487.9317   -579.41979    20178.799    68.151455 
    7180    1120.2719   -8613.3581   -8488.3901   -298.37468    20193.161    68.286284 
    7190    1080.1564   -8609.3095   -8488.8164    335.64159    20207.146    68.438491 
    7200    1073.3433   -8608.8706   -8489.1376    317.23185    20221.272    68.603721 
    7210    1085.4236   -8610.4175   -8489.3368   -359.46401    20235.522    68.764119 
    7220     1104.548     -8612.66   -8489.4461   -1083.3797    20249.338    68.897068 
    7230    1102.9784   -8612.5304   -8489.4915   -1626.9828    20262.069      68.9808 
    7240    1114.3234   -8613.8057   -8489.5013   -1822.1085    20273.214    69.017267 
    7250    1104.8368   -8612.7213   -8489.4751   -260.76379    20282.744    69.036268 
    7260    1116.4046   -8613.9529   -8489.4163    1304.8853    20291.946    69.075774 
    7270    1155.6378   -8618.2635   -8489.3504    1396.4345    20302.159    69.152479 
    7280    1158.0001   -8618.5156   -8489.3389    1186.0105    20313.563    69.262199 
    7290    1118.7002   -8614.1891   -8489.3965    1288.9829     20325.98    69.398252 
    7300    1106.4393   -8612.8905   -8489.4655    1344.6916    20339.491    69.558322 
    7310    1148.4393   -8617.6271    -8489.517    712.24186    20354.062    69.739031 
    7320    1170.4768   -8620.1602   -8489.5917    604.59988    20369.226    69.938056 
    7330    1137.9929   -8616.6742   -8489.7294     883.3065    20384.882    70.145001 
    7340    1158.7529   -8619.1974   -8489.9368   -128.06731    20401.103    70.346017 
    7350    1144.6193   -8617.9092   -8490.2252    -645.7175    20417.106    70.539968 
    7360    1105.8644   -8613.9552   -8490.5944   -227.65155    20432.445    70.737615 
    7370     1111.503   -8614.9902   -8491.0003   -553.46839    20447.395    70.943096 
    7380    1143.6383   -8619.0489   -8491.4744   -2141.4615     20461.58    71.148541 
    7390    1151.0153   -8620.4976   -8492.1001   -2617.7189    20473.755    71.341078 
    7400    1134.6554    -8619.523   -8492.9505   -2432.2142     20483.43    71.513757 
    7410    1104.2894   -8617.2106   -8494.0254   -2516.9572    20490.731    71.666946 
    7420     1104.724   -8618.5022   -8495.2686   -3345.4564    20495.553    71.796928 
    7430    1102.7223   -8619.6763    -8496.666   -3779.3131    20497.249    71.893943 
    7440    1062.1515   -8616.5417   -8498.0571   -3577.6551    20495.483    71.970302 
    7450    1077.4174   -8619.5185    -8499.331   -4200.7542    20490.305    72.043049 
    7460    1073.2838   -8620.1626   -8500.4361   -3842.4041    20481.345    72.116724 
    7470    1061.3058   -8619.7102   -8501.3199   -2888.4347    20468.962    72.204871 
    7480    1098.1111    -8624.491   -8501.9951   -2740.5508    20453.946    72.312326 
    7490    1126.8418   -8628.2501   -8502.5492   -1930.8158    20436.593     72.43208 
    7500    1094.6611   -8625.1117   -8503.0006   -348.23393    20417.716    72.561382 
    7510    1085.6785   -8624.4357   -8503.3266    191.65325     20398.65    72.693786 
    7520    1087.7139   -8624.8687   -8503.5325    324.84912     20379.98    72.824547 
    7530    1080.0692   -8624.1209   -8503.6376    64.181968    20361.816    72.951968 
    7540    1086.6408    -8624.878   -8503.6616    -1284.226     20343.79    73.069563 
    7550    1076.3097   -8623.6502   -8503.5863   -862.55381    20324.993    73.174891 
    7560    1083.8554   -8624.3257     -8503.42    -151.6177    20305.661     73.27861 
    7570    1084.9926     -8624.19   -8503.1574    227.14715     20286.42    73.380603 
    7580    1104.3291   -8626.0028   -8502.8132    648.41062    20267.665    73.474214 
    7590    1133.4529   -8628.8605   -8502.4222    1533.9359    20249.799    73.561505 
    7600    1154.5226   -8630.8271   -8502.0383    2537.1011    20233.577    73.640368 
    7610    1155.3385   -8630.6079   -8501.7282    3212.3876    20219.867     73.70944 
    7620    1117.3237   -8626.1204   -8501.4812     4366.414    20209.326    73.792897 
    7630    1123.6182   -8626.6069   -8501.2656    4853.8411    20202.829    73.903994 
    7640    1111.8345    -8625.084   -8501.0571    4805.7959    20200.788    74.024803 
    7650    1087.2339   -8622.1282   -8500.8457    5288.9793    20203.199    74.135217 
    7660    1093.8439   -8622.6138   -8500.5939    6312.2808    20210.432    74.230688 
    7670    1118.8278   -8625.1036   -8500.2967     6534.756    20223.236    74.324757 
    7680    1151.2536   -8628.4095   -8499.9854    5210.7957    20241.678    74.440892 
    7690    1138.6638   -8626.7136   -8499.6939    4587.4764     20264.71    74.588361 
    7700     1115.386   -8623.8545   -8499.4315    4647.3796    20291.712    74.761884 
    7710    1108.2403   -8622.7585   -8499.1326    3410.6189    20322.508    74.956031 
    7720    1140.2048   -8625.9452   -8498.7537    1154.0259    20355.931    75.153595 
    7730    1127.8053   -8624.1148   -8498.3064    201.59441    20390.066    75.333696 
    7740    1123.5066   -8623.1516   -8497.8228   -478.52645    20423.901    75.493487 
    7750     1143.579    -8624.847    -8497.279   -2170.5857     20456.64    75.647182 
    7760    1099.2743   -8619.3039   -8496.6782   -3104.1518    20486.893    75.799344 
    7770    1131.8101   -8622.2775   -8496.0224   -4686.3969     20513.67    75.948593 
    7780    1158.1918   -8624.4851   -8495.2871   -6134.2693     20535.63    76.094514 
    7790    1127.2895   -8620.3068   -8494.5559   -6370.3921    20551.582    76.228265 
    7800    1128.3872   -8619.6862   -8493.8129   -6620.6801    20561.273     76.32748 
    7810    1136.1316    -8619.753   -8493.0158   -6234.6232    20564.659    76.360027 
    7820    1127.3736    -8617.935   -8492.1748   -5090.7203    20562.199    76.318948 
    7830     1101.491   -8614.1298   -8491.2568   -3538.2513    20555.074    76.231926 
    7840    1149.1195   -8618.4126   -8490.2266   -3240.7739    20544.643    76.127104 
    7850    1176.3954    -8620.343   -8489.1143   -2343.1742    20531.442    76.007658 
    7860    1188.9191   -8620.6887    -8488.063    -1002.349     20516.34    75.854436 
    7870     1216.888   -8622.9089   -8487.1632   -595.97868    20500.485    75.657888 
    7880    1175.8178   -8617.6332    -8486.469   -85.021595      20484.4    75.430524 
    7890    1153.9906    -8614.673   -8485.9436    80.506281    20468.517    75.192401 
    7900     1162.922   -8615.2256   -8485.4999   -420.17231    20452.923    74.960946 
    7910    1151.1126   -8613.5424   -8485.1341    313.01587     20437.35    74.751389 
    7920    1175.5592   -8615.9817   -8484.8463    1105.9686    20422.368    74.578647 
    7930    1218.5692   -8620.6193   -8484.6861    710.33108    20408.579    74.444446 
    7940      1222.43   -8621.1149    -8484.751    400.68836    20395.705    74.325255 
    7950    1198.3708   -8618.7163   -8485.0362    562.45204    20383.475     74.20027 
    7960    1176.9447   -8616.7554   -8485.4654    602.62987    20371.985    74.064246 
    7970    1160.7264   -8615.4398   -8485.9591    -7.564872    20361.196     73.91673 
    7980      1175.23   -8617.5913   -8486.4926   -635.60205    20350.588    73.762819 
    7990    1206.1764   -8621.6415   -8487.0907   -231.85874    20339.664     73.61053 
    8000    1195.1709   -8621.0735   -8487.7504    1154.5688    20328.805    73.463498 
    8010    1205.4878   -8622.9214   -8488.4474    2089.6238     20319.13    73.336419 
    8020     1183.069   -8621.1106   -8489.1375    2921.3716    20311.536    73.244284 
    8030    1182.4572   -8621.6935   -8489.7886    2613.2531    20306.644      73.1885 
    8040    1169.4186   -8620.8496   -8490.3992    1987.4912    20304.212    73.165279 
    8050    1127.0982   -8616.6468   -8490.9173    1083.2263    20303.613    73.167378 
    8060    1142.3626   -8618.7782   -8491.3459   -741.74995    20303.944    73.181061 
    8070     1151.016   -8620.1261   -8491.7285   -1545.7606    20303.663    73.192607 
    8080    1144.8868   -8619.8104   -8492.0965   -219.48203    20302.165     73.20567 
    8090    1181.0362   -8624.2425   -8492.4961    220.56659      20300.4    73.230047 
    8100    1166.8491   -8623.1281   -8492.9643    48.101948    20298.827    73.256052 
    8110    1123.8561   -8618.8351   -8493.4673   -572.94935     20297.26    73.265998 
    8120    1106.0401   -8617.3101   -8493.9296   -1218.9294     20295.19     73.24834 
    8130    1122.9555   -8619.6111   -8494.3437   -1918.0945    20292.011    73.199223 
    8140    1134.9039   -8621.3356   -8494.7354   -2450.4431    20287.123    73.127142 
    8150    1160.1865   -8624.5869   -8495.1663   -3123.8541    20280.043    73.064353 
    8160    1131.5836   -8621.8753   -8495.6454   -2764.7695    20270.308    73.018028 
    8170    1123.5087   -8621.4619   -8496.1328   -2363.0832    20258.174    72.965016 
    8180    1159.1474    -8625.956   -8496.6513   -2528.0503    20243.967    72.883087 
    8190    1123.0467   -8622.4936   -8497.2161   -920.00584    20227.784    72.771719 
    8200    1085.7159   -8618.8523   -8497.7391    737.38248    20210.937    72.646179 
    8210    1133.7456   -8624.6934   -8498.2224    867.91243    20194.795    72.517932 
    8220    1140.9234   -8625.9838   -8498.7121     1238.228    20179.654    72.399942 
    8230     1127.726    -8625.015   -8499.2155      1423.13    20165.791    72.303384 
    8240    1139.5989   -8626.8494   -8499.7254    1078.2699    20153.332    72.217732 
    8250    1142.6831   -8627.7053   -8500.2373    850.75976     20141.97    72.123502 
    8260    1156.6859    -8629.819   -8500.7889    1354.9921    20131.566    72.029144 
    8270    1137.7282   -8628.3155   -8501.4002    2867.4221     20122.59    71.951929 
    8280    1120.8298   -8627.0402     -8502.01    4178.4473    20116.288    71.900614 
    8290    1152.6328   -8631.2175   -8502.6396    4125.0413    20113.706    71.881065 
    8300    1118.8936   -8628.1125   -8503.2982    4044.4819    20114.852    71.905714 
    8310     1090.112   -8625.5212   -8503.9175    3895.5094    20119.642     71.99081 
    8320    1121.2258   -8629.5593   -8504.4849    2488.2376    20127.781    72.147458 
    8330    1116.6308   -8629.5646   -8505.0028    1433.2028    20138.144    72.369398 
    8340    1136.1295   -8632.2314   -8505.4944   -466.11339     20149.64    72.627694 
    8350    1151.6595   -8634.4572   -8505.9878   -2408.3782    20160.617    72.881294 
    8360     1119.453   -8631.3635   -8506.4868   -3672.4322    20169.393    73.104963 
    8370    1105.0038   -8630.2262   -8506.9614   -4711.0681    20174.794    73.295335 
    8380    1086.8334   -8628.5931   -8507.3552    -4615.557    20176.001    73.451887 
    8390    1095.9879   -8629.9257   -8507.6666   -3795.9493    20173.088    73.561913 
    8400    1119.8674   -8632.8486   -8507.9257   -3244.3806    20166.736    73.631083 
    8410    1124.7234   -8633.6287   -8508.1641   -2792.6709    20157.534    73.679742 
    8420    1162.5091   -8638.1218   -8508.4422   -3311.0347      20145.8    73.723596 
    8430    1172.0894   -8639.5679   -8508.8195    -3446.021     20131.21    73.748808 
    8440    1155.8815   -8638.2379   -8509.2976   -2830.7584    20113.706    73.734006 
    8450    1167.4815   -8640.0944   -8509.8601   -1854.5123    20093.836    73.678363 
    8460    1130.1818    -8636.536   -8510.4625   -293.75674    20072.543    73.609776 
    8470    1118.5402   -8635.8307   -8511.0559     188.6771    20051.082    73.553656 
    8480    1139.1339   -8638.7243   -8511.6522    414.11161    20029.974    73.506145 
    8490    1127.2839   -8637.9918   -8512.2416    1399.7753    20009.507    73.463941 
    8500    1117.5995   -8637.4891   -8512.8192    2428.4622    19990.501    73.431144 
    8510     1102.707   -8636.3799   -8513.3713    2072.6245    19973.716    73.418348 
    8520    1115.5762   -8638.3309   -8513.8867    982.37173    19958.878    73.434551 
    8530     1103.828   -8637.4579   -8514.3243    1231.3274    19945.184    73.483087 
    8540    1116.0807   -8639.1794   -8514.6789    1580.4079    19932.721     73.56312 
    8550    1145.6375   -8642.7976        -8515    1408.2179    19921.762    73.669737 
    8560    1151.8789   -8643.8266   -8515.3328    1171.6707    19912.165     73.79483 
    8570    1162.9586   -8645.4502   -8515.7204    998.24009    19903.725    73.922418 
[...]
   22890    1136.2937   -8744.2773    -8617.522    1789.4995    19233.218    144.30906 
   22900    1152.1614    -8746.202   -8617.6767    1482.8777    19243.683    144.13978 
   22910    1137.2108   -8744.7253   -8617.8677    956.32975    19255.376     143.9594 
   22920    1162.0734   -8747.7452   -8618.1141    15.465706    19267.813    143.74485 
   22930    1166.0547   -8748.5228   -8618.4476   -171.55059    19280.307    143.48216 
   22940    1130.7875   -8745.0117   -8618.8707    270.35047    19292.688    143.20475 
   22950    1119.2822   -8744.2015   -8619.3439    255.95443    19305.241    142.94988 
   22960    1139.9944   -8747.0393   -8619.8712   -926.98226    19317.884    142.73514 
   22970    1153.6908   -8749.2098   -8620.5139   -2316.8455    19329.704     142.5433 
   22980    1118.1786   -8746.0079   -8621.2734   -2956.6343     19339.62    142.34099 
   22990    1127.6474   -8747.9043   -8622.1135   -3906.6857    19347.011    142.10686 
   23000    1133.9785   -8749.5262   -8623.0292   -4968.1563    19351.118    141.84776 
   23010    1131.8564   -8750.2675   -8624.0072   -5620.7734    19351.095    141.58424 
   23020    1120.6244    -8750.048   -8625.0407   -5260.5755    19346.455    141.30563 
   23030    1090.0211   -8747.5942   -8626.0007   -3784.3942    19337.571    140.96741 
   23040     1144.351   -8754.5666   -8626.9126   -3530.4061    19325.475    140.56228 
   23050    1114.6472   -8752.1182   -8627.7777   -3084.3469     19310.55     140.1391 
   23060    1067.9148   -8747.6378   -8628.5103    -3060.675    19293.137    139.75934 
   23070     1083.339   -8749.9235   -8629.0754   -3664.7196    19273.247    139.45654 
   23080    1112.1673   -8753.5703   -8629.5064   -2896.5049    19250.578    139.21109 
   23090    1139.8513   -8757.0266   -8629.8745    -984.1092    19225.767    138.97223 
   23100    1119.2915   -8755.0438   -8630.1851    1715.5918     19200.42    138.72925 
   23110    1102.4881   -8753.3928   -8630.4086    4084.4458    19176.685    138.51342 
   23120    1126.6036   -8756.2378   -8630.5635     4711.146     19156.37    138.36196 
   23130    1109.3884   -8754.4437   -8630.6897     4717.054    19140.052    138.30135 
   23140     1086.273   -8751.9511   -8630.7757    4711.7935    19127.731    138.33351 
   23150    1097.6681   -8753.2486   -8630.8021    4270.5662    19119.325    138.42355 
   23160    1101.1742   -8753.6062   -8630.7686    3907.7185    19114.476    138.53111 
   23170    1138.4299   -8757.7095    -8630.716    3685.4187    19112.865    138.65223 
   23180    1151.1402    -8759.081   -8630.6695    3237.5466    19114.234    138.80062 
   23190    1123.2822   -8755.9478    -8630.644      3159.67    19118.254    138.95166 
   23200    1100.0606   -8753.3322   -8630.6188    2871.8119    19124.816    139.07947 
   23210    1105.2494   -8753.8668   -8630.5745    2070.3713    19133.645    139.18179 
   23220    1099.6309   -8753.1612   -8630.4957    1342.0324    19144.112      139.273 
   23230    1078.7606   -8750.7005   -8630.3631    1240.4723    19155.667    139.36706 
   23240    1094.7314   -8752.2845   -8630.1656    1404.9581    19168.182    139.47586 
   23250    1097.5149   -8752.3308   -8629.9013    1616.5574     19181.77    139.62044 
   23260    1090.8944   -8751.2794   -8629.5885    1825.1424    19196.611    139.80268 
   23270    1106.7691   -8752.6839   -8629.2221    1115.1881    19212.792    140.01485 
   23280    1119.9232   -8753.7435   -8628.8144   -265.93453     19229.75    140.23279 
   23290    1121.8995   -8753.5396     -8628.39   -1421.3504    19246.426    140.42811 
   23300     1147.082    -8755.937   -8627.9783   -3050.9444    19261.761    140.59295 
   23310    1130.8326   -8753.7593   -8627.6133   -3358.3943    19274.591    140.72411 
   23320    1075.3568   -8747.2334   -8627.2757   -2375.8348    19284.677     140.8243 
   23330    1090.9836   -8748.5928    -8626.892   -2351.5622    19292.648    140.91869 
   23340    1113.4236   -8750.6369   -8626.4328   -2939.2311    19298.577    141.01962 
   23350    1115.6166   -8750.4139   -8625.9652   -3187.1744    19302.086    141.12492 
   23360    1129.4143   -8751.4954   -8625.5075   -3609.8938    19302.914    141.23256 
   23370    1136.5811   -8751.8659   -8625.0786    -3198.611    19300.802     141.3179 
   23380    1118.5484   -8749.4653   -8624.6895   -1619.7329    19296.146    141.36325 
   23390    1137.2309   -8751.1952   -8624.3354   -1351.5548    19290.046    141.37374 
   23400    1152.8494   -8752.6403   -8624.0382   -1786.1614    19282.802    141.35907 
   23410    1114.2923   -8748.1127   -8623.8117   -1224.0881    19274.171    141.33486 
   23420    1101.0245   -8746.4225   -8623.6016    165.12588    19264.625    141.32156 
   23430    1112.4491   -8747.4589   -8623.3635    1049.5924    19255.234    141.33893 
   23440    1137.0493   -8749.9739   -8623.1343     1634.569    19246.747    141.39304 
   23450    1119.5835   -8747.8156   -8622.9244    2853.8105    19239.708    141.48161 
   23460    1143.8286   -8750.3446   -8622.7488    3539.2124    19235.025    141.60113 
   23470     1168.683   -8752.9959   -8622.6275    3979.4791    19233.292    141.75116 
   23480    1163.6955   -8752.4117   -8622.5997    4481.6435     19234.86    141.93792 
   23490    1170.0164    -8753.185   -8622.6679    4380.9796     19240.09    142.17004 
   23500    1177.1183   -8754.1463   -8622.8369    3651.8883    19248.879    142.44906 
   23510    1136.4567   -8749.8463   -8623.0728    3309.6861    19260.706     142.7695 
   23520    1134.4634    -8749.873   -8623.3219    2209.9973    19275.182    143.12723 
   23530    1132.4469   -8749.8673   -8623.5411    1049.6509    19291.446    143.51401 
   23540    1119.6344   -8748.6259    -8623.729   -242.17792    19308.499    143.92001 
   23550    1131.5688   -8750.1008   -8623.8726   -1572.3156    19325.297    144.31975 
   23560    1141.6894   -8751.3501    -8623.993   -2966.1594    19340.722    144.68067 
   23570    1125.3942   -8749.6376   -8624.0981   -4406.1267    19353.601     144.9617 
   23580    1112.6797   -8748.3029   -8624.1818   -5080.0247    19362.817     145.1344 
   23590    1141.0218   -8751.5359   -8624.2532   -5389.3897    19367.779    145.21823 
   23600    1162.4915   -8754.0645   -8624.3869   -4973.3953     19368.24    145.24179 
   23610    1105.3423   -8747.8599   -8624.5573   -3266.8004    19364.663    145.22587 
   23620     1126.822    -8750.416   -8624.7173   -2671.8181    19358.261    145.17178 
   23630    1161.2321   -8754.4197   -8624.8825   -1370.9777    19349.709    145.07584 
   23640    1136.6266   -8751.8777   -8625.0853    1382.9162    19340.186    144.95891 
   23650    1150.5971   -8753.6719   -8625.3211    2664.8266    19331.723    144.85052 
   23660    1152.3566   -8754.1527   -8625.6056    2700.2837    19325.426    144.77357 
   23670    1129.1212   -8751.8881   -8625.9329    1422.0172    19321.303    144.74498 
   23680    1150.5991   -8754.6509   -8626.2998   -426.03692    19318.327     144.7677 
   23690    1150.4116   -8755.0476   -8626.7175    -823.0849    19315.131    144.81505 
   23700     1132.919   -8753.5671   -8627.1883    -1094.219    19311.259    144.85935 
   23710    1127.1884   -8753.4188   -8627.6792   -1216.6006    19306.512    144.88755 
   23720    1145.5353   -8755.9725   -8628.1864   -1097.1281    19300.771    144.88565 
   23730    1155.4913   -8757.6493   -8628.7525   -487.92252    19294.159    144.84856 
   23740    1120.8469   -8754.3806   -8629.3484    462.57989     19287.19    144.79285 
   23750    1133.8828   -8756.4357   -8629.9494    32.985007    19280.506    144.74242 
   23760     1146.289   -8758.4445   -8630.5743   -1454.5862     19273.77    144.70142 
   23770    1127.9103   -8757.0476   -8631.2275   -2402.5956    19265.865    144.65941 
   23780    1132.2039   -8758.1896   -8631.8906   -3281.0837     19255.95    144.60391 
   23790    1133.7855   -8759.0284   -8632.5529   -3432.2582    19243.367    144.51644 
   23800    1137.7205     -8760.14   -8633.2255   -2712.5514    19227.993    144.39419 
   23810    1104.6984   -8757.0866   -8633.8558   -853.36648    19210.478    144.25245 
   23820    1093.8268   -8756.4033   -8634.3853    287.80257    19192.185     144.1056 
   23830    1099.5792   -8757.4649   -8634.8052    953.45864    19174.091    143.95666 
   23840    1093.1671   -8757.0583   -8635.1139    2678.6304    19156.851    143.80772 
   23850    1103.4815   -8758.4002   -8635.3052    5313.1599    19141.872    143.67289 
   23860    1117.9819   -8760.1396    -8635.427    7144.4504    19131.201    143.57299 
   23870    1111.8651    -8759.565   -8635.5347    7256.6979    19126.235    143.53099 
   23880    1094.7854   -8757.7447   -8635.6197    6637.4808    19127.144    143.55864 
   23890     1115.411   -8760.0899   -8635.6642    5423.7293    19133.455     143.6553 
   23900     1110.866   -8759.6049   -8635.6862    4560.1798    19144.252    143.79315 
   23910    1062.5253   -8754.1894   -8635.6631    4212.8613    19158.888    143.93471 
   23920    1104.9316   -8758.8186   -8635.5618    1151.2866     19176.82    144.07718 
   23930     1115.429   -8759.8146   -8635.3868   -1755.2793    19195.815    144.22289 
   23940    1078.1342   -8755.4472   -8635.1797   -2971.4881    19213.568     144.3637 
   23950    1104.1442   -8758.0993   -8634.9303   -3965.7073    19228.942    144.48639 
   23960    1125.8102     -8760.24   -8634.6541   -4674.7379    19241.101    144.56305 
   23970    1105.4739   -8757.7305   -8634.4132   -3768.8062    19249.554    144.56158 
   23980    1085.2689   -8755.2334     -8634.17   -2773.9071    19254.942    144.49615 
   23990     1141.121   -8761.2036   -8633.9099   -4060.6429     19257.86    144.42393 
   24000    1125.0924   -8759.1832   -8633.6775   -4278.4357    19257.524    144.37643 
   24010    1078.8023    -8753.826    -8633.484   -3625.5914     19253.72    144.32679 
   24020    1102.9596   -8756.3085   -8633.2717   -4126.6705    19246.782    144.23289 
   24030    1079.7001   -8753.4574   -8633.0152   -3941.0384    19236.465    144.10058 
   24040     1082.334   -8753.4548   -8632.7188   -3038.8031    19222.904    143.94846 
   24050    1105.7096   -8755.7075   -8632.3639   -1669.1241    19206.802    143.78396 
   24060    1116.4706    -8756.519    -8631.975   -233.82726    19189.275    143.63944 
   24070    1164.1381   -8761.4741   -8631.6127   -741.62175    19171.321    143.52949 
   24080    1140.2829   -8758.5307   -8631.3304   -614.08484    19152.762    143.43146 
   24090    1118.6662   -8755.8976   -8631.1087   -532.61988    19133.622    143.33501 
   24100    1136.9708   -8757.7422   -8630.9114   -528.67634    19113.957    143.24029 
   24110    1114.1288   -8754.9984   -8630.7157    589.07358    19093.862    143.13748 
   24120    1129.1751   -8756.4825   -8630.5213     1623.354    19074.146    143.03903 
   24130    1112.0815   -8754.3623   -8630.3079    3015.7391     19055.69    142.97154 
   24140    1110.2004   -8753.9207   -8630.0762    3686.2675    19039.544    142.93771 
   24150    1152.2053   -8758.3791   -8629.8489    2984.8864    19026.211    142.92934 
   24160    1129.7156   -8755.6817   -8629.6602    2777.0223    19015.273    142.94674 
   24170    1128.6537   -8755.4116   -8629.5086    1979.9145    19006.477      142.971 
   24180    1149.6599   -8757.6352    -8629.389    1424.4899    18999.251    142.97948 
   24190    1124.0982   -8754.6912   -8629.2964    1747.8479    18993.179    142.96595 
   24200    1116.6132   -8753.7659    -8629.206    1897.8644    18988.482    142.93914 
   24210    1128.6391   -8754.9898   -8629.0884    1812.4816    18985.282    142.92013 
   24220    1151.2663   -8757.4018   -8628.9763    1589.7295    18983.517    142.92603 
   24230    1153.0227   -8757.5219   -8628.9005    1571.5854    18983.056    142.95096 
   24240    1173.3719   -8759.8032   -8628.9118    1759.6015    18983.884    142.98991 
   24250     1159.548   -8758.3697   -8629.0204    1957.2029    18986.172    143.03341 
   24260    1169.9019   -8759.7687   -8629.2644    1082.1564    18989.977    143.03162 
   24270     1161.585   -8759.2317   -8629.6552    708.97729     18994.72    142.98149 
   24280    1137.9876   -8757.1337   -8630.1894    1565.3537    19000.185    142.91126 
   24290    1131.8734   -8757.1023   -8630.8401    1891.7088    19006.938    142.82005 
   24300     1128.586    -8757.517   -8631.6215    1461.1989     19015.24     142.7015 
   24310    1128.0533   -8758.3791    -8632.543    246.98466    19024.756    142.56538 
   24320    1134.0229   -8760.1401   -8633.6381   -987.01649    19034.566    142.41539 
   24330    1083.5895   -8755.6949   -8634.8189   -1813.8089    19043.708    142.24609 
   24340    1092.2202   -8757.8015   -8635.9627   -3707.0348    19051.369    142.04515 
   24350    1138.4747   -8764.1013   -8637.1028   -5160.0783    19056.112    141.81133 
   24360    1101.8302    -8761.122   -8638.2111   -4457.1564    19056.841    141.57641 
   24370    1061.1811   -8757.5266   -8639.1502   -2850.8335    19053.994    141.37598 
   24380    1079.1608   -8760.2624   -8639.8804   -1837.0425    19048.768    141.22371 
   24390    1094.0073   -8762.4766   -8640.4384    -1258.518    19041.977    141.10771 
   24400    1079.0305   -8761.2241   -8640.8566   -1241.5604     19034.07     140.9974 
   24410     1076.008   -8761.1673    -8641.137   -2336.0013        19025    140.85117 
   24420    1076.3722   -8761.3668   -8641.2958   -2841.7545    19013.994    140.65166 
   24430    1067.7477   -8760.4434   -8641.3345   -1945.7057    19000.698     140.4137 
   24440    1081.8519   -8761.9522     -8641.27   -772.74146    18985.727    140.19078 
   24450    1085.4025   -8762.1903    -8641.112    629.40647    18969.994    140.03345 
   24460     1101.036   -8763.7087   -8640.8864    1519.7736     18954.55    139.95503 
   24470    1119.0567   -8765.4554   -8640.6229    2345.0702    18940.151    139.94029 
   24480    1107.4394   -8763.8909   -8640.3543    3645.3133    18927.515    139.98848 
   24490    1082.1916   -8760.7794   -8640.0593    4794.3668    18917.668    140.10273 
   24500     1101.683    -8762.615   -8639.7206    4980.0746    18911.473    140.28162 
   24510    1104.6626   -8762.5702   -8639.3435    5126.9594    18909.212    140.52051 
   24520    1106.5163   -8762.3928   -8638.9593    4456.5972    18910.983    140.80797 
   24530    1103.2753   -8761.6143   -8638.5423    2984.6243    18916.315    141.09905 
   24540    1114.8028    -8762.454   -8638.0961    1784.0939    18924.148    141.34076 
   24550    1083.2091   -8758.4594   -8637.6258    1486.4352      18933.6    141.52659 
   24560    1091.5659   -8758.9066   -8637.1408    459.33797    18944.325    141.68318 
   24570    1091.6129   -8758.3768   -8636.6058   -168.99499    18955.628    141.82621 
   24580     1072.304   -8755.6513   -8636.0342    223.02136    18967.059    141.95519 
   24590    1098.0017   -8757.8986   -8635.4149   -156.45414    18978.792    142.09204 
   24600    1108.7357   -8758.4487   -8634.7676    30.460846    18990.655    142.26853 
   24610    1136.2437   -8760.9047    -8634.155    397.49337    19002.779    142.49485 
   24620    1150.9084   -8762.0023   -8633.6167    312.73701    19015.418    142.75765 
   24630    1126.6855    -8758.864   -8633.1806    489.96915    19028.575    143.02775 
   24640    1127.9728   -8758.6523   -8632.8253    342.99885     19042.36    143.29939 
   24650    1107.2735   -8756.0206   -8632.5025   -585.30374    19056.631    143.57717 
   24660    1111.7156   -8756.1993   -8632.1858   -1940.0553    19070.689    143.85711 
   24670    1140.3608   -8759.0849   -8631.8759   -3187.2006    19083.444    144.15495 
   24680    1116.9436   -8756.2069   -8631.6102   -2965.9743    19093.968    144.46759 
   24690    1114.8061   -8755.7347   -8631.3764    -2817.457    19102.241    144.76619 
   24700    1143.0171   -8758.6731   -8631.1679   -2302.8458      19108.4    145.03013 
   24710    1127.0779   -8756.7302    -8631.003   -1525.1669    19112.827    145.27518 
   24720    1128.9311   -8756.8261   -8630.8922   -1264.7771    19116.042    145.52405 
   24730     1129.722   -8756.8171   -8630.7949   -602.27618    19118.321    145.78038 
   24740    1165.2144   -8760.7042   -8630.7228    74.348625    19120.147    146.04994 
   24750    1154.3708   -8759.4708    -8630.699    975.74794    19122.104    146.33335 
   24760     1159.092    -8760.049   -8630.7505     1171.598    19124.882    146.64076 
   24770     1173.844    -8761.828   -8630.8839    458.92041    19128.626     146.9927 
   24780    1170.2829   -8761.6577   -8631.1109    703.08056    19132.934    147.37683 
   24790    1169.1488   -8761.8529   -8631.4325    1266.8776    19137.945    147.76049 
   24800    1137.6909   -8758.7249   -8631.8138    1951.4795    19144.157    148.14575 
   24810    1122.1707   -8757.3777   -8632.1979     1565.045    19152.053    148.55859 
   24820    1144.0829   -8760.1909   -8632.5668    983.86318    19161.429    148.99607 
   24830    1155.6488   -8761.8775   -8632.9632    734.51714    19171.865    149.42496 
   24840    1156.5962   -8762.4358   -8633.4158    471.74814    19183.164    149.83445 
   24850    1166.8042    -8764.091   -8633.9322   -286.24888    19195.096    150.22754 
   24860     1128.597   -8760.3846   -8634.4879    238.67741    19207.194    150.60106 
   24870    1094.8749   -8757.1442   -8635.0093    1473.5958     19219.86     150.9534 
   24880    1109.0335   -8759.1747   -8635.4604    1600.7852    19234.008    151.26954 
   24890    1127.7284   -8761.6533   -8635.8535    629.32118    19249.787    151.55247 
   24900    1137.9993   -8763.1576   -8636.2121   -1047.2322     19266.44    151.83049 
   24910    1145.1312    -8764.298   -8636.5569   -2717.4267    19282.644    152.11078 
   24920    1136.0902   -8763.6331   -8636.9005   -4062.3877    19297.019    152.36607 
   24930    1107.2057   -8760.7289   -8637.2184   -4760.3526    19308.408    152.57467 
   24940    1103.9045   -8760.6131   -8637.4709   -5577.2483    19316.098    152.74681 
   24950    1120.1539   -8762.6304   -8637.6756   -6198.8657    19319.304    152.88021 
   24960    1127.1335   -8763.6044   -8637.8709    -5569.765    19317.465    152.94423 
   24970    1138.9384   -8765.1231   -8638.0728   -4628.0649     19310.91    152.93711 
   24980    1126.4937   -8763.9315   -8638.2694   -3119.7657    19300.331    152.86085 
   24990    1113.8978   -8762.6908   -8638.4338    -1391.178    19286.865    152.72497 
   25000    1097.4692   -8760.9563    -8638.532   -192.60024    19271.854    152.56746 
Loop time of 14525.3 on 16 procs for 20000 steps with 864 atoms

Performance: 0.119 ns/day, 201.741 hours/ns, 1.377 timesteps/s
96.0% CPU use with 16 MPI tasks x 1 OpenMP threads

MPI task timing breakdown:
Section |  min time  |  avg time  |  max time  |%varavg| %total
---------------------------------------------------------------
Pair    | 3967       | 7829.3     | 13610      |3595.4 | 53.90
Bond    | 0.0015085  | 0.0038291  | 0.0081201  |   3.2 |  0.00
Neigh   | 0.15183    | 0.33704    | 0.68157    |  29.8 |  0.00
Comm    | 74.33      | 4352.4     | 8543.2     |3882.2 | 29.96
Output  | 1.5846     | 1.6192     | 2.1244     |  10.3 |  0.01
Modify  | 838.72     | 2341.5     | 4418.4     |2662.5 | 16.12
Other   |            | 0.1062     |            |       |  0.00

Nlocal:        54.0000 ave          91 max          28 min
Histogram: 3 5 0 0 0 2 2 2 0 2
Nghost:        514.500 ave         713 max         331 min
Histogram: 6 0 1 1 0 0 1 3 1 3
Neighs:         0.00000 ave           0 max           0 min
Histogram: 16 0 0 0 0 0 0 0 0 0
FullNghs:      2784.75 ave        6195 max         729 min
Histogram: 8 0 0 0 1 1 2 2 0 2

Total # of neighbors = 44556
Ave neighs/atom = 51.569444
Ave special neighs/atom = 0.0000000
Neighbor list builds = 2000
Dangerous builds = 2000
Total wall time: 5:02:41
