LAMMPS (29 Sep 2021 - Update 3)
OMP_NUM_THREADS environment is not set. Defaulting to 1 thread. (src/comm.cpp:98)
  using 1 OpenMP thread(s) per MPI task
units	metal
atom_style	full

read_data	mixed.data
Reading data file ...
  orthogonal box = (0.0000000 0.0000000 0.0000000) to (15.502212 15.402052 70.841525)
  2 by 1 by 8 MPI processor grid
  reading atoms ...
  864 atoms
Finding 1-2 1-3 1-4 neighbors ...
  special bond factors lj:    0        0        0       
  special bond factors coul:  0        0        0       
     0 = max # of 1-2 neighbors
     0 = max # of 1-3 neighbors
     0 = max # of 1-4 neighbors
     1 = max # of special neighbors
  special bonds CPU = 0.002 seconds
  read_data CPU = 0.011 seconds

pair_style	quip
pair_coeff	* * /ocean/projects/cts180021p/wuziqi/clease/mint-PD/PhaseDiagram-Clease/Liquid/GAP_potential/gap_LiKCl.xml "Potential xml_label=GAP_2021_9_27_0_1_17_37_618" 17 19 3

neighbor	0.3 bin
neigh_modify	delay 10

timestep	0.001
compute	msd all msd
thermo_style	custom step temp pe etotal press vol c_msd[4]
thermo	10
dump	1 all custom 10 xyz-mix.dump type id x y z
dump	2 all custom 10 force-mix.dump type id fx fy fz

fix     1 all nve
run     2000
Neighbor list info ...
  update every 1 steps, delay 10 steps, check yes
  max neighbors/atom: 2000, page size: 100000
  master list distance cutoff = 6.22
  ghost atom cutoff = 6.22
  binsize = 3.11, bins = 5 5 23
  1 neighbor lists, perpetual/occasional/extra = 1 0 0
  (1) pair quip, perpetual
      attributes: full, newton on
      pair build: full/bin
      stencil: full/bin/3d
      bin: standard
Per MPI rank memory allocation (min/avg/max) = 8.904 | 8.909 | 8.916 Mbytes
Step Temp PotEng TotEng Press Volume c_msd[4] 
       0            0   -6414.6092   -6414.6092   -8996.9866    16914.539            0 
      10    95.860065   -6425.3161   -6414.6228   -10882.275    16914.539 0.00077933166 
      20    229.03731    -6440.185   -6414.6355   -12475.142    16914.539 0.0093775226 
      30    249.34477   -6442.4428    -6414.628     -10213.3    16914.539  0.030212741 
      40    248.24655    -6442.315   -6414.6227   -8336.8682    16914.539  0.053808265 
      50    285.14769    -6446.437   -6414.6283   -8615.1952    16914.539  0.072000809 
      60    292.72184   -6447.2808   -6414.6272   -9342.9381    16914.539  0.087153748 
      70    280.17142   -6445.8771   -6414.6236   -9869.2499    16914.539   0.10198109 
      80    281.19207   -6445.9951   -6414.6277    -10294.65    16914.539   0.11798926 
      90    268.26029   -6444.5494   -6414.6246   -9784.8729    16914.539   0.13582886 
     100    263.60742   -6444.0319   -6414.6261   -9260.1077    16914.539   0.15297691 
     110    266.81408   -6444.3885    -6414.625   -9324.2282    16914.539   0.16905869 
     120    277.26539   -6445.5556   -6414.6262   -9888.0881    16914.539    0.1846357 
     130    285.07553   -6446.4267   -6414.6261    -10213.05    16914.539   0.20084172 
     140    284.14138   -6446.3223   -6414.6259   -10193.515    16914.539   0.21791648 
     150    279.03191   -6445.7517   -6414.6253   -10301.408    16914.539   0.23440376 
     160    280.06863   -6445.8685   -6414.6264   -10527.708    16914.539   0.24944995 
     170    273.73993   -6445.1618   -6414.6257   -10301.134    16914.539   0.26342452 
     180    268.00203    -6444.521   -6414.6249   -9641.2173    16914.539    0.2755889 
     190    273.83964   -6445.1737   -6414.6265   -9293.2599    16914.539   0.28642792 
     200    272.45085   -6445.0193    -6414.627   -9401.3798    16914.539   0.29775171 
     210    266.52225   -6444.3555   -6414.6245    -9739.952    16914.539   0.30975692 
     220    277.26483   -6445.5568   -6414.6275   -10274.008    16914.539   0.32155584 
     230    271.03398   -6444.8608   -6414.6265   -10197.129    16914.539   0.33326886 
     240    256.99297   -6443.2921   -6414.6241   -9796.9787    16914.539   0.34420392 
     250      260.518   -6443.6868   -6414.6256   -10082.712    16914.539   0.35319632 
     260    269.24542   -6444.6609   -6414.6262   -10817.477    16914.539   0.36024544 
     270    272.22344   -6444.9933   -6414.6263   -11178.931    16914.539   0.36660869 
     280    269.37878   -6444.6751   -6414.6255   -10808.686    16914.539   0.37346839 
     290    271.00389   -6444.8563   -6414.6254   -10344.777    16914.539   0.38086972 
     300    276.76784   -6445.4999    -6414.626   -10017.839    16914.539   0.38795838 
     310    280.46562   -6445.9129   -6414.6265   -10033.139    16914.539    0.3941169 
     320    277.07214   -6445.5343   -6414.6265   -10046.112    16914.539   0.40018262 
     330    269.95649   -6444.7383   -6414.6242   -9805.4895    16914.539   0.40670818 
     340    277.76904    -6445.612   -6414.6265   -9619.6934    16914.539   0.41197492 
     350    285.05274   -6446.4248   -6414.6267   -9485.1667    16914.539   0.41648156 
     360    281.88575   -6446.0712   -6414.6264   -9140.4937    16914.539   0.42146503 
     370    274.53044   -6445.2493    -6414.625    -8962.175    16914.539   0.42701601 
     380    276.18295   -6445.4346    -6414.626   -9426.8139    16914.539   0.43273687 
     390    277.57134   -6445.5897   -6414.6262   -10070.673    16914.539   0.43923402 
     400     276.8595   -6445.5103   -6414.6262    -10303.89    16914.539   0.44707416 
     410    275.46607   -6445.3545   -6414.6259   -10360.075    16914.539   0.45492711 
     420    275.69775   -6445.3806   -6414.6261   -10312.296    16914.539   0.46006875 
     430    277.65506   -6445.5987   -6414.6258   -10210.723    16914.539   0.46173996 
     440    281.42642   -6446.0203   -6414.6268   -10308.419    16914.539    0.4617939 
     450    276.88831    -6445.514   -6414.6267   -10250.708    16914.539   0.46269964 
     460    270.21574   -6444.7677   -6414.6248   -9929.1914    16914.539   0.46518425 
     470    276.62755   -6445.4853   -6414.6271   -9753.2735    16914.539   0.46909827 
     480    275.65992   -6445.3765   -6414.6262   -9607.8074    16914.539   0.47463575 
     490    271.78497   -6444.9435   -6414.6255   -9553.3315    16914.539   0.48058495 
     500    272.32251   -6445.0046   -6414.6266   -9909.1382    16914.539   0.48553511 
     510    270.37544   -6444.7864   -6414.6256   -10365.506    16914.539   0.48834362 
     520    275.17373   -6445.3223   -6414.6263    -10515.66    16914.539   0.48843099 
     530    278.78936   -6445.7259   -6414.6265   -10437.285    16914.539   0.48792995 
     540    277.10642   -6445.5367   -6414.6251   -10771.458    16914.539   0.48938579 
     550    282.60439   -6446.1508   -6414.6259   -11859.636    16914.539   0.49278637 
     560    285.47147   -6446.4709   -6414.6262   -12796.498    16914.539   0.49690199 
     570    281.74023   -6446.0538   -6414.6252   -13126.326    16914.539   0.50034525 
     580    281.37788   -6446.0138   -6414.6257    -13240.78    16914.539   0.50202219 
     590    281.57404   -6446.0359   -6414.6258   -12844.509    16914.539   0.50251947 
     600    279.80949   -6445.8394   -6414.6262   -12078.209    16914.539   0.50341715 
     610    275.08337   -6445.3114   -6414.6254   -11496.883    16914.539    0.5053235 
     620    273.83436   -6445.1722   -6414.6256   -11201.877    16914.539   0.50732064 
     630    275.31248   -6445.3374   -6414.6259   -11206.933    16914.539   0.50828438 
     640    275.60187     -6445.37   -6414.6262    -11537.36    16914.539   0.50794637 
     650    274.21825   -6445.2155   -6414.6261   -11690.872    16914.539   0.50662649 
     660    272.65227   -6445.0411   -6414.6263   -11698.657    16914.539   0.50518157 
     670     269.8069   -6444.7228   -6414.6254   -11783.391    16914.539   0.50451723 
     680    274.15038   -6445.2075   -6414.6256   -11810.462    16914.539   0.50456436 
     690    280.99552   -6445.9719   -6414.6264   -11861.031    16914.539   0.50555103 
     700    280.63072   -6445.9305   -6414.6257   -11627.854    16914.539   0.50781264 
     710    278.92562   -6445.7406    -6414.626   -11080.463    16914.539   0.51097066 
     720    273.95593   -6445.1857   -6414.6255   -10327.151    16914.539   0.51457431 
     730    270.75852   -6444.8288   -6414.6252   -9765.8913    16914.539   0.51787072 
     740    276.18815   -6445.4342    -6414.625   -9492.6985    16914.539   0.51977351 
     750    290.40662   -6447.0224   -6414.6271   -9560.4488    16914.539   0.52017505 
     760    291.76733   -6447.1737   -6414.6266   -9561.5036    16914.539   0.52117133 
     770    283.11091   -6446.2069   -6414.6254   -9453.5946    16914.539   0.52378958 
     780    279.64758   -6445.8206   -6414.6255   -9604.3927    16914.539   0.52683471 
     790    283.69703   -6446.2721   -6414.6253   -9946.1137    16914.539   0.52917358 
     800    294.07987   -6447.4316   -6414.6265   -10564.719    16914.539   0.53017696 
     810    295.44119   -6447.5838   -6414.6269   -10778.266    16914.539   0.53058912 
     820    284.62085    -6446.375   -6414.6251   -10769.398    16914.539   0.53152004 
     830    283.14102   -6446.2102   -6414.6254    -11181.41    16914.539   0.53258998 
     840    287.99305   -6446.7525   -6414.6265   -11723.574    16914.539   0.53389001 
     850    287.09189   -6446.6515    -6414.626   -11500.578    16914.539   0.53659046 
     860      284.553   -6446.3684    -6414.626   -10897.209    16914.539   0.54081319 
     870    282.67441   -6446.1585   -6414.6257   -10433.812    16914.539   0.54539106 
     880    283.51653   -6446.2522   -6414.6255   -10209.532    16914.539    0.5489499 
     890    288.50338    -6446.809    -6414.626   -10354.377    16914.539   0.55135174 
     900    291.76454   -6447.1726   -6414.6258   -10876.976    16914.539   0.55353637 
     910    292.97848   -6447.3082    -6414.626   -11347.991    16914.539   0.55595171 
     920    291.51405   -6447.1447   -6414.6258   -11398.427    16914.539   0.55853793 
     930    291.60074   -6447.1542   -6414.6257    -11293.91    16914.539   0.56185808 
     940     293.2344   -6447.3372   -6414.6265   -11200.097    16914.539   0.56678171 
     950    287.97843   -6446.7504    -6414.626   -11130.864    16914.539   0.57322831 
     960    283.64605   -6446.2659   -6414.6248   -11250.962    16914.539    0.5801369 
     970    292.04718   -6447.2043    -6414.626   -11840.242    16914.539   0.58714521 
     980    298.10465    -6447.881    -6414.627   -12253.162    16914.539   0.59518368 
     990     291.0629   -6447.0941   -6414.6256   -12038.151    16914.539    0.6045403 
    1000    284.65421   -6446.3788   -6414.6252   -11444.717    16914.539   0.61356144 
    1010    284.88743   -6446.4056    -6414.626    -11257.53    16914.539   0.62075706 
    1020    284.45231   -6446.3572   -6414.6261   -11432.152    16914.539   0.62656562 
    1030    283.20586   -6446.2174   -6414.6254   -11511.221    16914.539   0.63192389 
    1040    287.83552   -6446.7343   -6414.6258   -11667.574    16914.539   0.63739756 
    1050    291.82132   -6447.1799   -6414.6268   -11837.973    16914.539   0.64401168 
    1060    283.59762   -6446.2613   -6414.6256   -11789.256    16914.539   0.65213742 
    1070    276.66662   -6445.4869   -6414.6243   -11806.091    16914.539   0.65985523 
    1080    282.99965   -6446.1952   -6414.6262   -11840.254    16914.539   0.66594809 
    1090    284.44573   -6446.3567   -6414.6263   -11632.042    16914.539   0.67175387 
    1100    278.27382   -6445.6672   -6414.6253   -11480.901    16914.539   0.67800117 
    1110    275.51841   -6445.3596   -6414.6251    -11752.64    16914.539   0.68395064 
    1120    280.64433   -6445.9316   -6414.6253   -12488.193    16914.539   0.68890156 
    1130    288.25028   -6446.7809   -6414.6262   -13418.509    16914.539   0.69291839 
    1140    287.86356   -6446.7373   -6414.6257   -13894.107    16914.539   0.69647294 
    1150     284.1342   -6446.3207   -6414.6251   -13718.421    16914.539   0.69999552 
    1160    284.54442   -6446.3664    -6414.625   -13274.877    16914.539   0.70441524 
    1170    289.30798   -6446.8989   -6414.6262   -12874.099    16914.539   0.71032926 
    1180    288.40526   -6446.7977   -6414.6256   -12499.771    16914.539   0.71698745 
    1190    288.87345   -6446.8499   -6414.6256   -12393.703    16914.539   0.72286598 
    1200    289.55166   -6446.9266   -6414.6266   -12529.541    16914.539   0.72828782 
    1210    280.56525   -6445.9223   -6414.6249   -12558.433    16914.539   0.73461558 
    1220    279.30484    -6445.782   -6414.6251   -12626.277    16914.539   0.74159765 
    1230    283.14385   -6446.2112   -6414.6261    -12562.24    16914.539   0.74841645 
    1240    281.80648   -6446.0608   -6414.6249   -12023.389    16914.539   0.75444294 
    1250     287.2171   -6446.6653   -6414.6258   -11729.343    16914.539   0.75867551 
    1260    291.37697   -6447.1294   -6414.6258   -11960.648    16914.539    0.7611503 
    1270     290.7704   -6447.0612   -6414.6254   -12380.586    16914.539   0.76288707 
    1280    289.55224   -6446.9258   -6414.6258   -12882.375    16914.539    0.7645348 
    1290    287.09987   -6446.6515   -6414.6251   -12907.605    16914.539   0.76662403 
    1300     288.7486   -6446.8364   -6414.6261    -12351.66    16914.539   0.76992192 
    1310     286.5441   -6446.5899   -6414.6255   -11746.932    16914.539   0.77514416 
    1320    286.76446   -6446.6147   -6414.6256   -11616.487    16914.539     0.782071 
    1330    287.70548   -6446.7204   -6414.6264    -11836.58    16914.539   0.79015066 
    1340    282.63252   -6446.1531    -6414.625   -11799.148    16914.539   0.79849012 
    1350    284.43132   -6446.3541   -6414.6254   -11987.933    16914.539   0.80587623 
    1360    290.10013   -6446.9873   -6414.6262   -12175.108    16914.539   0.81222683 
    1370    288.39934   -6446.7972   -6414.6258   -12215.241    16914.539   0.81788554 
    1380    282.88925   -6446.1815   -6414.6247   -12046.377    16914.539   0.82275667 
    1390    283.76927   -6446.2807   -6414.6258   -12356.549    16914.539   0.82695931 
    1400    284.16314   -6446.3247   -6414.6258   -12558.911    16914.539   0.83096223 
    1410    282.88017   -6446.1807    -6414.625   -12245.265    16914.539   0.83439005 
    1420     289.0508   -6446.8696   -6414.6256   -12006.917    16914.539   0.83692973 
    1430    296.30837   -6447.6802   -6414.6265   -12125.384    16914.539   0.83971571 
    1440    294.95766   -6447.5284   -6414.6255   -12272.826    16914.539   0.84385839 
    1450    294.31334   -6447.4568   -6414.6257   -12376.112    16914.539   0.84859385 
    1460    293.05239   -6447.3161   -6414.6256   -12629.004    16914.539   0.85302956 
    1470    291.25758   -6447.1162   -6414.6259   -13083.249    16914.539    0.8570116 
    1480    286.64819   -6446.6016   -6414.6255   -13428.045    16914.539   0.86066862 
    1490    283.52532   -6446.2528   -6414.6252   -13496.705    16914.539   0.86430477 
    1500     286.3633   -6446.5701   -6414.6258   -13624.975    16914.539   0.86918451 
    1510    287.48957    -6446.696   -6414.6261   -13700.531    16914.539   0.87693222 
    1520      283.311   -6446.2294   -6414.6257   -13763.966    16914.539   0.88681719 
    1530    278.93423   -6445.7409   -6414.6254    -13749.08    16914.539    0.8961479 
    1540    279.24322   -6445.7753   -6414.6253   -13602.367    16914.539   0.90287427 
    1550    284.34307   -6446.3451   -6414.6262   -13438.713    16914.539   0.90704945 
    1560    286.61186   -6446.5976   -6414.6256   -13327.774    16914.539   0.90952163 
    1570    288.64067   -6446.8242   -6414.6259   -13235.348    16914.539   0.91064836 
    1580    289.00905   -6446.8647   -6414.6253   -13276.193    16914.539   0.91132952 
    1590    292.22619   -6447.2238   -6414.6255   -13462.144    16914.539   0.91275471 
    1600    296.71233   -6447.7243   -6414.6256   -13630.138    16914.539   0.91602557 
    1610    298.76154   -6447.9536   -6414.6263   -13722.427    16914.539   0.92135086 
    1620    292.39065   -6447.2423   -6414.6257   -13309.957    16914.539   0.92745789 
    1630    287.36199   -6446.6803   -6414.6246   -12820.554    16914.539   0.93230372 
    1640    296.02429   -6447.6483   -6414.6263   -13120.327    16914.539   0.93527841 
    1650    300.16791   -6448.1107   -6414.6265   -13790.323    16914.539   0.93826144 
    1660    293.71858   -6447.3901   -6414.6253    -14241.14    16914.539   0.94282849 
    1670    288.35047   -6446.7915   -6414.6256   -14455.623    16914.539   0.94858717 
    1680    282.73321   -6446.1651   -6414.6258   -14172.658    16914.539   0.95453176 
    1690    275.72229   -6445.3823   -6414.6251   -13627.921    16914.539   0.95952727 
    1700    277.97595   -6445.6333   -6414.6247   -13300.724    16914.539   0.96211871 
    1710    291.05049   -6447.0941    -6414.627    -13269.73    16914.539   0.96263565 
    1720    289.50874   -6446.9216   -6414.6265   -13136.603    16914.539    0.9641931 
    1730     279.6014   -6445.8141   -6414.6241    -12984.07    16914.539   0.96762806 
    1740    285.21215   -6446.4421   -6414.6263   -12956.522    16914.539    0.9714688 
    1750    286.63852   -6446.6019   -6414.6269    -12491.03    16914.539   0.97542993 
    1760    276.86406   -6445.5095   -6414.6249   -11731.805    16914.539   0.97865163 
    1770    278.27156   -6445.6664   -6414.6248   -11664.802    16914.539   0.98004953 
    1780    292.12948   -6447.2142   -6414.6268   -12328.976    16914.539   0.98151253 
    1790    296.31795   -6447.6809   -6414.6262   -12931.917    16914.539   0.98612529 
    1800    292.55667   -6447.2612    -6414.626   -13640.461    16914.539   0.99403792 
    1810    285.79514   -6446.5059    -6414.625   -14229.526    16914.539    1.0030771 
    1820    288.12419   -6446.7662   -6414.6256   -14597.158    16914.539    1.0110949 
    1830    292.85204   -6447.2945   -6414.6264   -14639.212    16914.539    1.0174953 
    1840    289.21054   -6446.8874   -6414.6255   -13970.459    16914.539    1.0218515 
    1850    287.11754   -6446.6534    -6414.625   -13100.598    16914.539    1.0231482 
    1860    292.11589   -6447.2121   -6414.6262   -12689.719    16914.539    1.0216815 
    1870    291.24456   -6447.1151   -6414.6264    -12380.18    16914.539    1.0194153 
    1880    284.36534   -6446.3461   -6414.6247   -12152.672    16914.539    1.0178874 
    1890     288.1505   -6446.7696    -6414.626   -12357.505    16914.539    1.0174891 
    1900    290.81767   -6447.0678   -6414.6266   -12569.765    16914.539    1.0188537 
    1910    284.40865   -6446.3521   -6414.6259   -12506.032    16914.539    1.0221045 
    1920    279.51829   -6445.8054   -6414.6247   -12334.547    16914.539    1.0260227 
    1930    286.47358   -6446.5831   -6414.6265   -12454.296    16914.539    1.0290399 
    1940    288.06715   -6446.7604    -6414.626   -12717.705    16914.539    1.0306657 
    1950    286.25893   -6446.5579   -6414.6253   -12605.082    16914.539    1.0306186 
    1960    289.99788   -6446.9755   -6414.6258   -12348.209    16914.539    1.0295042 
    1970    293.21828    -6447.335    -6414.626   -12071.048    16914.539    1.0291662 
    1980    292.53599   -6447.2583   -6414.6255   -11867.242    16914.539    1.0306618 
    1990    292.57928   -6447.2634   -6414.6257   -12029.322    16914.539    1.0338136 
    2000    292.21203   -6447.2225   -6414.6258   -12394.635    16914.539    1.0382092 
Loop time of 1580.81 on 16 procs for 2000 steps with 864 atoms

Performance: 0.109 ns/day, 219.557 hours/ns, 1.265 timesteps/s
97.3% CPU use with 16 MPI tasks x 1 OpenMP threads

MPI task timing breakdown:
Section |  min time  |  avg time  |  max time  |%varavg| %total
---------------------------------------------------------------
Pair    | 937.11     | 1264.7     | 1577.6     | 461.0 | 80.01
Bond    | 0.00022244 | 0.00041831 | 0.00085974 |   0.0 |  0.00
Neigh   | 0.026078   | 0.03621    | 0.055192   |   3.8 |  0.00
Comm    | 2.8902     | 289.71     | 643.3      | 923.8 | 18.33
Output  | 0.12997    | 16.232     | 37.604     | 374.1 |  1.03
Modify  | 0.0089271  | 0.011168   | 0.013171   |   1.3 |  0.00
Other   |            | 10.08      |            |       |  0.64

Nlocal:        54.0000 ave          73 max          37 min
Histogram: 1 0 1 2 5 5 0 0 1 1
Nghost:        565.875 ave         657 max         471 min
Histogram: 1 1 0 5 2 2 0 2 1 2
Neighs:         0.00000 ave           0 max           0 min
Histogram: 16 0 0 0 0 0 0 0 0 0
FullNghs:      2887.12 ave        4564 max        1794 min
Histogram: 1 3 4 2 2 0 2 0 0 2

Total # of neighbors = 46194
Ave neighs/atom = 53.465278
Ave special neighs/atom = 0.0000000
Neighbor list builds = 199
Dangerous builds = 198
unfix   1

velocity    all create 1162.5 1312343 dist gaussian
fix     2 all npt temp 1162.5 1162.5 $(100.0*dt) aniso 0.0 1.01325 $(1000.0*dt)
fix     2 all npt temp 1162.5 1162.5 0.10000000000000000555 aniso 0.0 1.01325 $(1000.0*dt)
fix     2 all npt temp 1162.5 1162.5 0.10000000000000000555 aniso 0.0 1.01325 1
run     3000
Per MPI rank memory allocation (min/avg/max) = 8.905 | 8.910 | 8.916 Mbytes
Step Temp PotEng TotEng Press Volume c_msd[4] 
    2000       1162.5   -6447.2225   -6317.5438   -6264.1149    16914.539    1.0382092 
    2010    964.95564   -6425.1174   -6317.4752     149.6244    16912.956    1.0543499 
    2020    747.86991   -6400.5424   -6317.1164      7287.09    16911.466    1.0856036 
    2030     727.0908   -6397.3937   -6316.2856    7259.7866    16914.087    1.1125799 
    2040    717.60573   -6394.9883   -6314.9383    6167.0193    16921.179    1.1358373 
    2050    681.38834   -6389.4259    -6313.416    6195.2957    16932.172    1.1592259 
    2060    672.97563   -6387.1113   -6312.0398    6745.8523    16947.059    1.1833973 
    2070     689.2157    -6387.684    -6310.801    6646.6481    16966.152    1.2076554 
    2080    727.69665   -6390.6927   -6309.5171    5186.3335    16989.356    1.2320881 
    2090    736.26678   -6390.2042   -6308.0726     4257.933    17015.904    1.2586371 
    2100    744.08306   -6389.4838   -6306.4802    3144.1786    17045.177    1.2864939 
    2110    759.94496   -6389.4995   -6304.7265    2234.1122    17076.493    1.3134624 
    2120    744.69832   -6385.9732    -6302.901     2566.764    17109.332    1.3381225 
    2130    750.32484   -6384.7589   -6301.0591    2064.6619     17143.77    1.3579788 
    2140    791.82508   -6387.4249   -6299.0956    30.970822    17179.426    1.3739991 
    2150    810.06075   -6387.3621   -6296.9986    -1342.188    17215.089    1.3914428 
    2160      785.829    -6382.571   -6294.9106   -883.49159    17249.939    1.4116924 
    2170    796.72934   -6381.6998   -6292.8235    -1498.421    17284.037    1.4315928 
    2180    809.01675   -6380.8854   -6290.6384   -2726.3623    17316.986    1.4517441 
    2190    792.08423   -6376.7863   -6288.4281    -3356.949    17348.042    1.4743595 
    2200    805.13535   -6376.0103   -6286.1963   -3879.8851    17376.727    1.4976971 
    2210    835.81513   -6377.1092   -6283.8728   -3363.9064    17402.743    1.5198084 
    2220    842.09353   -6375.4708    -6281.534   -2102.8831    17426.406    1.5425493 
    2230    837.38182   -6372.6344   -6279.2232   -1501.9461    17448.454    1.5655357 
    2240    846.92788   -6371.3854   -6276.9093   -2048.5562    17469.253    1.5834928 
    2250    879.69271    -6372.654   -6274.5229   -3254.9538    17488.482    1.5931122 
    2260    890.71197    -6371.454   -6272.0937   -3643.1715    17505.426    1.5985329 
    2270    880.16464   -6367.8817    -6269.698   -3077.6213    17519.862    1.6051672 
    2280    902.92629   -6368.0156   -6267.2928   -3200.9794    17532.066    1.6147178 
    2290    907.49953   -6366.0806   -6264.8477   -2809.3244    17542.055    1.6290489 
    2300    882.47131   -6360.8848   -6262.4438   -1527.7114    17550.134     1.648487 
    2310    866.76816   -6356.7647   -6260.0754   -713.99324    17557.081    1.6707265 
    2320     884.9784   -6356.3887    -6257.668    -830.4743    17563.425    1.6925636 
    2330    905.29368   -6356.1843   -6255.1974   -1444.1166    17569.124    1.7120685 
    2340    931.20906    -6356.568   -6252.6902   -2205.5112    17573.796    1.7282198 
    2350    957.15252   -6356.9436   -6250.1718   -2852.6019    17576.958    1.7422834 
    2360     1003.753   -6359.6087   -6247.6385   -3031.9691    17578.224    1.7595704 
    2370    998.40729   -6356.5111   -6245.1373   -1590.5345    17577.563    1.7861095 
    2380    967.86199   -6350.7274    -6242.761    468.69718    17575.891    1.8171051 
    2390    980.32819    -6349.757   -6240.3999    1138.6563    17574.477    1.8440469 
    2400    1014.9198   -6351.1901   -6237.9743    746.96311    17573.763    1.8665602 
    2410    1002.1222   -6347.3309   -6235.5426    1633.5795    17573.641    1.8867908 
    2420    994.24797   -6344.0756   -6233.1657     2749.106    17574.619    1.9020251 
    2430    1029.3067   -6345.5848   -6230.7641    2555.2188    17577.326    1.9105727 
    2440    1038.7134   -6344.2191   -6228.3491    2832.0116    17581.749    1.9202102 
    2450    1022.9505   -6340.1189   -6226.0072    3458.8248    17588.033    1.9350602 
    2460    1037.8504   -6339.4678    -6223.694    3179.3607    17596.487    1.9506098 
    2470    1051.5077   -6338.6542   -6221.3569    3339.7241    17607.006    1.9631352 
    2480    1051.5902   -6336.3633   -6219.0568    4161.3103    17619.678    1.9725763 
    2490    1061.8363    -6335.249   -6216.7996    4416.5487    17634.951    1.9821108 
    2500    1105.5072   -6337.8593   -6214.5383    3271.7478    17652.908     1.994034 
    2510    1141.5735   -6339.6345   -6212.2902    2925.9369    17672.915     2.011575 
    2520     1125.939   -6335.7712    -6210.171    2978.7631     17694.66     2.036308 
    2530    1098.3894   -6330.7265   -6208.1995    2906.2229    17718.142    2.0620151 
    2540    1111.2106   -6330.2316   -6206.2743    2794.8885    17743.284    2.0815179 
    2550    1130.3775   -6330.4551   -6204.3598    2946.6813    17769.997    2.1009367 
    2560    1102.8053   -6325.5249   -6202.5053    3385.6714    17798.383    2.1291085 
    2570    1110.5313   -6324.5748   -6200.6934    2853.2051    17828.618    2.1628225 
    2580    1122.1248   -6324.0238   -6198.8491    2051.2378    17860.342    2.2005714 
    2590    1129.3144   -6322.9957    -6197.019    1339.4252     17892.98    2.2429429 
    2600    1132.3909   -6321.5262   -6195.2063    1240.0194    17926.041    2.2861773 
    2610    1093.3273   -6315.4193    -6193.457     1877.689    17959.415    2.3289043 
    2620    1094.2469   -6313.8081   -6191.7432    1752.3834    17993.436    2.3670799 
    2630     1113.668   -6314.1734   -6189.9421    317.74334    18027.931    2.4001979 
    2640      1152.06   -6316.6079   -6188.0939   -992.81798    18061.959    2.4354361 
    2650    1172.1662   -6316.9932   -6186.2363   -1648.5981    18094.605    2.4821543 
    2660    1167.9098   -6314.7657   -6184.4836   -1383.4155     18125.43    2.5388121 
    2670    1179.7577   -6314.4493   -6182.8455   -828.62862    18154.595    2.5974304 
    2680    1188.2482    -6313.856   -6181.3051   -266.42199    18182.482    2.6532377 
    2690    1181.5486   -6311.6821   -6179.8785   -313.41394    18209.455    2.7066731 
    2700     1175.365   -6309.6445   -6178.5308   -1062.1394    18235.469    2.7599229 
    2710     1186.197   -6309.5617   -6177.2396    -1018.907    18260.136    2.8069302 
    2720    1214.9871   -6311.5525   -6176.0188   -1627.9305    18283.395    2.8416977 
    2730    1208.6172   -6309.7306   -6174.9075   -1882.3099    18304.908    2.8731266 
    2740    1172.3976   -6304.7158   -6173.9331   -1086.3228    18324.591    2.9069727 
    2750    1157.7846   -6302.1841   -6173.0315    -1422.563    18342.896     2.937185 
    2760    1174.5442    -6303.155   -6172.1328   -2477.5433    18359.664    2.9641277 
    2770    1178.1123   -6302.6583   -6171.2381   -2970.4202    18374.248    2.9927406 
    2780    1166.5463   -6300.5276   -6170.3976   -2774.9255    18386.338    3.0240556 
    2790    1164.1571   -6299.4571   -6169.5936   -2116.8296     18396.15    3.0564988 
    2800    1182.4722   -6300.7179   -6168.8114   -1761.8568    18404.161     3.089042 
    2810    1191.4359    -6300.972   -6168.0656   -1779.7818    18410.682    3.1208761 
    2820    1214.2124    -6302.843   -6167.3958   -2454.7025    18415.713    3.1466661 
    2830    1218.7365    -6302.773   -6166.8211    -2726.592    18418.881    3.1650479 
    2840       1211.2   -6301.4817   -6166.3705   -2562.9878    18420.017    3.1766663 
    2850    1203.5743   -6300.3188   -6166.0583   -1996.3312    18419.299    3.1853192 
    2860    1213.8013   -6301.2474    -6165.846   -1049.0616    18417.205    3.1957257 
    2870    1245.4623   -6304.6977   -6165.7645   -566.48825    18414.381    3.2156142 
    2880     1242.496    -6304.457   -6165.8547    -884.1383    18411.158    3.2491368 
    2890    1220.8043   -6302.3194   -6166.1368   -407.91663    18407.439    3.2927101 
    2900    1186.6021   -6298.8991   -6166.5319   -9.3909345    18403.504    3.3405811 
    2910    1205.5783   -6301.4991    -6167.015   -416.14412    18399.594     3.382695 
    2920    1206.1457   -6302.1379   -6167.5905   -296.23628    18395.503    3.4244285 
    2930    1213.7127   -6303.6722   -6168.2808    276.78637    18391.289    3.4740033 
    2940    1224.0641   -6305.6178   -6169.0717    1402.3056     18387.41    3.5334553 
    2950    1237.7517   -6308.0945   -6170.0214    1890.4247    18384.575    3.5973125 
    2960    1210.2079   -6306.1115    -6171.111    2078.1412    18383.145    3.6585974 
    2970    1169.7584   -6302.7305   -6172.2422    2084.5603    18383.258    3.7120666 
    2980    1169.1356   -6303.7803   -6173.3615     1482.257    18384.846    3.7559125 
    2990    1178.5611   -6305.9538   -6174.4835    954.35122    18387.496    3.7914717 
    3000    1161.0264   -6305.1071   -6175.5929    526.74147    18390.813    3.8212999 
    3010    1149.8729   -6304.9409   -6176.6709   -595.84012    18394.404    3.8507132 
    3020    1131.5426   -6303.9094   -6177.6841   -1148.1542    18397.551    3.8839291 
    3030    1114.3797   -6302.9129   -6178.6022   -730.44756     18399.89    3.9170489 
    3040    1098.0121   -6301.8806   -6179.3957   -584.05993    18401.651    3.9462912 
    3050    1079.3869   -6300.4302   -6180.0229   -861.22155    18402.949    3.9723063 
    3060    1090.6595   -6302.1446   -6180.4798   -1723.7229    18403.562    3.9952397 
    3070    1123.9097   -6306.1796   -6180.8058   -1878.0014    18402.978    4.0160383 
    3080    1143.9742   -6308.6643   -6181.0523   -1595.1731    18401.068    4.0345589 
    3090    1146.8944   -6309.1956   -6181.2578   -1724.3899    18397.989    4.0543284 
    3100    1137.1599   -6308.2797   -6181.4278   -1802.9025    18393.697    4.0824152 
    3110    1119.4751   -6306.4283   -6181.5492   -1395.6525    18388.169    4.1190053 
    3120    1101.5779   -6304.4483   -6181.5656   -713.23092    18381.723    4.1616504 
    3130    1137.4346   -6308.3619   -6181.4794   -864.93529    18374.772    4.2059249 
    3140     1140.126   -6308.4986   -6181.3159   -914.51772    18367.284    4.2497155 
    3150    1136.9865   -6307.9409   -6181.1083   -813.19692     18359.22    4.2877692 
    3160    1136.3652   -6307.6075   -6180.8442   -715.99084    18350.645     4.314086 
    3170    1127.7591   -6306.3212    -6180.518   -598.29461    18341.639     4.330362 
    3180    1143.5828    -6307.701   -6180.1326   -458.32343    18332.289    4.3418926 
    3190    1130.1965   -6305.7636   -6179.6884   -285.35818    18322.708    4.3531986 
    3200    1139.7411   -6306.3263   -6179.1865   -744.37841    18312.967    4.3641806 
    3210     1154.225   -6307.3845   -6178.6289   -1064.1385    18302.763    4.3715649 
    3220    1125.8514    -6303.626   -6178.0356    391.02147    18291.992    4.3770496 
    3230     1130.807   -6303.5217   -6177.3785    1590.3758    18281.558    4.3823937 
    3240    1137.2453   -6303.4969   -6176.6355    2450.8891    18272.321    4.3902478 
    3250    1146.7684   -6303.7661   -6175.8423    3547.6023    18264.937    4.4038709 
    3260    1144.3304    -6302.669   -6175.0173    4452.7844    18260.141    4.4242562 
    3270    1143.2696   -6301.7118   -6174.1784    4886.8494    18258.556    4.4560014 
    3280    1182.0771   -6305.1859   -6173.3235    3628.2661    18260.388    4.4948771 
    3290    1208.6286   -6307.3167   -6172.4924    2274.2669    18264.816     4.527473 
    3300    1198.2536   -6305.4206   -6171.7536    2674.8943     18270.98    4.5524633 
    3310    1179.9238   -6302.7431   -6171.1208    3363.9608     18279.06    4.5758037 
    3320    1174.1203   -6301.5076   -6170.5327    3146.5376    18289.491     4.600815 
    3330    1198.4899   -6303.6786   -6169.9852    2344.2684     18302.12    4.6353276 
    3340    1185.7617   -6301.7771   -6169.5036    3101.4589    18316.537    4.6758684 
    3350    1162.5378   -6298.7703   -6169.0875    3359.5193    18333.116    4.7094246 
    3360    1194.0237   -6301.8902    -6168.695    2147.8734    18351.977    4.7358087 
    3370     1180.713   -6300.0398   -6168.3295    2163.8237    18372.436    4.7649775 
    3380    1179.8097   -6299.6423   -6168.0327    2291.9076    18394.422    4.7963513 
    3390    1190.1734    -6300.534   -6167.7683    1120.8208    18417.931    4.8331036 
    3400    1180.0976    -6299.159   -6167.5174    21.842939    18442.207    4.8748991 
    3410    1173.6255   -6298.2312   -6167.3115   -1122.5208    18466.401    4.9160717 
    3420    1178.3527   -6298.5637   -6167.1167   -1813.2877    18489.721    4.9559704 
    3430    1196.1706   -6300.4001   -6166.9655   -1951.4797    18511.647    4.9932125 
    3440    1196.4278   -6300.3433     -6166.88   -1390.5584    18532.102    5.0326197 
    3450    1198.8794   -6300.6201   -6166.8833   -714.83653    18551.446    5.0768668 
    3460     1214.969   -6302.5163   -6166.9847   -464.39434    18570.142    5.1267826 
    3470    1224.1218   -6303.7576    -6167.205    -661.3409    18588.381    5.1823066 
    3480    1223.3869   -6304.0369   -6167.5662   -955.68719    18606.048    5.2357549 
    3490    1228.1501   -6305.0762   -6168.0742   -1515.6564    18622.905    5.2967674 
    3500    1212.7617   -6303.9973   -6168.7119   -2161.3377    18638.526    5.3691545 
    3510    1161.8137   -6299.0407   -6169.4386   -2107.7857    18652.536    5.4426565 
    3520    1168.5084    -6300.529   -6170.1801   -3011.3921     18664.83    5.5118391 
    3530      1150.22    -6299.209   -6170.9003   -3097.9757    18674.881    5.5796923 
    3540    1158.3217   -6300.8196   -6171.6071   -3202.1428    18682.565    5.6518152 
    3550     1153.717   -6300.9883   -6172.2894   -3315.1193    18687.831    5.7303044 
    3560    1146.3932   -6300.8367   -6172.9548   -3083.0251    18690.602    5.8116349 
    3570    1125.6615   -6299.1324   -6173.5632   -2481.1487    18691.087    5.8930084 
    3580    1143.4184    -6301.664    -6174.114   -2693.4451    18689.641    5.9705941 
    3590    1156.2252   -6303.5991   -6174.6204   -2920.4737    18686.185    6.0373695 
    3600    1173.4254   -6306.0321   -6175.1347   -3368.8267    18680.522    6.0850181 
    3610    1165.4894   -6305.6776   -6175.6655   -3007.1097     18672.41    6.1219956 
    3620     1164.441   -6306.1045   -6176.2094   -2655.3556    18662.067    6.1573455 
    3630    1164.5048   -6306.6629   -6176.7606   -2855.8255    18649.722    6.1969646 
    3640    1142.7237   -6304.7751   -6177.3026   -2381.4921    18635.338    6.2457524 
    3650    1123.3878   -6303.1069   -6177.7913   -1624.5949     18619.24    6.3058739 
    3660    1106.7899   -6301.6415   -6178.1774   -282.18821    18602.037    6.3668302 
    3670    1114.8427   -6302.8124   -6178.4501    352.08131    18584.631    6.4052266 
    3680    1121.3374   -6303.6942   -6178.6073    418.66864    18567.516    6.4171822 
    3690    1143.2667   -6306.2248   -6178.6917    35.109791    18550.742    6.4179841 
    3700    1142.7182   -6306.1891   -6178.7172   -23.594877     18534.08    6.4188874 
    3710    1147.8538   -6306.7541   -6178.7093    620.42103    18517.501    6.4191163 
    3720    1150.9767   -6307.0565   -6178.6633    1686.3058    18501.474    6.4202895 
    3730    1147.0322   -6306.5344   -6178.5812    1826.0057    18486.692    6.4223985 
    3740     1148.593   -6306.5984   -6178.4711     1240.626    18473.251    6.4243729 
    3750    1136.1346   -6305.0641   -6178.3266    1277.6929    18460.802    6.4238265 
    3760    1133.3862   -6304.5675   -6178.1366    879.56984    18449.278    6.4220612 
    3770    1129.6534   -6303.8854   -6177.8709     872.7362    18438.479    6.4276994 
    3780    1160.6989   -6307.0351   -6177.5574    575.92664    18428.298    6.4376132 
    3790    1165.4379   -6307.2195   -6177.2132    1011.2729    18418.605    6.4472631 
    3800    1159.8115   -6306.2464   -6176.8676    1536.0769    18409.673    6.4570621 
    3810    1173.2826   -6307.4011   -6176.5196    1609.1673    18401.857     6.464332 
    3820    1206.2215   -6310.7417   -6176.1859    1426.4198    18395.218    6.4698215 
    3830    1233.6952    -6313.575   -6175.9544    1356.3915    18389.625    6.4757824 
    3840    1205.9239   -6310.3872   -6175.8646    1412.1641    18385.048    6.4869562 
    3850    1198.6541   -6309.6015   -6175.8899     244.6745    18381.434    6.5087656 
    3860    1193.2112   -6309.1065    -6176.002   -761.70615    18378.008    6.5421994 
    3870    1175.1158   -6307.2701   -6176.1841    -605.0161    18374.118    6.5838709 
    3880    1151.4012   -6304.8227   -6176.3822   -208.95245    18369.809    6.6200225 
    3890    1154.2353   -6305.3291   -6176.5724   -379.38805    18365.296    6.6421141 
    3900    1123.1113    -6302.003   -6176.7183   -340.08446    18360.536    6.6497012 
    3910    1136.8363   -6303.6256   -6176.8098   -254.17025    18355.518    6.6442594 
    3920    1122.4497   -6302.0257   -6176.8148    911.37726      18350.4    6.6439831 
    3930    1149.6403   -6305.0045   -6176.7603     1315.579    18345.885    6.6543409 
    3940    1167.7218   -6306.9275   -6176.6664    944.55328     18342.27    6.6729483 
    3950    1147.6312   -6304.5984   -6176.5784    1186.7115    18339.393     6.697546 
    3960    1136.9021   -6303.2748   -6176.4517    1548.2306    18337.399     6.724792 
    3970    1176.2726   -6307.5072   -6176.2922    636.81036    18336.446    6.7487382 
    3980    1177.2389   -6307.4552   -6176.1324   -146.17156     18335.96    6.7646148 
    3990     1194.069    -6309.224   -6176.0238    231.94413    18335.442    6.7752677 
    4000    1196.6812   -6309.4607   -6175.9691    1115.3621     18335.14    6.8043869 
    4010    1196.2453   -6309.4426   -6175.9996    1278.2068    18335.601    6.8564758 
    4020    1203.1357   -6310.3262   -6176.1146    422.74238    18336.926    6.9039718 
    4030    1193.7342   -6309.4836   -6176.3207    619.78891    18338.664    6.9354502 
    4040    1170.3269     -6307.14   -6176.5882    1103.6365    18340.889    6.9616734 
    4050    1145.1502   -6304.6203    -6176.877    1415.4537    18343.923    6.9875177 
    4060    1115.0897   -6301.5087   -6177.1188     1263.665    18347.973    7.0088057 
    4070    1126.7762   -6302.9643   -6177.2707    323.03772    18352.927    7.0324905 
    4080    1135.0666   -6303.9605   -6177.3421    230.82327    18358.232    7.0620804 
    4090    1125.9037   -6302.9365   -6177.3403    404.78647    18363.764    7.0920446 
    4100    1164.6724   -6307.2106   -6177.2896   -32.720038    18369.595    7.1153017 
    4110    1154.1566    -6305.958   -6177.2101    41.933409    18375.494    7.1381092 
    4120    1145.1798   -6304.8803   -6177.1338    98.250626    18381.451    7.1678871 
    4130    1132.4333   -6303.3324   -6177.0078    603.28116    18387.572    7.2040617 
    4140    1158.3744   -6306.0534    -6176.835    341.60625     18394.11    7.2484327 
    4150    1179.0143   -6308.1397   -6176.6189    217.09916    18400.999    7.2984015 
    4160    1200.8451   -6310.3999   -6176.4438    -105.3215    18408.079    7.3458948 
    4170     1206.233   -6310.9029   -6176.3458      252.968    18415.212    7.3864911 
    4180    1201.0968   -6310.3327   -6176.3486    428.94187    18422.577    7.4196545 
    4190    1183.3368   -6308.4472   -6176.4441    266.55945    18430.289    7.4478048 
    4200    1116.0529    -6301.053   -6176.5556    601.94642    18438.322    7.4680087 
    4210    1119.2994   -6301.4584   -6176.5989   -282.01616    18446.794    7.4732418 
    4220    1145.5324   -6304.3307   -6176.5449   -1215.9217    18455.149    7.4612821 
    4230    1117.1894   -6301.0561    -6176.432   -1126.1643    18462.743    7.4423524 
    4240    1123.4191   -6301.5641    -6176.245   -870.92467    18469.613    7.4293814 
    4250     1138.024   -6302.9081   -6175.9598   -613.90222    18475.931    7.4242421 
    4260    1162.8407   -6305.3394   -6175.6228   -334.78276     18481.87     7.416754 
    4270    1165.6168   -6305.2817   -6175.2554   -14.006977    18487.641    7.4131181 
    4280    1164.5176   -6304.8092   -6174.9056   -897.92211    18493.365     7.425267 
    4290    1152.9335   -6303.1733   -6174.5618   -1674.9759    18498.501    7.4538631 
    4300    1133.1429   -6300.5864   -6174.1826    -1542.521    18502.529    7.4906566 
    4310    1182.6278   -6305.6925   -6173.7686   -2004.4646    18505.393    7.5217763 
    4320    1190.5683   -6306.1723   -6173.3626   -1732.5752    18506.859    7.5485404 
    4330    1165.5518   -6303.0287   -6173.0096   -805.20026    18507.104    7.5834423 
    4340    1152.8773    -6301.282   -6172.6768   -387.12091    18506.717    7.6332359 
    4350    1149.3759   -6300.5187   -6172.3041   -344.56135    18506.036    7.6950283 
    4360    1179.3965   -6303.4669   -6171.9035   -1078.5646    18505.021    7.7597799 
    4370    1201.2271   -6305.5289   -6171.5302   -1530.5691    18503.214    7.8253904 
    4380    1194.4687   -6304.4816   -6171.2368   -1331.8659    18500.288    7.8898409 
    4390    1182.4039   -6302.9151   -6171.0161   -1142.5928    18496.337    7.9479277 
    4400    1171.1894   -6301.4819    -6170.834   -1142.2773    18491.475     8.004707 
    4410    1169.1137   -6301.0962   -6170.6798   -295.17948    18485.768    8.0590945 
    4420    1171.3207   -6301.1911   -6170.5285    409.61055     18479.78    8.1061173 
    4430    1200.1044   -6304.2925    -6170.419   -415.00685    18473.909    8.1405536 
    4440    1191.4998   -6303.2904   -6170.3768   -940.31192    18467.697    8.1694403 
    4450      1171.42   -6301.0675   -6170.3939   -1100.6916    18460.731    8.2054911 
    4460    1175.1169   -6301.5182   -6170.4322   -1461.8222    18452.835    8.2482587 
    4470    1187.7997   -6303.0047   -6170.5039   -1214.0213    18443.813    8.2949863 
    4480    1196.1135   -6304.0534   -6170.6251   -342.76515    18433.829    8.3468507 
    4490     1200.042    -6304.688   -6170.8215    73.234008    18423.444    8.3952032 
    4500      1198.45   -6304.8082   -6171.1193    203.69282    18412.974    8.4243239 
    4510    1177.5906   -6302.8545   -6171.4925    425.72036    18402.533    8.4340604 
    4520    1168.8738   -6302.3138   -6171.9242    489.90255    18392.263    8.4358809 
    4530    1167.8967   -6302.6469   -6172.3663    858.05766    18382.257     8.444512 
    4540    1190.6527   -6305.6755   -6172.8564    799.20277    18372.703    8.4755847 
    4550      1175.39   -6304.5103   -6173.3937    1056.5332     18363.64    8.5215613 
    4560    1143.4881   -6301.5062   -6173.9484    1556.9706    18355.244    8.5582727 
    4570    1137.5744   -6301.3657   -6174.4676    2188.3393     18347.89    8.5749338 
    4580    1153.9017   -6303.6645    -6174.945    2273.0664    18341.993    8.5811491 
    4590    1152.7398   -6303.9805   -6175.3906    2522.8024    18337.694    8.5924472 
    4600    1167.6145   -6306.0786   -6175.8294    2538.8952    18335.165    8.6156169 
    4610    1186.8614   -6308.6855   -6176.2893    2154.7999     18334.43     8.641466 
    4620    1160.4136   -6306.2396   -6176.7937    2380.8683     18335.31    8.6661303 
    4630    1144.3712   -6304.9592   -6177.3029    2810.4974    18337.972    8.7015053 
    4640    1151.1215   -6306.1929   -6177.7836    2653.2585    18342.708    8.7531165 
    4650    1162.9851   -6307.9761   -6178.2433    2252.2118    18349.441    8.8073781 
    4660    1172.5256   -6309.5062   -6178.7092    2390.5765    18357.982    8.8556484 
    4670    1173.3253   -6310.1053   -6179.2191    2311.6261      18368.4    8.9010989 
    4680    1134.4965    -6306.288   -6179.7332    2695.7462    18380.744     8.943197 
    4690    1118.1515   -6304.9249   -6180.1934    2437.2406    18395.233    8.9715881 
    4700    1106.5949   -6303.9933    -6180.551    1871.6922    18411.759    8.9927526 
    4710     1099.825   -6303.4782   -6180.7911    558.68506    18429.896    9.0191509 
    4720    1102.8829   -6303.9164   -6180.8881    -664.4786    18448.792    9.0542675 
    4730    1107.0268   -6304.3321   -6180.8416   -1500.4506     18467.55    9.0923022 
    4740    1138.8627   -6307.7184   -6180.6766   -2171.7191    18485.515    9.1300148 
    4750    1135.3332     -6307.08   -6180.4319   -1896.8037    18502.235    9.1735051 
    4760      1143.68    -6307.703   -6180.1238   -1978.3529    18517.799     9.224415 
    4770     1184.093   -6311.8499   -6179.7626   -2600.2235    18532.106    9.2779937 
    4780    1165.8091   -6309.4472   -6179.3994   -2228.5682    18544.786    9.3234803 
    4790    1158.5029   -6308.2864   -6179.0536   -1808.2012    18555.989     9.356874 
    4800     1139.382   -6305.7757   -6178.6759   -1181.4779    18566.043    9.3841993 
    4810    1126.3621   -6303.8842   -6178.2368    -1378.387     18575.33    9.4159214 
    4820    1105.6788   -6301.0223   -6177.6821    -1905.632    18583.731    9.4563516 
    4830     1114.923   -6301.3552   -6176.9839   -2755.4653    18590.814    9.4924842 
    4840    1151.2157   -6304.5572   -6176.1373   -3157.7142    18595.983    9.5264476 
    4850    1155.0285   -6304.0503   -6175.2051   -2379.2885    18598.962     9.562369 
    4860    1137.3745   -6301.1277   -6174.2519   -1393.6885    18600.215    9.5934682 
    4870    1138.8948   -6300.3166   -6173.2712   -951.64711    18600.416    9.6108168 
    4880    1157.7874   -6301.4349   -6172.2819   -1712.7467     18599.81    9.6185671 
    4890    1161.2067   -6300.8758   -6171.3415   -2792.2493    18597.874    9.6264479 
    4900    1151.0289   -6298.8912   -6170.4922   -2793.3184    18593.892    9.6357332 
    4910    1143.4773   -6297.2872   -6169.7305   -2590.6925    18587.757    9.6405693 
    4920    1169.3052   -6299.4943   -6169.0566   -3452.4075    18579.495     9.632955 
    4930    1182.3496   -6300.3833   -6168.4904   -4029.4784    18568.543    9.6140229 
    4940    1167.3624   -6298.2641    -6168.043   -3617.4346    18554.471    9.5926601 
    4950    1153.1887    -6296.312   -6167.6721    -3046.726     18537.48    9.5760599 
    4960    1164.0825   -6297.2015   -6167.3463   -2771.2633    18517.937    9.5706166 
    4970     1158.653   -6296.3158   -6167.0663   -2364.0275    18496.068    9.5765081 
    4980    1144.7574   -6294.5175   -6166.8181   -1414.9096    18472.196    9.5880962 
    4990    1137.3523   -6293.4267   -6166.5533   -271.72244    18446.976    9.6002977 
    5000     1163.688   -6296.0692   -6166.2581    154.91127    18421.195     9.602318 
Loop time of 2512.62 on 16 procs for 3000 steps with 864 atoms

Performance: 0.103 ns/day, 232.650 hours/ns, 1.194 timesteps/s
96.7% CPU use with 16 MPI tasks x 1 OpenMP threads

MPI task timing breakdown:
Section |  min time  |  avg time  |  max time  |%varavg| %total
---------------------------------------------------------------
Pair    | 1972.8     | 2229.4     | 2467.7     | 346.4 | 88.73
Bond    | 0.00027347 | 0.00077417 | 0.0022106  |   0.0 |  0.00
Neigh   | 0.03984    | 0.045444   | 0.057053   |   2.5 |  0.00
Comm    | 42.805     | 210.61     | 512.56     | 988.9 |  8.38
Output  | 0.18619    | 0.19051    | 0.25313    |   3.7 |  0.01
Modify  | 0.74327    | 72.385     | 154.43     | 750.8 |  2.88
Other   |            | 0.01649    |            |       |  0.00

Nlocal:        54.0000 ave          68 max          47 min
Histogram: 3 4 1 3 2 1 1 0 0 1
Nghost:        543.938 ave         606 max         501 min
Histogram: 3 3 2 1 1 2 0 1 1 2
Neighs:         0.00000 ave           0 max           0 min
Histogram: 16 0 0 0 0 0 0 0 0 0
FullNghs:      2520.75 ave        3421 max        1986 min
Histogram: 3 1 4 3 1 0 2 1 0 1

Total # of neighbors = 40332
Ave neighs/atom = 46.680556
Ave special neighs/atom = 0.0000000
Neighbor list builds = 300
Dangerous builds = 300
unfix   2

fix     3 all npt temp 1162.5 1162.5 $(100.0*dt) aniso 1.01325 1.01325 $(1000.0*dt)
fix     3 all npt temp 1162.5 1162.5 0.10000000000000000555 aniso 1.01325 1.01325 $(1000.0*dt)
fix     3 all npt temp 1162.5 1162.5 0.10000000000000000555 aniso 1.01325 1.01325 1
run     20000
Per MPI rank memory allocation (min/avg/max) = 8.906 | 8.911 | 8.919 Mbytes
Step Temp PotEng TotEng Press Volume c_msd[4] 
    5000     1163.688   -6296.0692   -6166.2581    154.91127    18421.195     9.602318 
    5010    1185.5726   -6298.5224     -6166.27   -548.37985    18421.148    9.6301103 
    5020    1180.8191   -6298.0518   -6166.3296   -362.32032    18420.756    9.6511416 
    5030    1180.8058   -6298.1494   -6166.4287    224.68414     18420.13    9.6560773 
    5040    1211.0483   -6301.6887   -6166.5945    359.35479    18419.629    9.6495002 
    5050    1204.3034   -6301.1962   -6166.8544    777.63649    18419.421    9.6543408 
    5060    1203.6591   -6301.5124   -6167.2424    1010.0955    18419.755    9.6841531 
    5070    1184.6388   -6299.8892   -6167.7409    1910.1176    18420.888    9.7368732 
    5080    1197.6706   -6301.9399   -6168.3379    1858.8876    18423.369     9.806151 
    5090    1194.8989   -6302.3464   -6169.0537    1262.0451    18427.199    9.8747062 
    5100    1164.7318   -6299.8011   -6169.8735     1267.625    18432.018    9.9298462 
    5110    1138.8547   -6297.7435   -6170.7026    897.23069    18437.764    9.9852529 
    5120    1140.3489   -6298.7258   -6171.5182    249.93086    18444.162    10.047351 
    5130    1135.1782   -6298.9199   -6172.2891    456.03741    18450.831    10.105005 
    5140    1140.5192     -6300.25   -6173.0234    966.70297    18457.864    10.144391 
    5150    1115.7895   -6298.1567   -6173.6887     1974.589    18465.687    10.162613 
    5160    1127.8269   -6300.0543   -6174.2435    1474.1623    18474.916    10.178202 
    5170     1179.667    -6306.337   -6174.7434   -49.336312    18485.228    10.204943 
    5180    1206.0859   -6309.8187    -6175.278   -879.64936      18495.6    10.238098 
    5190    1192.6106   -6308.9274   -6175.8898   -863.88208    18505.435    10.277122 
    5200    1148.7665   -6304.6748   -6176.5281   -316.48109    18514.743    10.328537 
    5210    1110.5216   -6300.9723    -6177.092   -373.49656    18523.819    10.388366 
    5220     1126.973   -6303.2484   -6177.5329   -846.11855     18532.63    10.451808 
    5230    1116.2435   -6302.3803   -6177.8616   -332.87132    18540.936    10.513354 
    5240    1097.4711   -6300.4952   -6178.0707    -252.3159    18549.009    10.563079 
    5250    1096.9954   -6300.5124   -6178.1409   -655.11573    18556.928    10.602153 
    5260    1095.2482   -6300.2359   -6178.0593    -405.9106     18564.46    10.629129 
    5270    1119.0979   -6302.7056   -6177.8685    156.96325    18571.758    10.650526 
    5280    1122.3574   -6302.8017    -6177.601    493.69353    18579.211     10.68469 
    5290    1099.4369   -6299.9231   -6177.2792    301.31413    18587.048    10.730523 
    5300    1085.8497   -6297.9957   -6176.8675   -329.89586     18595.14    10.770152 
    5310    1113.6015   -6300.6142   -6176.3903   -888.20903    18603.042     10.79289 
    5320     1113.327   -6300.0701   -6175.8768   -583.76928    18610.416    10.799293 
    5330    1123.3537   -6300.6847   -6175.3729   -1537.3466    18617.311    10.795155 
    5340     1136.952   -6301.7322   -6174.9035   -2711.2248    18623.092    10.795513 
    5350    1123.2335   -6299.7776   -6174.4792   -2559.5125    18626.984    10.812439 
    5360    1153.2084   -6302.7565   -6174.1144   -2332.2556    18628.977    10.847953 
    5370     1144.887   -6301.5014   -6173.7875   -2110.0459    18629.237    10.904056 
    5380    1139.1875   -6300.5848   -6173.5067    -2013.932    18627.896    10.963588 
    5390    1112.3234   -6297.2926   -6173.2113   -1057.3434    18625.107    11.005334 
    5400    1124.1403   -6298.2834   -6172.8839    -719.4949    18621.452    11.021874 
    5410    1158.7939   -6301.7737   -6172.5085   -1269.3562    18617.178    11.026747 
    5420    1183.1334   -6304.1348   -6172.1545   -1595.2508    18611.936    11.034998 
    5430    1153.8426   -6300.5695   -6171.8566   -978.26926    18605.527     11.04846 
    5440    1117.2163   -6296.1842    -6171.557   -624.60261    18598.343    11.068259 
    5450    1123.5539   -6296.5313   -6171.1972   -1293.1408    18590.566    11.092057 
    5460    1128.6864   -6296.6608   -6170.7541   -743.99163    18581.857    11.122136 
    5470    1165.4139   -6300.2519   -6170.2482    165.67772    18572.557    11.155169 
    5480    1197.1723   -6303.2663   -6169.7199    1280.5745    18563.356    11.192968 
    5490     1213.589    -6304.628   -6169.2503    1960.1351     18555.02    11.243741 
    5500    1210.7483   -6303.9589   -6168.8981    1960.7044    18548.065    11.305006 
    5510    1215.8206   -6304.2986    -6168.672    1816.2619    18542.547    11.370181 
    5520    1189.0521   -6301.2104   -6168.5699    1783.1634    18538.349    11.447107 
    5530    1133.6481    -6294.985   -6168.5248    1945.4502    18535.479     11.53237 
    5540    1123.4223   -6293.7576   -6168.4381    1398.7925    18533.998    11.611477 
    5550    1144.8393   -6295.9781   -6168.2696    1203.5062    18533.584    11.679215 
    5560    1154.5977   -6296.8414   -6168.0443    1114.6378    18534.065    11.734226 
    5570    1144.1568   -6295.4112   -6167.7788    760.52773    18535.371    11.774238 
    5580    1170.4747    -6298.061   -6167.4928     166.4588    18537.231    11.793796 
    5590    1178.1338   -6298.6282   -6167.2056    1019.1998    18539.344     11.79267 
    5600    1181.7745   -6298.7606   -6166.9319    1823.2366    18542.229    11.781039 
    5610    1201.9785   -6300.7653   -6166.6828    1878.8565    18546.445    11.765737 
    5620    1201.8205   -6300.5616   -6166.4967    2268.1698    18552.121    11.763004 
    5630    1169.6886   -6296.8592   -6166.3787    2882.2949    18559.549    11.778475 
    5640    1190.2817   -6299.0752   -6166.2975     2365.556    18569.114    11.803882 
    5650     1232.937   -6303.8017   -6166.2657    1081.9808    18580.465    11.832203 
    5660    1242.4033   -6304.9855   -6166.3936    184.17394    18592.718    11.859651 
    5670    1197.7807   -6300.3256   -6166.7113    257.32819    18605.256    11.888635 
    5680    1155.7195   -6296.0791   -6167.1568    265.26296    18618.041    11.917895 
    5690    1143.6481   -6295.2197    -6167.644   -231.29788    18631.075    11.945243 
    5700     1122.203    -6293.324   -6168.1406    -646.2941    18644.025    11.970803 
    5710    1105.5673   -6291.9337    -6168.606    -1314.847    18656.534    12.002639 
    5720    1107.1148   -6292.5012   -6169.0009   -1880.2703    18668.124    12.044673 
    5730    1105.0581   -6292.5824   -6169.3115   -1949.3628    18678.394    12.085246 
    5740    1111.7932   -6293.5497   -6169.5275   -1837.4689    18687.282      12.1211 
    5750    1140.6981    -6296.913   -6169.6664   -1979.7582    18694.818    12.162901 
    5760     1145.168   -6297.5177   -6169.7725   -1949.8834    18700.904    12.217236 
    5770    1111.8754   -6293.8655   -6169.8341    -1810.224    18705.549    12.278931 
    5780    1119.1098   -6294.6489   -6169.8105   -2010.3816    18708.816    12.342907 
    5790    1120.1274   -6294.6164   -6169.6645   -1788.9506    18710.633    12.402608 
    5800    1127.5945   -6295.1898   -6169.4049   -2157.4016    18711.061    12.458532 
    5810    1126.3476   -6294.6593   -6169.0135   -2392.1478    18709.879    12.517602 
    5820    1150.2773   -6296.8047   -6168.4896   -2754.0842    18706.876    12.578633 
    5830     1165.633   -6297.8884   -6167.8603   -3246.4538    18701.766     12.63634 
    5840    1181.5021   -6298.9881   -6167.1898   -3274.7618    18694.204    12.692484 
    5850    1188.7442   -6299.1005   -6166.4943   -2309.0979    18684.229    12.748096 
    5860    1191.7309   -6298.7435   -6165.8041   -1384.1472    18672.481    12.798703 
    5870    1154.6724   -6293.9357   -6165.1302     -614.257    18659.664    12.844218 
    5880    1132.8606    -6290.797   -6164.4247   -704.19218    18646.308    12.880704 
    5890     1164.886   -6293.5902   -6163.6455   -1267.9109    18632.364    12.901192 
    5900    1186.2359   -6295.1505   -6162.8241   -348.17403     18617.54    12.907586 
    5910    1180.2276   -6293.6834   -6162.0272     1196.604    18602.482    12.906048 
    5920    1200.3497   -6295.1804   -6161.2796     1482.434    18588.217    12.905332 
    5930    1223.9721   -6297.1603   -6160.6244    1253.5374    18575.027    12.917889 
    5940    1231.5457   -6297.5064   -6160.1256    1323.4526    18562.775     12.95057 
    5950    1198.1499    -6293.434   -6159.7786    2789.3741    18551.596    12.991436 
    5960     1184.343   -6291.6304   -6159.5151    3748.0559    18542.445    13.034568 
    5970    1206.3257   -6293.8847   -6159.3173    3255.8697    18535.984    13.082954 
    5980    1235.7864   -6297.0838     -6159.23    2542.3982    18531.935    13.135518 
    5990    1247.8322   -6298.5154   -6159.3179    2163.4546    18529.791    13.186938 
    6000     1237.251   -6297.6278   -6159.6105    1992.3756    18529.264    13.231255 
    6010    1220.8113   -6296.2745   -6160.0912    2698.0548    18530.296    13.276089 
    6020    1205.3438   -6295.1747   -6160.7168    2999.9286    18533.315    13.323996 
    6030    1211.3645   -6296.6121   -6161.4826    1589.1284    18538.463    13.374075 
    6040    1197.7125   -6295.9836    -6162.377    73.776401    18544.819    13.425184 
    6050    1177.9885   -6294.7295   -6163.3231   -956.84299    18551.305    13.476702 
    6060    1198.0597   -6297.9662   -6164.3209   -2352.5267     18557.06    13.526217 
    6070      1173.82   -6296.2598   -6165.3184   -2222.0519    18561.197    13.573794 
    6080    1167.3434   -6296.4994   -6166.2805   -1262.9571    18563.752    13.625262 
    6090    1135.6295   -6293.7941   -6167.1129      321.814    18565.432    13.681398 
    6100    1137.6746   -6294.6897   -6167.7804    1202.7722    18567.315    13.723331 
    6110    1155.1217   -6297.1619   -6168.3063    1426.9896    18570.074    13.753364 
    6120    1151.0319   -6297.1217   -6168.7223    1741.5256    18573.929    13.790894 
    6130    1156.2109   -6298.0169   -6169.0398    1616.6194     18579.07    13.840964 
    6140    1158.5024   -6298.5181   -6169.2854    1198.9533    18585.431    13.894379 
    6150    1152.1509   -6298.0053   -6169.4811    805.23925     18592.74    13.952118 
    6160    1152.2869   -6298.1704    -6169.631    423.20452    18600.715     14.02322 
    6170    1159.5896   -6299.0994   -6169.7454   -306.89851    18609.039    14.106061 
    6180    1163.7284   -6299.6305   -6169.8149   -875.62992    18617.213    14.185569 
    6190    1182.9857    -6301.852   -6169.8882   -1493.9145    18624.768     14.25201 
    6200    1174.0308   -6300.9536   -6169.9887   -953.62285    18631.343    14.306556 
    6210    1157.4013   -6299.2108    -6170.101   -379.68432    18637.242     14.35332 
    6220    1149.0122   -6298.3786   -6170.2046   -183.28656    18642.868    14.393653 
    6230    1129.7982   -6296.2927    -6170.262   -333.82835    18648.395    14.428845 
    6240    1144.4319   -6297.9341    -6170.271   -1344.5311    18653.649    14.469128 
    6250    1141.2345   -6297.5373   -6170.2309   -1418.1581    18658.001     14.52864 
    6260    1138.8675   -6297.2018   -6170.1594   -1034.8625    18661.351    14.596747 
    6270    1126.8524   -6295.7312   -6170.0291    -797.9632    18663.937    14.658563 
    6280    1146.9183   -6297.7757   -6169.8352   -1047.0478    18665.895    14.714651 
    6290    1138.1006   -6296.5377   -6169.5809   -893.05789    18667.117    14.766541 
    6300    1132.2757   -6295.5744   -6169.2673   -782.91575    18667.672    14.813269 
    6310    1154.1175   -6297.6407   -6168.8972   -718.98691    18667.635    14.852618 
    6320    1155.1493   -6297.3437   -6168.4851   -60.045358    18667.114    14.897017 
    6330    1185.9591   -6300.3497   -6168.0541    159.56058    18666.531    14.963326 
    6340    1204.0588   -6301.9424   -6167.6278   -106.84747    18666.045    15.050997 
    6350    1178.0766   -6298.6786   -6167.2624    175.58628    18665.526    15.148455 
    6360    1169.0617   -6297.3373   -6166.9267    290.38178    18665.138    15.233236 
    6370    1199.7826   -6300.4396   -6166.6021   -557.26444    18664.892    15.296165 
    6380    1201.6358   -6300.3842   -6166.3399   -1116.4457    18664.255    15.347573 
    6390    1147.5482   -6294.1433   -6166.1326    -1335.901    18662.797    15.390037 
    6400    1146.3021     -6293.79   -6165.9183   -1866.6106    18660.297    15.417647 
    6410    1164.3429   -6295.5265   -6165.6423   -2137.2143    18656.388    15.437278 
    6420    1169.2861   -6295.7622   -6165.3266   -1983.4431    18650.869    15.458654 
    6430    1181.8536   -6296.8114   -6164.9739   -2452.3359    18643.754    15.474287 
    6440    1200.5467    -6298.536   -6164.6132   -2510.7261    18634.744    15.480186 
    6450    1201.9934   -6298.3541     -6164.27   -1865.5163    18623.782    15.486885 
    6460    1192.0088   -6296.9194    -6163.949     -940.574    18611.315    15.501071 
    6470    1207.5102   -6298.3374   -6163.6379   -864.41156    18597.931    15.519507 
    6480    1217.7584   -6299.2099   -6163.3671   -889.07561    18583.747    15.535944 
    6490    1222.2368   -6299.5296   -6163.1873   -1070.5782     18568.71    15.547912 
    6500    1203.1973   -6297.3415    -6163.123   -504.35083    18552.744    15.561036 
    6510    1186.9741   -6295.5511   -6163.1423    84.547849    18536.219    15.578811 
    6520    1189.1503   -6295.8724   -6163.2209   -313.47331    18519.495     15.61328 
    6530    1204.4249   -6297.7581   -6163.4027   -933.89983    18502.323    15.671611 
    6540    1212.6215   -6298.9889   -6163.7191     -611.838    18484.332    15.738022 
    6550    1203.3465   -6298.4136   -6164.1785    284.64987    18465.725    15.787998 
    6560    1190.8709    -6297.618   -6164.7746    1509.2735    18447.128    15.809092 
    6570    1171.7635   -6296.1896   -6165.4777    2134.8623    18429.364    15.816427 
    6580    1138.4961   -6293.2385   -6166.2375    2070.5068    18412.925    15.818451 
    6590    1153.8051   -6295.7227    -6167.014    1605.5281    18397.788    15.801813 
    6600    1143.7047   -6295.3534   -6167.7714    1881.5232    18383.708    15.778222 
    6610    1144.0354   -6296.1237   -6168.5049    2453.1041    18370.849    15.774175 
    6620    1154.5104   -6297.9832   -6169.1958    2829.0456    18359.618    15.782378 
    6630    1171.1267   -6300.5121   -6169.8711    3146.5392    18350.314    15.778872 
    6640    1160.1167   -6299.9505   -6170.5377    3617.5118    18343.217    15.754511 
    6650    1160.5691   -6300.6526   -6171.1893    3202.1483    18338.625    15.723561 
    6660    1163.4356   -6301.6027   -6171.8197    2474.6831    18336.312    15.705522 
    6670    1150.1528   -6300.7172   -6172.4159    2478.8295    18335.866     15.72076 
    6680    1142.3859   -6300.4145   -6172.9796    2581.7989    18337.231    15.766357 
    6690    1129.2481   -6299.4369   -6173.4676    2388.0749    18340.499    15.816281 
    6700    1133.5881   -6300.3405    -6173.887    2147.4008    18345.572    15.850056 
    6710    1136.7447   -6301.0386    -6174.233    2412.6055     18352.34    15.857607 
    6720    1168.1783   -6304.8454   -6174.5334     1329.827    18360.871    15.844273 
    6730     1193.855   -6308.0402   -6174.8639     969.6462    18370.565    15.833091 
    6740    1145.4907   -6303.0015   -6175.2203    1321.8516    18381.151    15.840047 
    6750    1137.2375    -6302.427   -6175.5665    945.57765    18392.798    15.860352 
    6760    1134.6339   -6302.4076   -6175.8375    609.40091     18405.32     15.88126 
    6770    1132.6394   -6302.3873   -6176.0397    293.71793    18418.467    15.887355 
    6780    1124.0836   -6301.5566   -6176.1634   -191.75029    18432.014    15.875277 
    6790    1129.3039   -6302.1865    -6176.211   -928.73281     18445.59    15.856872 
    6800    1121.9965   -6301.3394    -6176.179   -1027.1035    18458.716    15.844468 
    6810     1117.005   -6300.6632   -6176.0596   -1093.6819    18471.269    15.837136 
    6820    1146.6104   -6303.7404   -6175.8343   -2125.6159    18483.108    15.836877 
    6830    1160.7414   -6305.0417   -6175.5593   -2090.0531    18493.596    15.853573 
    6840    1134.5928   -6301.8175    -6175.252   -767.34186    18502.758    15.895267 
    6850    1115.7418   -6299.3267    -6174.864   -154.46333    18511.421    15.962664 
    6860    1123.9983   -6299.7223   -6174.3386   -1024.2938    18519.994    16.037688 
    6870    1128.9079   -6299.5708   -6173.6394   -1755.3567    18527.943    16.100258 
    6880    1131.1725   -6298.9573   -6172.7733    -1612.769    18534.746    16.150744 
    6890    1176.7236   -6303.0143    -6171.749   -1146.9145    18540.457     16.20925 
    6900    1177.3151   -6301.9545   -6170.6233   -99.474704    18545.437    16.293296 
    6910    1150.1779    -6297.802   -6169.4979    662.44844    18550.376    16.383779 
    6920    1154.8011   -6297.1889   -6168.3691    981.89423    18555.842    16.449684 
    6930    1170.3881   -6297.8065   -6167.2479    1400.4421    18562.115    16.501149 
    6940    1159.6737   -6295.5748   -6166.2114    1796.1569     18569.51    16.565262 
    6950    1174.7145   -6296.3244   -6165.2832    1217.8212    18578.273    16.636906 
    6960    1204.4369   -6298.8449   -6164.4881    382.46133    18588.032    16.702833 
    6970    1189.5925   -6296.5863   -6163.8855     33.92857     18598.24    16.768665 
    6980    1206.0413   -6298.0046   -6163.4689   -915.04294    18608.522    16.827167 
    6990    1184.9324   -6295.3696   -6163.1886   -157.81083    18618.372     16.87252 
    7000    1181.0914   -6294.7621   -6163.0096    290.44874    18628.182    16.898855 
    7010    1188.9867   -6295.5132     -6162.88    497.68512    18638.312    16.922287 
    7020    1162.0096   -6292.4364   -6162.8125    1607.9003     18649.01    16.969277 
    7030     1171.066   -6293.4021   -6162.7679    1065.3927    18660.918     17.03979 
    7040    1200.8422   -6296.7058     -6162.75   -616.36824    18673.691    17.119865 
    7050    1174.5677   -6293.8144   -6162.7896   -1047.0252    18686.222    17.207911 
    7060    1138.8783   -6289.8961   -6162.8525   -529.31526    18698.165    17.288887 
    7070    1131.7459   -6289.1265   -6162.8785   -490.89852    18709.793    17.355378 
    7080    1133.7596   -6289.3046    -6162.832   -569.20212    18721.186    17.416915 
    7090    1145.0431   -6290.4703   -6162.7391   -861.60995     18732.25    17.482831 
    7100    1113.8582   -6286.8325   -6162.5799   -502.03913    18742.848    17.542709 
    7110    1171.0481   -6292.9978   -6162.3656   -1967.2519    18753.023    17.579884 
    7120    1190.4553   -6294.9334   -6162.1363   -2644.9777    18761.876    17.614724 
    7130    1163.1158   -6291.7097   -6161.9624   -2167.3028    18768.892     17.66242 
    7140    1174.2808   -6292.8244   -6161.8316   -2437.0106    18774.264    17.721635 
    7150    1164.6536   -6291.6357   -6161.7168   -2328.7574    18777.872    17.791576 
    7160    1168.4058   -6291.9581   -6161.6207   -2192.8441    18779.738    17.855137 
    7170    1142.3555   -6288.9419   -6161.5104   -1810.5207    18779.957    17.903281 
    7180    1113.3695   -6285.5456   -6161.3475   -1030.9041    18778.837    17.952129 
    7190    1121.6945   -6286.2092   -6161.0825   -1356.8017    18776.837    18.005673 
    7200    1142.6786   -6288.1749   -6160.7073   -1666.8165    18773.782     18.06099 
    7210    1169.2111   -6290.6705   -6160.2432   -1070.9668    18769.499    18.117435 
    7220    1205.9676   -6294.2751   -6159.7476    -676.5097    18764.338    18.182097 
    7230    1188.8668    -6291.883   -6159.2631   -209.13935    18758.622    18.252513 
    7240    1214.4578   -6294.3078   -6158.8333   -510.79615    18752.638    18.314915 
    7250    1224.9745   -6295.1296   -6158.4819   -590.37255    18746.232    18.370959 
    7260    1189.4201    -6290.898   -6158.2163    -22.48711    18739.372    18.422137 
    7270    1192.2223   -6290.9897   -6157.9955   -638.92932    18732.338    18.460262 
    7280    1216.3067   -6293.5101   -6157.8293   -1202.8482    18724.749    18.486101 
    7290    1214.2961   -6293.2102   -6157.7537   -396.60538    18716.279    18.521448 
    7300    1203.2103   -6292.0038   -6157.7839    585.62959    18707.436    18.574827 
    7310    1226.8329   -6294.8057   -6157.9507    794.29651    18698.899    18.648712 
    7320     1204.386   -6292.6399   -6158.2889    1257.8685     18690.91    18.745981 
    7330    1185.5014   -6291.0396   -6158.7952    1680.0577    18683.827    18.846994 
    7340     1193.979     -6292.67   -6159.4798     1126.152     18677.88    18.939732 
    7350     1182.115    -6292.212   -6160.3453    1106.3106    18672.756    19.020435 
    7360    1180.1016   -6293.0019   -6161.3598    994.94487    18668.419    19.095507 
    7370    1181.4359   -6294.3092   -6162.5182    563.00374    18664.766    19.179168 
    7380    1130.0875   -6289.7671   -6163.7041    776.99065    18661.566    19.271349 
    7390    1140.8818   -6292.0936   -6164.8265    94.664195    18658.841     19.35121 
    7400    1149.0758   -6294.0384   -6165.8573   -351.14465    18656.188    19.421158 
    7410    1133.7846   -6293.2258   -6166.7504    74.714907    18653.326    19.493086 
    7420    1150.1563    -6295.835   -6167.5333   -327.53031    18650.409    19.562376 
    7430    1133.9656   -6294.6853   -6168.1898   -95.708473    18647.293    19.623055 
    7440    1143.0682   -6296.2602   -6168.7493    10.299698    18644.053    19.684582 
    7450    1140.2387   -6296.4032   -6169.2079     274.7285      18640.8    19.762315 
    7460    1122.4514   -6294.7818   -6169.5706    610.35073    18637.741    19.853495 
    7470    1131.0212   -6296.0169   -6169.8498    221.47557    18635.059    19.926812 
    7480    1123.6022    -6295.378   -6170.0385   -88.761596    18632.547    19.973646 
    7490    1113.0931   -6294.2884   -6170.1211   -909.00039    18629.912    20.011057 
    7500    1132.5648   -6296.4404   -6170.1011    -1802.606    18626.573    20.041135 
    7510    1141.1727   -6297.3073   -6170.0078   -1048.3253    18621.974    20.076108 
    7520    1128.2091   -6295.7141   -6169.8607    1301.8439    18616.669    20.124805 
    7530    1096.8048   -6291.9719   -6169.6216    3014.9285    18612.288    20.173505 
    7540    1165.7854   -6299.3482    -6169.303    1627.9062    18609.921    20.205799 
    7550     1185.539   -6301.1915   -6168.9428    567.70088    18608.789    20.240231 
    7560    1160.1185   -6298.0466   -6168.6336     1161.652     18608.21    20.292602 
    7570    1172.7586   -6299.1467   -6168.3237    830.02551     18608.43    20.353559 
    7580    1171.3819   -6298.6947   -6168.0253     983.8035    18609.314    20.415558 
    7590    1137.9035   -6294.6655   -6167.7307    1614.3415    18610.981    20.484382 
    7600    1159.6024   -6296.7543   -6167.3989     1431.081    18613.804    20.565046 
    7610    1148.1506   -6295.0971   -6167.0192    1705.0584    18617.755    20.666106 
    7620    1115.3577   -6291.0196   -6166.5998    2294.8239     18623.02    20.788624 
    7630    1123.9079   -6291.4402   -6166.0665    2302.5835    18630.008    20.904108 
    7640    1156.7968   -6294.4533   -6165.4108    1732.9348    18638.697    20.991315 
    7650    1160.9095   -6294.1653   -6164.6641    1464.0326    18648.731    21.051854 
    7660    1167.7613   -6294.1457   -6163.8802    1164.1588    18659.883    21.098137 
    7670    1143.9452   -6290.6657   -6163.0569    1453.9196    18671.991    21.140251 
    7680    1149.4385   -6290.4142   -6162.1926    1079.7455     18685.16    21.185731 
    7690     1150.372   -6289.5948   -6161.2691    91.635528    18699.103    21.233854 
    7700    1156.4575   -6289.3226    -6160.318    -627.2346    18713.128    21.265193 
    7710    1160.6557   -6288.8373   -6159.3645   -1066.8976      18726.7    21.275701 
    7720    1194.8276   -6291.7617   -6158.4769   -1829.5311    18739.413     21.27869 
    7730     1171.182   -6288.3568   -6157.7097    -1850.397    18750.765    21.297497 
    7740    1153.6599   -6285.7723   -6157.0798   -1404.1259    18760.713    21.338828 
    7750    1165.0821   -6286.4915   -6156.5249   -1020.2976    18769.574     21.37781 
    7760    1177.9155   -6287.4376   -6156.0394   -1396.6418     18777.58    21.404952 
    7770    1191.8432   -6288.6109    -6155.659   -2358.2109    18784.445    21.431647 
    7780    1177.2085   -6286.7079   -6155.3885   -2214.5623    18789.574     21.45933 
    7790    1165.5489   -6285.2113   -6155.1925   -1782.2496     18793.01    21.490019 
    7800      1173.25   -6285.9244   -6155.0466   -1533.9647     18795.06    21.536645 
    7810    1191.0353   -6287.8146   -6154.9528   -1661.6249    18795.914    21.608622 
    7820    1221.1457   -6291.1699   -6154.9492   -2198.3235    18795.459    21.686484 
    7830    1214.7809   -6290.5679   -6155.0573   -1834.5306    18793.417    21.751564 
    7840    1212.5704   -6290.5541     -6155.29   -1361.1106    18789.999    21.799023 
    7850    1158.2598   -6284.7794   -6155.5738   -594.21758    18785.594    21.824251 
    7860     1150.363   -6284.1635   -6155.8388   -645.65062    18780.703     21.81165 
    7870    1161.6701   -6285.6376   -6156.0516   -1253.6318    18775.323    21.758475 
    7880    1180.6355   -6287.9517   -6156.2501    -1780.993    18769.031    21.687228 
    7890    1178.5527   -6287.9259   -6156.4566   -1364.1871    18761.511    21.627011 
    7900    1174.5838   -6287.7102   -6156.6837   -735.76911    18753.023    21.581214 
    7910    1170.1628    -6287.464   -6156.9306   -655.56626    18744.003    21.543728 
    7920    1182.2132   -6289.0897    -6157.212   -454.14222    18734.563    21.515893 
    7930    1168.4881   -6287.8568   -6157.5102     520.0539    18724.921    21.509904 
    7940    1178.2334   -6289.2703   -6157.8366    1334.4528    18715.721    21.532177 
    7950    1175.1543   -6289.2698   -6158.1795    1498.6616    18707.544     21.58053 
    7960     1176.022   -6289.7337   -6158.5467    1318.9825     18700.53    21.646619 
    7970    1170.6098   -6289.5025   -6158.9192    1166.6674    18694.564    21.718872 
    7980    1192.5386   -6292.3609   -6159.3314    1116.9887    18689.532    21.794741 
    7990    1184.5146   -6291.9355   -6159.8011    1730.1692    18685.428    21.890235 
    8000     1192.309   -6293.3372   -6160.3334     1596.965    18682.613    22.003042 
    8010    1220.8944   -6297.1502   -6160.9576    578.51505    18680.965    22.116955 
    8020    1221.1184   -6297.9519   -6161.7343   -160.30227    18679.786    22.212178 
    8030     1178.619   -6294.0897    -6162.613     220.0431    18678.586    22.287488 
    8040    1132.8189   -6289.8406   -6163.4729    1097.2289    18677.587    22.365633 
    8050    1136.2073   -6290.9769   -6164.2313    1410.0924    18677.386    22.450223 
    8060    1159.5158   -6294.2463   -6164.9006    736.13161    18678.184    22.532466 
    8070    1151.6878   -6293.9757   -6165.5032    349.71675    18679.551    22.611416 
    8080    1123.0192   -6291.2872   -6166.0127    857.05486    18681.244    22.685723 
    8090    1127.3206   -6292.1556   -6166.4013    912.46274    18683.546    22.750079 
    8100     1146.147   -6294.5371   -6166.6826    162.71792    18686.481    22.810315 
    8110    1149.6011   -6295.1368   -6166.8971    -499.7675    18689.532    22.878663 
    8120    1120.2565   -6292.0099   -6167.0436   -288.05094    18692.255    22.962507 
    8130    1104.0101   -6290.2374   -6167.0834   -27.864774    18694.765     23.05946 
    8140    1111.3398   -6290.9856    -6167.014   -141.87542    18697.224    23.155356 
    8150    1108.3012   -6290.4923   -6166.8596    30.164429    18699.588    23.252019 
    8160    1085.6036    -6287.704   -6166.6032    353.28969    18701.979    23.353972 
    8170    1120.6856   -6291.2648   -6166.2506   -923.23637    18704.489    23.442822 
    8180    1119.3252   -6290.6841   -6165.8217   -1789.9332    18706.333    23.514847 
    8190    1108.4405   -6289.0226   -6165.3744    -1993.391    18706.857    23.580647 
    8200    1125.0969   -6290.3896   -6164.8834   -1867.2776    18705.903    23.651231 
    8210    1164.6759   -6294.3079   -6164.3865   -1473.8342    18703.566    23.723404 
    8220    1166.7622   -6294.0939   -6163.9398   -574.15123    18700.178    23.782697 
    8230    1138.0662   -6290.5098   -6163.5568     553.0792    18696.392    23.823468 
    8240    1122.7724   -6288.4271   -6163.1801    1653.2344    18693.068    23.863049 
    8250    1115.7809   -6287.2417   -6162.7746    2201.2366    18690.986    23.919062 
    8260    1146.7453   -6290.2568   -6162.3357    2045.1959    18690.528    23.986775 
    8270    1168.5049   -6292.2464   -6161.8979    2026.9786    18691.639    24.051276 
    8280    1169.4612   -6291.9685   -6161.5134    2054.6839    18694.283    24.109295 
    8290     1172.058   -6291.9336   -6161.1888    1654.4304    18698.427    24.164952 
    8300    1165.8026   -6290.9527   -6160.9056    748.06739    18703.756     24.22217 
    8310    1155.1904    -6289.519   -6160.6558   -98.659024    18709.626    24.284314 
    8320    1152.5542   -6288.9979   -6160.4288   -634.33296    18715.397    24.345224 
    8330    1131.4505   -6286.3964   -6160.1814   -166.24145    18720.739    24.399513 
    8340    1132.8593   -6286.2664   -6159.8942    5.7515871    18725.901     24.43975 
    8350    1162.1422   -6289.1997   -6159.5609    -195.1824    18731.003    24.471375 
    8360    1177.9144    -6290.633   -6159.2348    353.24736    18735.975    24.507706 
    8370    1180.1601   -6290.6078   -6158.9592    1331.7188    18741.202    24.549401 
    8380      1178.27    -6290.164   -6158.7262    2274.3275      18747.4    24.588625 
    8390     1180.627   -6290.2355   -6158.5348    2428.2653    18755.212    24.625002 
    8400    1160.0905   -6287.7927   -6158.3829    2090.7554     18764.78     24.66333 
    8410    1151.6775   -6286.7056   -6158.2342    569.04781    18775.769    24.703388 
    8420    1166.8848   -6288.2255   -6158.0578   -512.17847    18787.133    24.737682 
    8430    1163.0139   -6287.6135   -6157.8775   -424.85192    18798.098    24.766692 
    8440    1159.9492    -6287.102   -6157.7079   -501.60778     18808.63    24.802294 
    8450    1147.0383   -6285.4728   -6157.5189    -371.6461    18818.722    24.844665 
    8460    1142.0283   -6284.6921   -6157.2971   -286.51489    18828.435    24.887302 
    8470    1148.9026   -6285.1756   -6157.0138   -617.57546    18837.802    24.923298 
[...]
   22890    1187.4188   -6280.6032   -6148.1448   -251.72432     19128.19    90.737766 
   22900    1165.4755   -6278.5054   -6148.4948   -318.75289    19131.407    90.703158 
   22910    1143.8562   -6276.4372   -6148.8383   -181.07682    19134.388    90.716392 
   22920    1168.7685   -6279.5116   -6149.1338   -662.97196    19137.175    90.783587 
   22930    1180.3021   -6281.1007   -6149.4362   -410.82124    19139.506    90.873743 
   22940    1145.3747   -6277.5092   -6149.7409    405.06906     19141.56    90.957603 
   22950    1168.4067   -6280.3778   -6150.0402   -281.02165    19143.806    91.025208 
   22960    1202.8318   -6284.5293   -6150.3516   -1574.7702    19145.804     91.07487 
   22970    1227.9773   -6287.7588   -6150.7761   -2532.1979    19146.579    91.095545 
   22980    1215.7447   -6286.9719   -6151.3537   -2121.2596     19145.45    91.109915 
   22990    1179.4109   -6283.5992   -6152.0342   -1216.1701    19142.681    91.147927 
   23000    1164.9046   -6282.6893   -6152.7424   -853.26312     19138.91    91.178208 
   23010    1157.6935   -6282.5854   -6153.4429   -686.26985    19134.467    91.156924 
   23020     1124.451   -6279.5395   -6154.1053   -440.84493    19129.497    91.092834 
   23030    1087.1989    -6275.928   -6154.6493    407.21228     19124.24    91.042977 
   23040    1075.4521   -6274.9799   -6155.0116    1201.1621    19119.311    91.032871 
   23050    1110.0314   -6279.0229   -6155.1973    1147.2181    19115.286     91.05352 
   23060     1152.356   -6283.8249   -6155.2778     611.7548    19112.142     91.10809 
   23070    1139.8474   -6282.4671   -6155.3154    488.89405    19109.531    91.195184 
   23080    1143.8385   -6282.9145   -6155.3176   -67.841027    19107.277    91.278609 
   23090    1167.1383   -6285.4823   -6155.2863   -1169.8069    19104.936      91.3083 
   23100    1162.4777   -6284.9336   -6155.2574   -1632.4397    19101.727    91.265449 
   23110    1146.4576   -6283.1247   -6155.2356   -2112.1014    19097.228     91.18637 
   23120    1154.5077   -6283.9892   -6155.2021   -3264.5628    19091.008    91.133741 
   23130    1125.8958   -6280.7206   -6155.1253   -3337.1339    19082.297    91.122554 
   23140    1125.4968    -6280.534   -6154.9832   -2931.5682    19070.977    91.102052 
   23150     1147.159    -6282.718   -6154.7507   -2469.8594    19057.329    91.053487 
   23160     1154.963   -6283.2766   -6154.4387   -1715.1658     19041.76    91.012553 
   23170    1151.8592   -6282.5435   -6154.0518   -814.96335    19024.855    90.983546 
   23180    1131.5332   -6279.7688   -6153.5446    498.29258    19007.358    90.931496 
   23190    1162.5513    -6282.548   -6152.8636     152.8297    18990.112    90.850161 
   23200     1183.895    -6284.036   -6151.9707    153.59405    18973.047    90.750667 
   23210    1187.9335   -6283.4071   -6150.8914    483.12421    18956.117    90.669198 
   23220    1187.1545   -6282.0629    -6149.634    1417.7149    18939.614    90.627967 
   23230    1165.6557   -6278.2414   -6148.2108    3012.3815    18924.281    90.598379 
   23240    1175.6309   -6277.8147   -6146.6713     3537.839    18911.219    90.562526 
   23250    1213.7437   -6280.4918   -6145.0968    3337.3195    18900.876    90.540307 
   23260    1236.7991   -6281.6575   -6143.6907    2680.2896     18893.08    90.532572 
   23270    1251.1901   -6282.1584   -6142.5863    2613.7922      18887.4    90.533734 
   23280    1253.6016   -6281.6632   -6141.8221    3237.5524    18883.795    90.568746 
   23290    1252.8177   -6281.1243   -6141.3706    3423.8291    18882.671    90.666048 
   23300    1243.3002   -6279.8863   -6141.1942    2912.3977    18884.139    90.818792 
   23310    1206.5638   -6275.8023   -6141.2083    2137.2349    18887.826    90.991169 
   23320     1195.047   -6274.6457   -6141.3364    1765.7169    18893.198    91.146747 
   23330     1216.075   -6277.2014   -6141.5464    1455.3914     18899.93    91.304852 
   23340    1219.9674   -6277.9353   -6141.8461    1809.9443     18907.83    91.474156 
   23350    1226.3213   -6279.0445   -6142.2465    1879.5714    18917.101    91.651312 
   23360    1232.0185    -6280.202   -6142.7685    1532.6844    18927.772    91.832565 
   23370    1222.5561   -6279.7891   -6143.4111    602.93225     18939.55    92.032802 
   23380    1184.7769   -6276.2694   -6144.1057    271.90509     18951.84    92.258558 
   23390     1187.099   -6277.2196   -6144.7969 -0.055953438    18964.293    92.490442 
   23400    1186.1526   -6277.7997   -6145.4826   -49.937342    18976.727    92.686984 
   23410     1172.267   -6276.9233   -6146.1551    203.41935    18989.082    92.807407 
   23420    1156.1764   -6275.7456   -6146.7724    353.50426    19001.534    92.869031 
   23430    1179.4076   -6278.8966   -6147.3319   -670.32705    19014.114    92.925814 
   23440    1189.8083   -6280.5966   -6147.8717   -2124.7132    19026.073    93.008628 
   23450    1169.5041   -6278.8626   -6148.4027   -2834.8691    19036.364    93.132268 
   23460    1179.4466   -6280.4795   -6148.9105   -3810.8348    19044.337    93.267424 
   23470    1177.0707   -6280.7052   -6149.4012   -4178.0359    19049.331    93.396187 
   23480    1171.5676   -6280.5662   -6149.8761   -3895.6358    19051.061    93.526282 
   23490    1183.9841    -6282.426   -6150.3508   -3124.3546    19049.771    93.643251 
   23500    1169.9187   -6281.3191   -6150.8129   -1909.5473    19046.098    93.721752 
   23510    1148.8472   -6279.3785   -6151.2229    -685.7074    19041.007    93.754207 
   23520    1161.5566   -6281.1676   -6151.5942   -904.11435    19035.324    93.755565 
   23530    1146.1535   -6279.7531   -6151.8979   -813.29852    19029.067    93.754438 
   23540    1165.9495   -6282.2381   -6152.1747   -813.24743    19022.231    93.757969 
   23550    1183.6689   -6284.4803   -6152.4403   -765.67381    19014.878    93.780469 
   23560    1209.5156   -6287.6944   -6152.7711    -1230.333    19006.997      93.8174 
   23570    1206.1694   -6287.7507   -6153.2007   -1207.8031    18998.303    93.843779 
   23580    1192.7711   -6286.7478   -6153.6923    -717.6243    18988.833    93.854383 
   23590    1203.1744   -6288.4584   -6154.2425   -495.07877    18978.932    93.853692 
   23600    1197.6122   -6288.4463   -6154.8509    -270.5984    18968.801     93.86359 
   23610    1195.3735   -6288.8447    -6155.499    356.40932     18958.64     93.91461 
   23620    1190.4791    -6288.962   -6156.1623    1363.7676    18948.938    94.015544 
   23630    1174.9913   -6287.8943   -6156.8222    2001.8043    18940.384    94.150852 
   23640    1152.4601   -6285.9779   -6157.4193    2358.0773    18933.497    94.280078 
   23650    1159.4861   -6287.3051   -6157.9627    1429.0931    18928.428    94.374743 
   23660    1155.0341    -6287.291   -6158.4452    729.69764    18924.551    94.428573 
   23670    1119.2664   -6283.6933   -6158.8374    1075.0536     18921.37    94.436485 
   23680    1107.1261   -6282.5905   -6159.0889    1042.9615    18919.037    94.417327 
   23690    1142.5021    -6286.673   -6159.2251    41.253043    18917.458    94.425854 
   23700    1179.6037   -6290.8963   -6159.3098   -547.58023    18915.967    94.483419 
   23710    1196.0625   -6292.8484   -6159.4258   -972.91409     18914.09      94.5641 
   23720    1185.3605   -6291.8246   -6159.5958   -879.56219    18911.525    94.639329 
   23730    1162.4337   -6289.4643   -6159.7931   -514.32269    18908.338    94.714772 
   23740    1130.8537   -6286.1194    -6159.971   -262.71543    18904.803    94.794788 
   23750    1093.1736   -6281.9973   -6160.0521   -387.67513    18901.097    94.842896 
   23760    1132.7075   -6286.3746   -6160.0194   -1309.5381    18897.102     94.84864 
   23770    1161.4802   -6289.4784   -6159.9136   -1384.7996    18892.213    94.829666 
   23780    1164.8683    -6289.756   -6159.8132   -320.28529    18886.389    94.790866 
   23790    1146.2588   -6287.5763   -6159.7094    649.21767    18880.393    94.753623 
   23800    1145.4051   -6287.3621   -6159.5904     942.8249    18874.905    94.740934 
   23810    1128.0627   -6285.2617   -6159.4246    1351.1447    18870.226    94.762035 
   23820    1135.7841   -6285.9139   -6159.2154    1103.7195    18866.596    94.807974 
   23830    1137.5909   -6285.8535   -6158.9535    752.31521     18863.85    94.866525 
   23840    1150.5183   -6287.0027   -6158.6607    494.24244    18861.707    94.935495 
   23850    1141.9398     -6285.71   -6158.3249    942.36211    18860.031    95.015329 
   23860    1129.6718   -6283.9843   -6157.9677    1447.0479    18859.095    95.115568 
   23870    1124.5477   -6283.0067   -6157.5617    1624.4552    18859.267    95.255532 
   23880    1152.2261   -6285.6521   -6157.1195    819.86097    18860.597    95.410006 
   23890    1129.3928   -6282.6311   -6156.6456    930.79889     18862.62    95.540696 
   23900    1121.7862   -6281.2878   -6156.1509    1185.4003    18865.355    95.616808 
   23910    1144.1554   -6283.2357   -6155.6035    849.75367    18868.927    95.635839 
   23920    1165.6275   -6285.0783   -6155.0508    491.66608    18873.131    95.632054 
   23930    1197.3005   -6288.0995   -6154.5389   -248.95832    18877.655    95.635853 
   23940    1206.9435   -6288.7717   -6154.1354   -387.16107    18881.987    95.677731 
   23950    1188.2004   -6286.4079   -6153.8624   -75.765591    18886.026    95.772983 
   23960    1171.2999    -6284.344   -6153.6837     93.33282    18889.949    95.867374 
   23970    1141.8564   -6280.9251   -6153.5493    1146.7445    18893.969    95.915927 
   23980     1123.416   -6278.7154   -6153.3967    1602.8348     18898.79    95.951132 
   23990    1133.4487   -6279.6461   -6153.2082    1251.9532    18904.744    96.029042 
   24000    1124.4528   -6278.3989   -6152.9645    1255.6382    18911.668    96.163449 
   24010    1194.8626    -6286.008   -6152.7192    139.96618    18919.404    96.363648 
   24020    1212.4944   -6287.8031   -6152.5475   -345.29125    18927.251    96.615956 
   24030    1177.5767   -6283.8495   -6152.4891   -477.16205    18934.802    96.870215 
   24040    1149.8952   -6280.7436    -6152.471   -397.30585     18941.95    97.078256 
   24050    1138.8766   -6279.4771   -6152.4337   -302.77248    18948.756    97.232279 
   24060    1152.5024   -6280.9249   -6152.3615   -758.71466    18955.247    97.339689 
   24070     1151.301   -6280.6936   -6152.2642   -1048.2146    18961.139     97.40132 
   24080    1142.2447   -6279.5702   -6152.1511   -1369.2144    18966.179    97.439595 
   24090    1159.9676   -6281.4231    -6152.027   -1653.8676    18970.131    97.499512 
   24100    1157.3441   -6280.9882   -6151.8847   -2143.8439    18972.769    97.572067 
   24110    1161.6308    -6281.334   -6151.7523   -2249.7884     18973.76    97.611744 
   24120    1146.5244   -6279.5215    -6151.625   -1404.1146    18973.075    97.601077 
   24130    1145.4191   -6279.2506   -6151.4774   -507.31287    18971.315    97.565232 
   24140    1180.7755   -6283.0303    -6151.313   -403.22351     18969.11    97.530488 
   24150    1192.5853   -6284.2107    -6151.176   -229.97385    18966.619    97.538126 
   24160    1193.4893   -6284.2515    -6151.116    70.491873    18963.985     97.63115 
   24170    1177.1045   -6282.4306   -6151.1229    265.89598    18961.424    97.842417 
   24180    1185.3004   -6283.4014   -6151.1794   -40.791411    18959.048    98.152363 
   24190    1185.2232   -6283.4925   -6151.2791   -291.21476    18956.652    98.454029 
   24200    1153.7575   -6280.1149   -6151.4115    594.67534     18954.11    98.649754 
   24210    1155.8571   -6280.4829   -6151.5453    1213.0407    18952.009    98.730109 
   24220    1154.8208   -6280.4826   -6151.6606    1604.3287    18950.857    98.743786 
   24230    1172.0349   -6282.5187   -6151.7765    1171.2036    18950.878    98.764373 
   24240    1184.7242   -6284.0739   -6151.9161    886.71647    18951.836    98.830034 
   24250    1170.1313   -6282.6424   -6152.1125    854.28166    18953.502    98.929848 
   24260    1160.0021   -6281.7368   -6152.3368    544.80619     18955.81     99.03049 
   24270    1169.8985   -6283.0925   -6152.5886    279.31267    18958.543    99.114704 
   24280    1148.8405   -6281.0262   -6152.8713    809.89316     18961.55    99.198976 
   24290    1118.0172   -6277.8518   -6153.1353    1014.2881    18965.161    99.277874 
   24300    1153.1312   -6282.0032   -6153.3697    202.48709    18969.473    99.327935 
   24310    1151.6336   -6282.0715   -6153.6051   -98.854309    18973.998    99.337101 
   24320    1129.2321   -6279.8261   -6153.8586   -56.304928    18978.468    99.350961 
   24330    1130.8037    -6280.242   -6154.0992    362.09966    18982.921    99.441084 
   24340    1165.5246   -6284.3424   -6154.3264    201.72604    18987.616    99.567657 
   24350    1177.5467   -6285.9563   -6154.5992   -532.83571    18992.428    99.657973 
   24360      1174.72    -6286.022   -6154.9802   -1473.2956    18996.791    99.715462 
   24370    1153.6607   -6284.1369   -6155.4443   -2088.2127     19000.04    99.779478 
   24380     1170.162   -6286.5412   -6156.0078   -2799.7144    19001.655    99.888243 
   24390    1160.0231   -6286.0701   -6156.6678   -2713.6837    19001.149    100.02739 
   24400    1115.7636   -6281.8457   -6157.3806   -1536.2655    18998.602    100.14574 
   24410    1078.0683   -6278.2948   -6158.0347   -113.49005    18994.882    100.21951 
   24420    1086.6849   -6279.7797   -6158.5584   -103.42167    18990.975     100.2522 
   24430    1089.6836    -6280.505   -6158.9492   -485.03605    18986.971    100.25215 
   24440     1098.619   -6281.7658   -6159.2132   -326.10562    18982.632    100.23805 
   24450    1131.4861   -6285.5902   -6159.3712   -319.25363    18978.018    100.22336 
   24460    1139.0435   -6286.5189   -6159.4569      -104.81    18973.189     100.1977 
   24470    1165.4964   -6289.5212   -6159.5084   -635.53521    18968.231     100.1718 
   24480    1159.1657   -6288.8568   -6159.5502   -832.40906    18962.821    100.18096 
   24490    1122.7093   -6284.8165   -6159.5766   -862.21559    18956.768    100.23498 
   24500    1113.2701   -6283.7158   -6159.5288   -1066.5169    18950.026    100.30206 
   24510     1116.443   -6283.9123   -6159.3714   -1017.1143     18942.48    100.36618 
   24520    1121.6853   -6284.2243   -6159.0986   -940.22513    18934.144    100.46583 
   24530    1147.3638   -6286.7139   -6158.7238   -799.82929    18925.076    100.61469 
   24540    1163.9563    -6288.103   -6158.2619   -152.19742    18915.434    100.77412 
   24550    1173.8089   -6288.6979   -6157.7578    384.15803    18905.659    100.92299 
   24560     1181.581   -6289.0458   -6157.2387    1003.8319    18896.196     101.0588 
   24570    1173.1119   -6287.5801   -6156.7177    1575.3605    18887.513    101.17004 
   24580    1199.0133    -6289.958   -6156.2062    1382.6905    18879.993     101.2548 
   24590    1205.3373   -6290.1932    -6155.736    966.37543    18873.532    101.33154 
   24600    1167.7446   -6285.5919   -6155.3282    966.07553    18867.851    101.42501 
   24610    1133.5266   -6281.3696    -6154.923    1125.4943    18862.919    101.53577 
   24620    1147.5345   -6282.4655   -6154.4563    837.41746    18858.804    101.64793 
   24630    1168.7021   -6284.2886   -6153.9181    740.44339    18855.349    101.75255 
   24640    1161.0059   -6282.8627   -6153.3508    1095.9413      18852.5    101.82872 
   24650    1145.1524   -6280.4942   -6152.7507     970.4227    18850.453    101.83278 
   24660    1162.0337   -6281.7247   -6152.0981    938.46216    18849.151    101.77895 
   24670    1179.5103   -6282.9787   -6151.4026    1491.8805    18848.618    101.73719 
   24680    1182.0906   -6282.5768   -6150.7128    1873.3378    18849.235    101.77135 
   24690    1174.0571   -6281.0199   -6150.0521    1818.2752    18851.254    101.89855 
   24700    1199.7444   -6283.2547   -6149.4214    1016.6478    18854.627     102.0758 
   24710    1194.2559   -6282.0589   -6148.8378    256.86361    18858.799    102.25087 
   24720    1156.8837   -6277.3717   -6148.3196    757.04772    18863.277    102.38626 
   24730    1167.0508   -6277.9948   -6147.8086    1316.1422     18868.34    102.49409 
   24740    1159.7572   -6276.6595   -6147.2868     2321.999    18874.482     102.6253 
   24750    1168.8372   -6277.1391   -6146.7536    2960.3537    18882.446    102.80959 
   24760    1185.4008   -6278.4603   -6146.2271    2414.5442     18892.65    103.03595 
   24770    1193.5246    -6278.865   -6145.7255    1680.2953    18904.773    103.28125 
   24780    1214.9829     -6280.82   -6145.2868    719.91998    18918.225     103.5053 
   24790    1192.4338   -6277.9481   -6144.9303     639.9953    18932.366    103.67661 
   24800    1171.4722   -6275.3199   -6144.6404      1039.82     18947.15     103.8194 
   24810    1203.5303   -6278.6426    -6144.387    86.659083    18962.704    103.97059 
   24820    1204.1482   -6278.5004   -6144.1759   -447.20138    18978.453     104.1165 
   24830    1193.6167   -6277.1917   -6144.0419   -738.41776    18993.958    104.20387 
   24840    1187.3412   -6276.4218   -6143.9722   -682.75933    19008.982    104.23317 
   24850    1193.4379   -6277.0804   -6143.9506   -588.02355    19023.553    104.27281 
   24860     1212.498   -6279.2564   -6144.0004   -1133.6609    19037.665    104.34607 
   24870    1191.8605   -6277.1178    -6144.164   -966.66116    19050.997    104.42467 
   24880    1188.1825   -6277.0062   -6144.4627   -68.226925    19063.682    104.49128 
   24890    1199.8367   -6278.7695   -6144.9259    737.84663    19076.363    104.58872 
   24900    1192.2343   -6278.6106   -6145.6151    1099.7884     19089.65    104.73898 
   24910    1194.5459   -6279.8259   -6146.5726    696.91463    19103.796    104.90267 
   24920    1183.1877   -6279.7554    -6147.769    215.23786    19118.561    105.06314 
   24930    1199.1707   -6282.9549   -6149.1857   -507.44994    19133.538    105.23042 
   24940    1185.3003   -6282.9634   -6150.7414   -1001.6366    19148.204      105.409 
   24950    1155.8225   -6281.1916   -6152.2578   -1642.7131    19162.142    105.60602 
   24960    1153.9719   -6282.3216   -6153.5943   -2371.0239    19174.827    105.80866 
   24970    1145.6733   -6282.5272   -6154.7256   -2422.6729    19185.731    106.00555 
   24980    1117.6623   -6280.3021   -6155.6252   -2286.0612    19194.761    106.19194 
   24990    1099.9693   -6278.9783   -6156.2751   -1439.6349    19202.071    106.34148 
   25000    1114.6847   -6281.0696   -6156.7248    -428.3432    19208.266     106.4448 
Loop time of 16772 on 16 procs for 20000 steps with 864 atoms

Performance: 0.103 ns/day, 232.945 hours/ns, 1.192 timesteps/s
96.5% CPU use with 16 MPI tasks x 1 OpenMP threads

MPI task timing breakdown:
Section |  min time  |  avg time  |  max time  |%varavg| %total
---------------------------------------------------------------
Pair    | 13913      | 15205      | 16316      | 603.6 | 90.66
Bond    | 0.0021539  | 0.0053523  | 0.0134     |   4.7 |  0.00
Neigh   | 0.27906    | 0.29766    | 0.31598    |   1.9 |  0.00
Comm    | 350.59     | 1367.8     | 2675.8     |1885.4 |  8.16
Output  | 4.0795     | 4.1119     | 4.5817     |   6.0 |  0.02
Modify  | 64.569     | 194.46     | 372.87     | 740.4 |  1.16
Other   |            | 0.1075     |            |       |  0.00

Nlocal:        54.0000 ave          59 max          50 min
Histogram: 2 1 2 2 1 3 3 1 0 1
Nghost:        513.688 ave         529 max         499 min
Histogram: 1 2 2 0 4 1 3 0 0 3
Neighs:         0.00000 ave           0 max           0 min
Histogram: 16 0 0 0 0 0 0 0 0 0
FullNghs:      2397.50 ave        2662 max        2139 min
Histogram: 2 1 0 3 2 1 4 1 1 1

Total # of neighbors = 38360
Ave neighs/atom = 44.398148
Ave special neighs/atom = 0.0000000
Neighbor list builds = 2000
Dangerous builds = 2000
unfix   3
                
Total wall time: 5:47:51
