LAMMPS (2 Aug 2023)
OMP_NUM_THREADS environment is not set. Defaulting to 1 thread. (src/comm.cpp:98)
  using 1 OpenMP thread(s) per MPI task
units          metal
atom_style     full

read_data      initial-solid.data
Reading data file ...
  orthogonal box = (0 0 0) to (21.536477 21.536477 64.60943)
  1 by 1 by 1 MPI processor grid
  reading atoms ...
  1536 atoms
Finding 1-2 1-3 1-4 neighbors ...
  special bond factors lj:    0        0        0       
  special bond factors coul:  0        0        0       
     0 = max # of 1-2 neighbors
     0 = max # of 1-3 neighbors
     0 = max # of 1-4 neighbors
     1 = max # of special neighbors
  special bonds CPU = 0.002 seconds
  read_data CPU = 0.032 seconds
velocity       all create 300.0 1312343 dist gaussian

pair_style     chgnet/gpu /ocean/projects/cts180021p/wuziqi/clease/lammps-ASC/potentials/CHGNET
pair_coeff     * * /ocean/projects/cts180021p/wuziqi/chgnet/fine-tunning2/04-12-2024/epoch999_e52_f152_s406_mNA.pth.tar Cl K Li

variable myZlo equal zlo
variable myZhi equal zhi
variable myMid equal (${myZlo}+${myZhi})/2
variable myMid equal (0+${myZhi})/2
variable myMid equal (0+64.609429902909)/2

region   solid block INF INF INF INF ${myZlo} ${myMid}
region   solid block INF INF INF INF 0 ${myMid}
region   solid block INF INF INF INF 0 32.3047149514545
region   liquid block INF INF INF INF ${myMid} ${myZhi}
region   liquid block INF INF INF INF 32.3047149514545 ${myZhi}
region   liquid block INF INF INF INF 32.3047149514545 64.609429902909
group    gSolid region solid
768 atoms in group gSolid
group    gLiquid region liquid
768 atoms in group gLiquid

neighbor        0.3 bin
neigh_modify    delay 10

timestep        0.0005
compute msd all msd
thermo_style    custom step temp pe etotal press vol c_msd[4]
thermo          10
dump            1 all custom 10 xyz-npt.dump type id x y z
#dump           2 all custom 10 force-npt.dump type id fx fy fz

fix             1 all npt temp 300.0 300.0 $(100.0*dt) aniso 1.01325 1.01325 $(1000.0*dt)
fix             1 all npt temp 300.0 300.0 0.050000000000000002776 aniso 1.01325 1.01325 $(1000.0*dt)
fix             1 all npt temp 300.0 300.0 0.050000000000000002776 aniso 1.01325 1.01325 0.5
run             10000
Neighbor list info ...
  update: every = 1 steps, delay = 10 steps, check = yes
  max neighbors/atom: 2000, page size: 100000
  master list distance cutoff = 6.3
  ghost atom cutoff = 6.3
  binsize = 3.15, bins = 7 7 21
  1 neighbor lists, perpetual/occasional/extra = 1 0 0
  (1) pair chgnet/gpu, perpetual
      attributes: full, newton on
      pair build: full/bin
      stencil: full/bin/3d
      bin: standard
Per MPI rank memory allocation (min/avg/max) = 6.511 | 6.511 | 6.511 Mbytes
   Step          Temp          PotEng         TotEng         Press          Volume        c_msd[4]   
         0   300           -5725.3887     -5665.8644      46129.338      29967.135      0            
        10   305.53144     -5729.3265     -5668.7047      45937.001      30065.238      0.0018396455 
        20   319.35084     -5740.1525     -5676.7887      42567.121      30356.574      0.01334772   
        30   339.54667     -5755.6073     -5688.2364      36987.097      30811.461      0.049383644  
        40   363.29886     -5772.0242     -5699.9405      30340.916      31350.813      0.12082704   
        50   388.49669     -5786.6752     -5709.5919      24158.931      31873.885      0.22063105   
        60   412.98749     -5798.896      -5716.9534      19172.037      32327.515      0.33293685   
        70   436.33873     -5809.3704     -5722.7945      15597.27       32718.306      0.45044032   
        80   459.15912     -5818.7977     -5727.694       12976.974      33071.071      0.57430152   
        90   480.40985     -5827.4165     -5732.0963      10927.5        33401.662      0.70694819   
       100   497.60607     -5835.1307     -5736.3986      9288.8169      33714.755      0.84889129   
       110   508.56688     -5841.6603     -5740.7533      7921.6817      34009.084      0.99862311   
       120   512.12226     -5846.7026     -5745.0902      6850.2319      34281.761      1.1534149    
       130   507.8685      -5850.0685     -5749.3001      6072.6387      34531.018      1.3103665    
       140   496.14433     -5851.7736     -5753.3314      5521.1347      34757.151      1.4671752    
       150   478.94921     -5852.1709     -5757.1405      5156.664       34962.156      1.6223513    
       160   459.91102     -5851.9508     -5760.6979      4871.1825      35149.056      1.7751128    
       170   443.21404     -5851.949      -5764.009       4569.0581      35320.99       1.9251846    
       180   431.11127     -5852.6499     -5767.1113      4212.0212      35480.458      2.0726292    
       190   422.80184     -5853.9463     -5770.0563      3818.98        35629.124      2.2177703    
       200   416.49595     -5855.5247     -5772.8859      3423.4036      35768.042      2.361084     
       210   410.95163     -5857.1667     -5775.6281      3115.3176      35897.927      2.5031114    
       220   405.92558     -5858.844      -5778.3025      2881.7464      36019.588      2.6444543    
       230   401.79613     -5860.6421     -5780.92        2695.0216      36133.916      2.7856257    
       240   399.58241     -5862.7815     -5783.4986      2585.3352      36241.807      2.9270335    
       250   400.10584     -5865.4482     -5786.0615      2540.965       36344.268      3.0690755    
       260   403.03592     -5868.6053     -5788.6372      2570.8755      36442.414      3.2122406    
       270   406.74544     -5871.9551     -5791.251       2682.5401      36537.525      3.3571027    
       280   409.78367     -5875.2173     -5793.9103      2822.4532      36631.007      3.5042565    
       290   411.38546     -5878.2323     -5796.6075      2984.8811      36724.184      3.6541325    
       300   411.50753     -5880.9683     -5799.3193      3150.4786      36818.253      3.8069995    
       310   410.09588     -5883.3973     -5802.0284      3333.3063      36914.218      3.9629505    
       320   406.90441     -5885.4463     -5804.7106      3480.0142      37012.962      4.1219925    
       330   401.56001     -5887.021      -5807.3457      3640.9575      37115.12       4.2839821    
       340   394.01628     -5888.0892     -5809.9108      3821.5011      37221.283      4.4487201    
       350   384.92133     -5888.7561     -5812.3822      4017.1126      37332.085      4.6159507    
       360   375.51125     -5889.2622     -5814.7554      4168.3077      37448.137      4.7853329    
       370   367.00736     -5889.8459     -5817.0264      4272.7906      37569.775      4.9564118    
       380   359.56914     -5890.5476     -5819.2039      4332.2884      37697.022      5.1287029    
       390   352.96332     -5891.3291     -5821.2961      4363.8493      37829.637      5.3016209    
       400   347.06463     -5892.1743     -5823.3117      4366.6587      37967.254      5.4745308    
       410   342.19615     -5893.1547     -5825.258       4334.0972      38109.369      5.6467381    
       420   338.81949     -5894.3701     -5827.1435      4284.3314      38255.338      5.8176902    
       430   336.95056     -5895.8372     -5828.9813      4202.3425      38404.47       5.9870739    
       440   336.01133     -5897.45       -5830.7805      4084.3449      38555.981      6.1547734    
       450   335.10754     -5899.0356     -5832.5455      3953.5061      38708.979      6.3207595    
       460   333.44483     -5900.436      -5834.2758      3793.5925      38862.557      6.4851537    
       470   330.61239     -5901.5636     -5835.9654      3658.2573      39015.831      6.6480911    
       480   326.47756     -5902.3799     -5837.6021      3530.9869      39168.173      6.8099547    
       490   321.21776     -5902.9105     -5839.1763      3436.7611      39319.121      6.9713555    
       500   315.2446      -5903.2244     -5840.6753      3355.3562      39468.476      7.1330817    
       510   308.86315     -5903.3723     -5842.0894      3308.533       39616.214      7.2959428    
       520   302.42139     -5903.4192     -5843.4145      3283.0714      39762.529      7.4605569    
       530   296.08167     -5903.3921     -5844.6452      3296.312       39907.751      7.6274576    
       540   289.88567     -5903.3002     -5845.7827      3319.0243      40052.384      7.7971989    
       550   283.98048     -5903.1691     -5846.8233      3356.4322      40196.97       7.9703594    
       560   278.63848     -5903.0486     -5847.7627      3375.6408      40342.019      8.1473943    
       570   274.25965     -5903.0134     -5848.5964      3363.888       40487.85       8.3284567    
       580   271.09882     -5903.1079     -5849.318       3280.6872      40634.439      8.5131846    
       590   268.76551     -5903.2474     -5849.9205      3156.3323      40781.336      8.7006412    
       600   266.85327     -5903.3427     -5850.3951      3010.1424      40927.837      8.8896572    
       610   265.13957     -5903.3441     -5850.7366      2820.6297      41073.128      9.0789209    
       620   263.54373     -5903.2214     -5850.9306      2622.3765      41216.259      9.2669542    
       630   262.53511     -5903.068      -5850.9773      2416.6617      41356.303      9.4524132    
       640   262.73683     -5903.0002     -5850.8695      2220.3211      41492.468      9.6342778    
       650   264.49339     -5903.0911     -5850.6118      2031.8399      41624.117      9.8117462    
       660   267.54867     -5903.302      -5850.2165      1859.7306      41750.782      9.9842495    
       670   271.10562     -5903.4877     -5849.6964      1731.9847      41872.224      10.151542    
       680   274.2955      -5903.5111     -5849.087       1693.567       41988.572      10.313545    
       690   276.56419     -5903.2888     -5848.4145      1736.9403      42100.571      10.470394    
       700   278.35536     -5902.9343     -5847.7046      1813.4022      42209.49       10.622417    
       710   280.16233     -5902.5641     -5846.9759      1923.7705      42316.677      10.769758    
       720   282.25174     -5902.2473     -5846.2445      2022.9436      42423.462      10.912427    
       730   284.79563     -5902.0254     -5845.5179      2099.7394      42530.965      11.050257    
       740   287.85431     -5901.921      -5844.8066      2155.2095      42639.927      11.182832    
       750   291.12296     -5901.884      -5844.1211      2159.6144      42750.768      11.309816    
       760   294.07632     -5901.8137     -5843.4648      2117.3113      42863.459      11.431113    
       770   295.96204     -5901.5647     -5842.8416      2063.2367      42977.587      11.546812    
       780   296.09478     -5901.0066     -5842.2571      1998.7001      43092.594      11.657176    
       790   294.24651     -5900.0922     -5841.7094      1942.357       43207.921      11.762625    
       800   290.95397     -5898.9192     -5841.1898      1903.8797      43323.128      11.863631    
       810   287.45805     -5897.7209     -5840.6852      1880.624       43437.918      11.960941    
       820   284.70858     -5896.6666     -5840.1764      1833.7409      43552.125      12.055647    
       830   283.04598     -5895.8075     -5839.6471      1752.4191      43665.445      12.148812    
       840   282.76369     -5895.1882     -5839.0839      1654.9961      43777.329      12.24113     
       850   284.20773     -5894.8759     -5838.485       1550.6444      43887.16       12.333083    
       860   287.05924     -5894.8037     -5837.847       1424.8191      43994.345      12.425013    
       870   290.66602     -5894.848      -5837.1757      1282.8051      44098.244      12.51697     
       880   294.21793     -5894.8652     -5836.4882      1120.9143      44198.173      12.608311    
       890   297.33727     -5894.7931     -5835.7971      999.23448      44293.477      12.697853    
       900   299.43257     -5894.5232     -5835.1115      883.08833      44383.816      12.78441     
       910   300.2226      -5894.0171     -5834.4486      807.74018      44469.066      12.866877    
       920   300.19058     -5893.3718     -5833.8097      778.38579      44549.464      12.944596    
       930   300.40034     -5892.7994     -5833.1957      785.22605      44625.572      13.017532    
       940   301.43142     -5892.4135     -5832.6051      814.86094      44698.157      13.086328    
       950   303.02405     -5892.1597     -5832.0354      840.15313      44768.073      13.152078    
       960   304.65616     -5891.9432     -5831.4951      893.74625      44836.117      13.216112    
       970   305.72624     -5891.6444     -5830.9839      968.02662      44903.17       13.279891    
       980   305.87289     -5891.1998     -5830.5103      1061.6418      44970.174      13.344906    
       990   305.71835     -5890.7325     -5830.0736      1136.8419      45038.081      13.412482    
      1000   306.03892     -5890.3956     -5829.6731      1207.2313      45107.616      13.483516    
      1010   307.00956     -5890.2228     -5829.3077      1266.8411      45179.347      13.558397    
      1020   308.6316      -5890.2151     -5828.9782      1309.1087      45253.681      13.637245    
      1030   311.08834     -5890.4154     -5828.691       1329.9481      45330.802      13.720192    
      1040   313.81846     -5890.7197     -5828.4536      1309.0817      45410.667      13.807258    
      1050   315.8905      -5890.9501     -5828.2729      1297.9589      45492.924      13.898107    
      1060   316.66112     -5890.9922     -5828.1621      1298.5341      45577.289      13.992431    
      1070   315.98017     -5890.8208     -5828.1258      1324.2662      45663.651      14.090101    
      1080   314.15391     -5890.4941     -5828.1615      1326.1275      45752.066      14.190739    
      1090   311.8566      -5890.1396     -5828.2628      1301.849       45842.402      14.293546    
      1100   309.22306     -5889.772      -5828.4177      1276.5082      45934.306      14.397355    
      1110   306.29276     -5889.3882     -5828.6153      1244.8671      46027.388      14.500756    
      1120   303.96034     -5889.1534     -5828.8434      1199.0272      46121.249      14.60229     
      1130   303.37427     -5889.2878     -5829.094       1133.9809      46215.408      14.700444    
      1140   304.37485     -5889.7551     -5829.3628      1042.9032      46309.203      14.793596    
      1150   305.86213     -5890.3422     -5829.6547      951.17213      46401.85       14.880233    
      1160   307.08571     -5890.9047     -5829.9745      853.12534      46492.585      14.959079    
      1170   307.97137     -5891.4294     -5830.3235      758.04085      46580.66       15.029058    
      1180   308.31621     -5891.8795     -5830.7052      695.57393      46665.471      15.089523    
      1190   307.77086     -5892.1846     -5831.1184      639.44179      46746.736      15.140366    
      1200   306.01205     -5892.2736     -5831.5564      614.58288      46824.318      15.181782    
      1210   303.26013     -5892.1849     -5832.0138      630.1839       46898.384      15.214263    
      1220   300.21388     -5892.045      -5832.4783      664.4336       46969.47       15.238858    
      1230   297.55002     -5891.9736     -5832.9354      729.79758      47038.27       15.257153    
      1240   295.71574     -5892.0502     -5833.3759      793.14605      47105.652      15.271257    
      1250   294.71544     -5892.2659     -5833.7901      846.52217      47172.369      15.283262    
      1260   294.24382     -5892.5621     -5834.1799      900.30774      47239.042      15.294899    
      1270   293.66828     -5892.8079     -5834.5399      951.10266      47306.201      15.307843    
      1280   292.83145     -5892.9708     -5834.8689      990.74309      47374.279      15.323756    
      1290   292.168       -5893.1338     -5835.1635      998.45505      47443.564      15.34405     
      1300   292.21735     -5893.4033     -5835.4232      988.67135      47514.057      15.369555    
      1310   292.83347     -5893.7494     -5835.647       921.82455      47585.478      15.400654    
      1320   293.38418     -5894.0486     -5835.837       839.85675      47657.13       15.437051    
      1330   293.43293     -5894.2156     -5835.9943      762.54756      47728.205      15.47827     
      1340   293.25152     -5894.3046     -5836.1193      692.32303      47798.037      15.52367     
      1350   293.36286     -5894.4229     -5836.2155      618.9112       47866.134      15.572525    
      1360   293.86971     -5894.5869     -5836.279       548.88343      47932.062      15.624269    
      1370   294.16821     -5894.6785     -5836.3113      504.52933      47995.469      15.678521    
      1380   293.89059     -5894.6272     -5836.3151      474.53843      48056.261      15.734931    
      1390   293.04151     -5894.4368     -5836.2931      470.24029      48114.562      15.792874    
      1400   291.35775     -5894.05       -5836.2405      463.94742      48170.646      15.851293    
      1410   289.30197     -5893.5601     -5836.1584      488.97841      48224.832      15.908928    
      1420   287.28065     -5893.0371     -5836.0365      504.47433      48277.602      15.964852    
      1430   285.78467     -5892.575      -5835.8712      535.52036      48329.399      16.018513    
      1440   285.06931     -5892.2205     -5835.6586      574.44729      48380.743      16.069803    
      1450   285.54222     -5892.0502     -5835.3945      588.64259      48432.103      16.118967    
      1460   287.08088     -5892.0403     -5835.0793      593.79369      48483.709      16.166362    
      1470   288.82008     -5892.0242     -5834.7181      617.23598      48535.693      16.212533    
      1480   290.09646     -5891.8784     -5834.3191      644.88262      48588.273      16.258297    
      1490   290.94915     -5891.6217     -5833.8932      697.09919      48641.744      16.304578    
      1500   291.58085     -5891.2965     -5833.4427      759.07876      48696.583      16.352232    
      1510   292.35041     -5890.9823     -5832.9758      791.85472      48753.289      16.401997    
      1520   293.23757     -5890.6765     -5832.494       826.08833      48812.111      16.454417    
      1530   294.22654     -5890.3802     -5832.0015      845.87271      48873.164      16.51003     
      1540   295.42339     -5890.1177     -5831.5014      882.10234      48936.515      16.569539    
      1550   297.41821     -5890.0104     -5830.9983      904.254        49002.319      16.633987    
      1560   300.16073     -5890.0525     -5830.4963      885.72285      49070.545      16.704198    
      1570   302.74755     -5890.0745     -5830.005       842.86405      49140.77       16.78032     
      1580   304.85503     -5890.0199     -5829.5323      814.70889      49212.408      16.861727    
      1590   306.58411     -5889.921      -5829.0903      795.06262      49285.077      16.947242    
      1600   307.98971     -5889.7921     -5828.6825      749.07153      49358.461      17.035266    
      1610   308.88947     -5889.6002     -5828.3121      718.30368      49432.092      17.123772    
      1620   309.36714     -5889.3633     -5827.9804      693.18666      49505.609      17.211002    
      1630   309.65252     -5889.1311     -5827.6916      686.16258      49578.787      17.2959      
      1640   310.05083     -5888.9612     -5827.4427      685.93112      49651.669      17.37827     
      1650   310.5511      -5888.8524     -5827.2346      663.49924      49724.289      17.458195    
      1660   311.15285     -5888.807      -5827.0698      651.77123      49796.52       17.535536    
      1670   311.83242     -5888.8209     -5826.9489      634.76806      49868.295      17.610319    
      1680   312.11326     -5888.8037     -5826.876       612.34472      49939.505      17.682708    
      1690   311.60969     -5888.6814     -5826.8536      589.58893      50010.033      17.75286     
      1700   310.65227     -5888.5177     -5826.8798      534.42868      50079.693      17.820876    
      1710   309.32395     -5888.324      -5826.9497      491.72793      50148.063      17.886213    
      1720   307.13083     -5887.9984     -5827.0593      455.64763      50214.856      17.948422    
      1730   304.0253      -5887.5216     -5827.1986      403.58365      50279.834      18.007032    
      1740   300.7872      -5887.0327     -5827.3522      348.0782       50342.626      18.061454    
      1750   298.59264     -5886.754      -5827.509       265.14134      50402.807      18.111071    
      1760   297.2281      -5886.6324     -5827.6581      202.28848      50459.801      18.15489     
      1770   295.94446     -5886.5138     -5827.7942      147.85609      50513.194      18.191921    
      1780   295.21739     -5886.4889     -5827.9135      119.96385      50562.799      18.221549    
      1790   295.61095     -5886.6665     -5828.0131      89.388551      50608.661      18.243658    
      1800   297.02087     -5887.0302     -5828.097       101.74131      50650.902      18.258391    
      1810   298.59094     -5887.4154     -5828.1707      120.21072      50689.975      18.266505    
      1820   299.61504     -5887.6904     -5828.2425      177.70099      50726.481      18.269105    
      1830   300.5132      -5887.9442     -5828.3181      252.77181      50761.333      18.267653    
      1840   301.88926     -5888.3005     -5828.4014      326.50292      50795.549      18.263706    
      1850   303.44795     -5888.7056     -5828.4971      410.08632      50830.076      18.2588      
      1860   304.37533     -5888.9985     -5828.6061      487.02161      50865.828      18.254533    
      1870   304.0396      -5889.059      -5828.7331      561.63905      50903.594      18.252215    
      1880   302.51386     -5888.896      -5828.8729      628.69039      50944.026      18.252872    
      1890   300.35454     -5888.6144     -5829.0197      678.40194      50987.614      18.25718     
      1900   298.64476     -5888.4207     -5829.1653      682.16827      51034.597      18.265385    
      1910   297.9963      -5888.4291     -5829.3023      660.49371      51084.732      18.276937    
      1920   298.19429     -5888.599      -5829.433       628.35875      51137.457      18.291029    
      1930   298.78976     -5888.8352     -5829.551       591.59714      51192.144      18.30714     
      1940   299.06228     -5889          -5829.6618      559.87589      51248.18       18.324986    
      1950   298.73941     -5889.0385     -5829.7643      511.1798       51305.032      18.344292    
      1960   297.96169     -5888.9802     -5829.8604      488.39421      51362.141      18.364629    
      1970   297.16996     -5888.9084     -5829.9457      461.14138      51419.165      18.385701    
      1980   296.75906     -5888.9008     -5830.0195      427.66686      51475.821      18.407258    
      1990   296.70059     -5888.9487     -5830.0791      390.87296      51531.789      18.429086    
      2000   296.85766     -5889.0234     -5830.1226      367.00579      51586.778      18.451219    
      2010   297.34715     -5889.1512     -5830.1533      322.82068      51640.543      18.473762    
      2020   298.58181     -5889.4135     -5830.1705      267.41292      51692.701      18.496514    
      2030   300.23574     -5889.7515     -5830.1804      212.5939       51742.816      18.519302    
      2040   301.40801     -5889.9902     -5830.1866      162.85018      51790.497      18.542243    
      2050   301.36546     -5889.9895     -5830.1943      119.70592      51835.429      18.565633    
      2060   300.22594     -5889.7775     -5830.2083      120.36756      51877.45       18.589838    
      2070   298.61699     -5889.4728     -5830.2229      129.70905      51916.802      18.615186    
      2080   297.52114     -5889.2644     -5830.2319      144.52899      51953.893      18.641773    
      2090   297.40022     -5889.2424     -5830.234       162.6569       51989.159      18.669541    
      2100   297.71783     -5889.2992     -5830.2277      189.3599       52023.015      18.698201    
      2110   297.83669     -5889.3058     -5830.2107      210.74723      52055.924      18.727361    
      2120   297.72332     -5889.2582     -5830.1856      248.8823       52088.306      18.756432    
      2130   297.73939     -5889.2271     -5830.1513      260.59751      52120.645      18.784877    
      2140   298.04254     -5889.2421     -5830.1062      246.38775      52153.128      18.812084    
      2150   298.77891     -5889.3347     -5830.0527      254.47025      52185.643      18.837454    
      2160   299.53424     -5889.4252     -5829.9933      271.72134      52218.28       18.860769    
      2170   300.16496     -5889.49       -5829.933       280.1793       52251.243      18.882136    
      2180   300.61312     -5889.5167     -5829.8708      293.18441      52284.667      18.902053    
      2190   300.70134     -5889.4746     -5829.8112      316.22191      52318.668      18.921282    
      2200   300.70956     -5889.4175     -5829.7524      328.36399      52353.493      18.940676    
      2210   301.07547     -5889.4336     -5829.6959      327.76568      52389.263      18.961073    
      2220   301.52656     -5889.4684     -5829.6412      317.01435      52425.914      18.98315     
      2230   301.42798     -5889.3977     -5829.5901      330.154        52463.322      19.007322    
      2240   300.62609     -5889.1923     -5829.5437      332.60348      52501.555      19.034008    
      2250   299.61026     -5888.9491     -5829.5021      331.37531      52540.627      19.063445    
      2260   299.70221     -5888.9227     -5829.4575      318.85173      52580.452      19.095649    
      2270   301.80936     -5889.2952     -5829.4119      301.6493       52620.829      19.130689    
      2280   305.11424     -5889.9133     -5829.3743      276.23051      52661.495      19.168647    
      2290   307.68983     -5890.407      -5829.3569      237.81292      52702.15       19.209455    
      2300   308.46619     -5890.5743     -5829.3702      219.81636      52742.412      19.252837    
      2310   307.65757     -5890.4626     -5829.419       229.91893      52782.124      19.298581    
      2320   305.97284     -5890.2089     -5829.4995      252.19383      52821.48       19.346799    
      2330   304.06557     -5889.9357     -5829.6047      269.41324      52860.807      19.397451    
      2340   302.4102      -5889.7273     -5829.7248      275.73032      52900.327      19.450018    
      2350   301.30131     -5889.6368     -5829.8543      268.62512      52940.114      19.503804    
      2360   300.94747     -5889.6987     -5829.9864      239.23092      52980.08       19.557727    
      2370   301.19071     -5889.8811     -5830.1206      210.86236      53019.906      19.61044     
      2380   302.01393     -5890.1836     -5830.2597      163.18013      53059.224      19.660601    
      2390   303.25422     -5890.5765     -5830.4066      105.81499      53097.515      19.706978    
      2400   304.04497     -5890.894      -5830.5672      56.689346      53134.16       19.748597    
      2410   303.41591     -5890.9435     -5830.7414      25.655336      53168.676      19.784709    
      2420   301.28765     -5890.7091     -5830.9293      36.735729      53200.921      19.815109    
      2430   298.76026     -5890.3989     -5831.1206      63.348952      53231.196      19.840487    
      2440   296.88823     -5890.2133     -5831.3064      63.614438      53259.918      19.861796    
      2450   296.03826     -5890.218      -5831.4798      74.79652       53287.299      19.879873    
      2460   295.86241     -5890.3407     -5831.6374      89.734278      53313.573      19.895868    
      2470   295.8406      -5890.4773     -5831.7783      115.09139      53339.043      19.911052    
      2480   295.07563     -5890.4506     -5831.9033      147.15206      53364.103      19.92641     
      2490   293.31372     -5890.207      -5832.0094      176.66642      53389.211      19.942513    
      2500   291.27816     -5889.8848     -5832.091       210.25193      53414.763      19.959641    
      2510   289.97146     -5889.6749     -5832.1404      234.96594      53441.152      19.977927    
      2520   289.84473     -5889.6621     -5832.1528      236.96094      53468.648      19.997318    
      2530   290.82323     -5889.832      -5832.1285      220.31348      53497.224      20.017332    
      2540   292.5161      -5890.1078     -5832.0684      193.16218      53526.586      20.037346    
      2550   294.25435     -5890.3656     -5831.9813      142.72017      53556.321      20.056642    
      2560   295.52527     -5890.5066     -5831.8701      98.033994      53585.799      20.074374    
      2570   296.21857     -5890.5128     -5831.7388      61.191119      53614.451      20.090013    
      2580   296.56059     -5890.4352     -5831.5933      30.366457      53641.884      20.103309    
      2590   296.69484     -5890.3019     -5831.4334      44.245205      53667.853      20.11427     
      2600   296.77465     -5890.1448     -5831.2604      80.425988      53692.596      20.123447    
      2610   296.56667     -5889.9199     -5831.0768      127.03734      53716.678      20.131696    
      2620   296.50142     -5889.7119     -5830.8818      200.81025      53740.776      20.139769    
      2630   296.71652     -5889.5479     -5830.675       265.50342      53765.793      20.148455    
      2640   297.25142     -5889.4369     -5830.458       320.44099      53792.558      20.158275    
      2650   298.25054     -5889.4087     -5830.2315      364.3193       53821.696      20.169322    
      2660   299.86348     -5889.4966     -5829.9994      383.8562       53853.615      20.181343    
      2670   302.10392     -5889.7112     -5829.7694      359.39188      53888.329      20.193784    
      2680   304.63601     -5889.9902     -5829.5461      321.96794      53925.361      20.206018    
      2690   306.62744     -5890.1792     -5829.3399      284.46112      53964.076      20.217611    
      2700   307.50289     -5890.1708     -5829.1578      241.55749      54003.832      20.228144    
      2710   307.18574     -5889.9569     -5829.0069      201.85269      54044.011      20.237272    
      2720   306.14555     -5889.6259     -5828.8822      173.44439      54084.067      20.244635    
      2730   305.07595     -5889.3135     -5828.782       131.1725       54123.539      20.249858    
      2740   304.70866     -5889.1597     -5828.7011      94.355191      54161.965      20.252593    
      2750   305.20469     -5889.1915     -5828.6345      69.115043      54198.95       20.252668    
      2760   306.32403     -5889.3655     -5828.5864      38.732681      54234.223      20.250173    
      2770   307.55556     -5889.5841     -5828.5607      11.950579      54267.496      20.245416    
      2780   307.83594     -5889.6405     -5828.5614     -3.2499907      54298.526      20.23918     
      2790   306.30799     -5889.3673     -5828.5914      17.336608      54327.322      20.232661    
      2800   303.01247     -5888.7671     -5828.6451      51.144712      54354.301      20.227382    
      2810   298.99864     -5888.0343     -5828.7087      109.13689      54380.092      20.225025    
      2820   295.70936     -5887.4432     -5828.7703      149.63924      54405.511      20.227131    
      2830   294.02836     -5887.1572     -5828.8178      174.11728      54431.141      20.234374    
      2840   293.63668     -5887.1045     -5828.8428      198.06306      54457.321      20.246756    
      2850   293.81203     -5887.1418     -5828.8453      211.36479      54484.353      20.263923    
      2860   294.04305     -5887.1675     -5828.8251      235.57941      54512.44       20.28528     
      2870   294.58491     -5887.2323     -5828.7824      241.68934      54541.762      20.310172    
      2880   295.17498     -5887.285      -5828.7181      265.61136      54572.379      20.337765    
      2890   295.55004     -5887.2784     -5828.6371      285.40005      54604.48       20.367468    
      2900   295.79947     -5887.2283     -5828.5374      299.25355      54638.286      20.398924    
      2910   296.10742     -5887.1722     -5828.4203      292.58421      54673.861      20.431942    
      2920   296.46266     -5887.1115     -5828.289       299.07175      54711.086      20.466439    
      2930   296.96786     -5887.0642     -5828.1415      286.01217      54749.885      20.502426    
      2940   298.2349      -5887.155      -5827.981       238.6958       54789.979      20.539717    
      2950   300.72184     -5887.4784     -5827.8109      174.42629      54830.714      20.577884    
      2960   303.80581     -5887.9193     -5827.6399      85.573099      54871.145      20.61615     
      2970   306.18832     -5888.2324     -5827.4803      12.757466      54910.161      20.653398    
      2980   307.12331     -5888.2797     -5827.342      -51.391653      54946.826      20.688517    
      2990   306.84899     -5888.1156     -5827.2324     -96.035421      54980.413      20.72035     
      3000   306.27765     -5887.9182     -5827.1483     -125.41345      55010.532      20.747955    
      3010   305.99967     -5887.8054     -5827.0907     -155.5202       55036.969      20.770548    
      3020   306.27418     -5887.8278     -5827.0586     -145.52803      55059.622      20.787568    
      3030   306.71863     -5887.908      -5827.0506     -110.67117      55078.848      20.799298    
      3040   306.91038     -5887.9684     -5827.073      -55.374967      55095.345      20.806678    
      3050   306.50739     -5887.9409     -5827.1255      17.441222      55110.093      20.811275    
      3060   305.50236     -5887.819      -5827.2029      94.360103      55124.188      20.815074    
      3070   304.0456      -5887.6296     -5827.3026      188.32301      55138.752      20.820027    
      3080   302.47283     -5887.4366     -5827.4217      277.82755      55155.034      20.828163    
      3090   301.09604     -5887.2935     -5827.5517      332.40656      55174.15       20.841188    
      3100   300.16626     -5887.2448     -5827.6875      361.0179       55196.741      20.860041    
      3110   300.12929     -5887.3748     -5827.8248      360.21403      55222.997      20.885019    
      3120   301.25279     -5887.7399     -5827.967       327.08571      55252.691      20.915717    
      3130   303.3092      -5888.2965     -5828.1156      268.77126      55285.191      20.951115    
      3140   305.78079     -5888.9487     -5828.2774      191.09022      55319.513      20.989687    
      3150   308.03141     -5889.5823     -5828.4644      112.90793      55354.476      21.029741    
      3160   309.36788     -5890.0638     -5828.6808      54.016064      55388.969      21.069801    
      3170   308.87904     -5890.2198     -5828.9338      31.874982      55422.248      21.108768    
      3180   306.67444     -5890.0671     -5829.2185      22.016407      55454.044      21.146125    
      3190   303.56322     -5889.7537     -5829.5224      37.299486      55484.327      21.181867    
      3200   300.2614      -5889.4127     -5829.8366      70.842938      55513.402      21.216353    
      3210   297.1165      -5889.0948     -5830.1427      111.31977      55541.818      21.250314    
      3220   294.66237     -5888.8971     -5830.4319      158.14102      55570.193      21.284541    
      3230   293.39531     -5888.9088     -5830.695       169.44831      55599.111      21.319685    
      3240   293.41511     -5889.149      -5830.9313      181.87863      55628.808      21.355927    
      3250   294.56666     -5889.5874     -5831.1412      198.94363      55659.45       21.393142    
      3260   296.30124     -5890.1206     -5831.3302      165.77601      55691.09       21.431009    
      3270   297.95997     -5890.6249     -5831.5054      143.15264      55723.342      21.468721    
      3280   298.72622     -5890.9453     -5831.6738      130.66532      55755.823      21.505473    
      3290   298.08281     -5890.9801     -5831.8362      135.57784      55788.344      21.540653    
      3300   296.36378     -5890.7948     -5831.992       160.70092      55821.005      21.573907    
      3310   294.50458     -5890.5659     -5832.132       174.9112       55854.129      21.605088    
      3320   293.00889     -5890.3879     -5832.2508      168.01792      55887.885      21.634188    
      3330   291.96191     -5890.2715     -5832.3421      148.94173      55922.145      21.661084    
      3340   291.39111     -5890.2166     -5832.4004      114.1873       55956.603      21.685447    
      3350   291.35834     -5890.2374     -5832.4278      73.569257      55990.802      21.706803    
      3360   291.79902     -5890.3169     -5832.4198      3.1488261      56024.139      21.724477    
      3370   292.31086     -5890.3792     -5832.3805     -63.580024      56055.684      21.73726     
      3380   292.92        -5890.4301     -5832.3105     -139.79791      56084.517      21.743897    
      3390   294.12481     -5890.5736     -5832.215      -188.38016      56109.767      21.7433      
      3400   295.97914     -5890.8223     -5832.0958     -227.86885      56130.927      21.735032    
      3410   297.98002     -5891.0852     -5831.9617     -252.02562      56147.657      21.719174    
      3420   299.31194     -5891.2072     -5831.8194     -250.69764      56159.856      21.696271    
      3430   299.80011     -5891.1581     -5831.6734     -220.00043      56167.811      21.667384    
      3440   300.13686     -5891.0764     -5831.525      -171.75585      56172.181      21.63403     
      3450   301.10037     -5891.1196     -5831.377      -145.51306      56173.774      21.597993    
      3460   302.76105     -5891.3027     -5831.2306     -99.369585      56173.215      21.560813    
      3470   305.04941     -5891.618      -5831.0919     -54.098214      56171.284      21.524133    
      3480   308.04513     -5892.0894     -5830.9688      8.6449791      56168.738      21.489508    
      3490   310.70911     -5892.5244     -5830.8753      72.180334      56166.454      21.45848     
      3500   311.43783     -5892.6138     -5830.82        148.6667       56165.37       21.432509    
      3510   309.61452     -5892.2435     -5830.8116      260.22562      56166.553      21.412779    
      3520   306.29348     -5891.6147     -5830.8417      361.98699      56171.414      21.400753    
      3530   303.78384     -5891.1735     -5830.8984      429.42303      56181.221      21.397724    
      3540   303.92862     -5891.2778     -5830.974       431.06642      56196.604      21.404344    
      3550   306.32922     -5891.8499     -5831.0697      372.30939      56217.307      21.420329    
      3560   308.78944     -5892.4625     -5831.1943      296.27383      56242.258      21.444594    
      3570   309.76723     -5892.8188     -5831.3566      238.60521      56270.178      21.476089    
      3580   308.73921     -5892.8174     -5831.5591      184.5624       56300.066      21.513999    
      3590   305.92674     -5892.4969     -5831.7967      145.60339      56331.069      21.557523    
      3600   302.02509     -5891.9799     -5832.0538      118.48863      56362.571      21.605753    
      3610   298.0615      -5891.4536     -5832.3139      93.85173       56394.147      21.657516    
      3620   295.54117     -5891.2006     -5832.561       65.692995      56425.426      21.711609    
      3630   295.23611     -5891.365      -5832.7859      30.975441      56456.04       21.766663    
      3640   296.33675     -5891.7872     -5832.9898     -8.8464783      56485.515      21.821081    
      3650   297.46668     -5892.1992     -5833.1776     -43.5351        56513.329      21.873176    
      3660   297.60838     -5892.4017     -5833.352      -67.838686      56539.075      21.9214      
      3670   296.60702     -5892.3662     -5833.5151     -63.628619      56562.512      21.964543    
      3680   295.364       -5892.2692     -5833.6647     -65.573391      56583.746      22.002075    
      3690   294.60425     -5892.2501     -5833.7964     -82.525152      56602.897      22.033984    
      3700   294.13763     -5892.267      -5833.9058     -84.388277      56619.913      22.06037     
      3710   293.82716     -5892.2948     -5833.9953     -72.611733      56634.817      22.081663    
      3720   293.62566     -5892.323      -5834.0635     -45.209811      56647.911      22.098808    
      3730   293.41221     -5892.3234     -5834.1062     -12.542671      56659.694      22.113163    
      3740   293.03086     -5892.267      -5834.1254      40.251116      56670.717      22.126185    
      3750   292.85437     -5892.2256     -5834.1191      87.559378      56681.771      22.139424    
      3760   292.88611     -5892.1978     -5834.085       135.54601      56693.6        22.154158    
      3770   292.51915     -5892.0604     -5834.0204      171.10169      56706.836      22.171348    
      3780   291.7172      -5891.8077     -5833.9269      205.88089      56721.981      22.191526    
      3790   290.83224     -5891.5063     -5833.8011      208.73859      56739.376      22.214734    
      3800   289.89326     -5891.1577     -5833.6387      233.62463      56759.062      22.240427    
      3810   288.73681     -5890.7263     -5833.4368      257.99238      56781.238      22.268158    
      3820   287.66344     -5890.2697     -5833.1931      289.09465      56806.175      22.297699    
      3830   287.66055     -5889.9844     -5832.9084      302.20459      56834.189      22.329203    
      3840   289.35218     -5889.9954     -5832.5837      271.59072      56865.274      22.362742    
      3850   292.33941     -5890.229      -5832.2247      220.79559      56898.899      22.398018    
      3860   295.4894      -5890.478      -5831.8487      170.59318      56934.255      22.434589    
      3870   297.93991     -5890.585      -5831.4694      130.33788      56970.49       22.47144     
      3880   299.4726      -5890.519      -5831.0994      103.958        57006.984      22.507382    
      3890   300.41046     -5890.3521     -5830.7463      80.927453      57043.319      22.541384    
      3900   301.36385     -5890.2089     -5830.414       58.465481      57079.147      22.572437    
      3910   302.79724     -5890.1803     -5830.101       22.972375      57114.131      22.599494    
      3920   305.01288     -5890.3308     -5829.8119     -20.523789      57147.805      22.621533    
      3930   307.98183     -5890.6589     -5829.5509     -56.453488      57179.614      22.637599    
      3940   311.62312     -5891.1584     -5829.328      -76.097353      57209.128      22.647311    
      3950   315.32383     -5891.7184     -5829.1536     -76.76171       57236.165      22.651301    
      3960   317.98014     -5892.1355     -5829.0437     -70.655523      57260.786      22.650836    
      3970   319.0609      -5892.3142     -5829.008      -15.720551      57283.292      22.647535    
      3980   318.62516     -5892.2703     -5829.0505      33.04462       57304.506      22.643579    
      3990   316.75831     -5892.019      -5829.1697      75.642516      57325.253      22.641159    
      4000   313.18219     -5891.5005     -5829.3607      131.84305      57346.246      22.642213    
      4010   308.23177     -5890.7629     -5829.6053      188.88884      57368.325      22.648447    
      4020   303.52108     -5890.1023     -5829.8794      214.93359      57392.278      22.660672    
      4030   300.22459     -5889.731      -5830.1621      199.48559      57418.38       22.678599    
      4040   298.84272     -5889.7346     -5830.4399      152.35468      57446.335      22.701272    
      4050   299.12986     -5890.0598     -5830.7082      61.688741      57475.311      22.727182    
      4060   300.47283     -5890.5857     -5830.9676     -43.746275      57503.927      22.754543    
      4070   302.17035     -5891.1775     -5831.2226     -155.88767      57530.589      22.78168     
      4080   303.3683      -5891.6711     -5831.4785     -242.87587      57553.719      22.80709     
      4090   303.76639     -5892.0143     -5831.7427     -284.67876      57572.188      22.829763    
      4100   303.20089     -5892.175      -5832.0156     -290.84309      57585.565      22.849162    
      4110   301.72672     -5892.1597     -5832.2928     -259.41835      57593.959      22.865086    
      4120   299.50656     -5891.993      -5832.5667     -194.80717      57598.092      22.877844    
      4130   296.9916      -5891.7561     -5832.8287     -118.58157      57599.07       22.888086    
      4140   294.47863     -5891.4968     -5833.068      -40.83437       57598.187      22.896601    
      4150   292.49152     -5891.3115     -5833.277       47.286214      57596.731      22.90416     
      4160   292.00551     -5891.3906     -5833.4525      134.79007      57596.082      22.911708    
      4170   293.38068     -5891.8063     -5833.5953      192.78225      57597.525      22.920047    
      4180   296.02506     -5892.4471     -5833.7115      228.75205      57601.866      22.929647    
      4190   298.60896     -5893.0624     -5833.8141      249.07015      57609.491      22.940594    
      4200   299.97744     -5893.4301     -5833.9102      286.40077      57620.637      22.952765    
      4210   299.6974      -5893.4744     -5834.0101      322.34569      57635.71       22.966194    
      4220   298.60663     -5893.3572     -5834.1093      359.2274       57655.072      22.980939    
      4230   298.26345     -5893.3887     -5834.2089      374.45758      57679.105      22.997295    
      4240   299.6209      -5893.7549     -5834.3058      338.2901       57707.789      23.015355    
      4250   302.19983     -5894.3657     -5834.4049      276.35419      57740.422      23.034842    
      4260   304.20263     -5894.8733     -5834.5151      190.28639      57775.897      23.055584    
      4270   304.10356     -5894.981      -5834.6425      119.24293      57812.845      23.077241    
      4280   301.28401     -5894.5613     -5834.7822      91.30744       57850.184      23.099686    
      4290   296.7515      -5893.8065     -5834.9268      57.717758      57887.346      23.123284    
      4300   292.34232     -5893.0605     -5835.0556      30.420593      57923.87       23.148165    
      4310   289.36041     -5892.5691     -5835.1558     -3.0208401      57959.344      23.174167    
      4320   288.04927     -5892.3677     -5835.2146     -34.65341       57993.298      23.200824    
      4330   288.83033     -5892.5343     -5835.2262     -89.753063      58025.259      23.227684    
      4340   291.48342     -5893.0323     -5835.1979     -147.73245      58054.475      23.25411     
      4350   293.97804     -5893.4626     -5835.1332     -170.60724      58080.22       23.279738    
      4360   294.7681      -5893.5293     -5835.0431     -156.82645      58102.298      23.304859    
      4370   293.61467     -5893.1887     -5834.9314     -117.50853      58121.031      23.330241    
      4380   291.4351      -5892.6182     -5834.7933     -55.346902      58137.176      23.356997    
      4390   289.36683     -5892.0352     -5834.6206     -6.6137487      58151.785      23.386525    
      4400   288.74288     -5891.6946     -5834.4039      29.065949      58165.702      23.419886    
      4410   290.21876     -5891.7253     -5834.1418      34.174894      58179.471      23.457384    
      4420   293.44526     -5892.063      -5833.8392      48.00445       58193.258      23.498468    
      4430   297.52942     -5892.5468     -5833.5127      59.820427      58207.28       23.542415    
      4440   301.75379     -5893.0565     -5833.1842      71.384282      58221.715      23.588396    
      4450   305.07603     -5893.4099     -5832.8785      98.286374      58236.717      23.635813    
      4460   306.42611     -5893.4095     -5832.6102      130.56883      58252.663      23.684379    
      4470   305.69637     -5893.0404     -5832.3859      168.30071      58270.057      23.733999    
      4480   303.34553     -5892.3896     -5832.2015      229.26686      58289.464      23.784658    
      4490   300.16776     -5891.6027     -5832.0451      285.56007      58311.723      23.836581    
      4500   297.36729     -5890.9058     -5831.9038      329.57954      58337.624      23.890047    
      4510   296.45472     -5890.5839     -5831.763       329.72849      58367.616      23.945114    
      4520   297.94288     -5890.7373     -5831.6212      302.73631      58401.632      24.001473    
      4530   300.73928     -5891.1497     -5831.4787      237.23413      58439.131      24.058508    
      4540   303.62683     -5891.5891     -5831.3452      152.48322      58478.967      24.115104    
      4550   305.99913     -5891.9421     -5831.2275      60.9548        58519.709      24.170048    
      4560   307.43825     -5892.1351     -5831.135      -39.80294       58559.89       24.222206    
      4570   307.34096     -5892.0538     -5831.073      -106.95719      58598.033      24.270616    
      4580   305.65406     -5891.6876     -5831.0415     -133.12768      58633.152      24.314753    
      4590   302.83114     -5891.1167     -5831.0307     -149.23874      58664.873      24.35442     
      4600   300.13763     -5890.5828     -5831.0312     -141.50139      58693.094      24.389417    
      4610   298.40839     -5890.2411     -5831.0326     -135.35398      58718.007      24.419826    
      4620   298.06531     -5890.1667     -5831.0263     -136.34229      58739.814      24.445999    
      4630   299.27796     -5890.3934     -5831.0124     -144.09458      58758.624      24.468419    
      4640   301.7313      -5890.8633     -5830.9955     -136.73814      58774.463      24.487603    
      4650   304.31707     -5891.365      -5830.9841     -145.05034      58787.463      24.504004    
      4660   306.19829     -5891.7448     -5830.9906     -125.89532      58797.729      24.518144    
      4670   306.9009      -5891.9172     -5831.0237     -108.30953      58805.581      24.530957    
      4680   306.64934     -5891.9344     -5831.0908     -74.192447      58811.449      24.543538    
      4690   306.15289     -5891.9407     -5831.1956     -42.309852      58815.923      24.557012    
      4700   305.94787     -5892.0476     -5831.3432     -13.342882      58819.536      24.572458    
      4710   305.76571     -5892.2069     -5831.5386      12.783422      58822.789      24.590702    
      4720   304.94855     -5892.297      -5831.7908      26.983311      58826.086      24.612296    
      4730   303.34722     -5892.2904     -5832.102       28.94113       58829.675      24.637396    
      4740   301.98025     -5892.3853     -5832.468       23.511225      58833.6        24.665887    
      4750   301.5003      -5892.6984     -5832.8764      7.1373785      58837.753      24.697551    
      4760   301.45837     -5893.1287     -5833.315      -29.363839      58841.814      24.731908    
      4770   301.02554     -5893.4894     -5833.7616     -56.078833      58845.247      24.768219    
      4780   299.60784     -5893.6366     -5834.1901     -44.191453      58847.706      24.805933    
      4790   297.3844      -5893.5817     -5834.5763     -17.99417       58849.354      24.844824    
      4800   295.37201     -5893.507      -5834.9009      11.117421      58850.658      24.884577    
      4810   294.41821     -5893.5747     -5835.1579      20.041086      58852.068      24.924671    
      4820   294.40709     -5893.7644     -5835.3498      22.681477      58853.749      24.964132    
      4830   294.70227     -5893.9622     -5835.489       13.407983      58855.704      25.001761    
      4840   294.57697     -5894.0317     -5835.5834      23.003199      58857.827      25.036326    
      4850   293.93157     -5893.9629     -5835.6427      31.495702      58860.217      25.06702     
      4860   293.23205     -5893.8516     -5835.6701      59.52003       58863.06       25.093354    
      4870   293.38131     -5893.8834     -5835.6724      79.6825        58866.754      25.115231    
      4880   295.14833     -5894.2119     -5835.6503      94.022538      58871.601      25.132721    
      4890   298.32308     -5894.8026     -5835.611       71.046349      58877.7        25.146329    
      4900   301.73649     -5895.4402     -5835.5713      47.602395      58884.722      25.156707    
      4910   304.00656     -5895.858      -5835.5388      35.125051      58892.288      25.164571    
      4920   304.86547     -5896.0122     -5835.5225      38.133842      58900.181      25.170965    
      4930   304.6464      -5895.9723     -5835.5261      49.411696      58908.434      25.177036    
      4940   304.17167     -5895.9001     -5835.5481      74.614931      58917.226      25.183765    
      4950   303.68156     -5895.8438     -5835.589       108.31624      58926.939      25.191752    
      4960   303.19431     -5895.8013     -5835.6432      149.91042      58938.106      25.201229    
      4970   303.2105      -5895.8752     -5835.7139      195.48694      58951.341      25.212203    
      4980   304.12822     -5896.1433     -5835.7999      217.8829       58967.27       25.22457     
      4990   305.12711     -5896.4491     -5835.9075      230.59334      58986.191      25.23795     
      5000   304.94759     -5896.5454     -5836.0394      268.08956      59008.281      25.252269    
      5010   303.25006     -5896.3682     -5836.199       307.25638      59034.019      25.268271    
      5020   300.44227     -5895.9895     -5836.3775      358.24311      59063.983      25.287381    
      5030   296.90084     -5895.4753     -5836.566       407.91999      59098.823      25.311635    
      5040   293.2044      -5894.9257     -5836.7497      431.48462      59139.157      25.343185    
      5050   290.36802     -5894.528      -5836.9148      448.81868      59185.297      25.383446    
      5060   289.08624     -5894.4093     -5837.0505      424.5982       59237.269      25.433087    
      5070   288.9442      -5894.4829     -5837.1522      347.90709      59294.496      25.491613    
      5080   289.0135      -5894.5583     -5837.2139      236.78083      59355.599      25.557192    
      5090   289.01353     -5894.5767     -5837.2322      110.48909      59418.681      25.626897    
      5100   289.27099     -5894.5994     -5837.2039     -16.248517      59481.636      25.697336    
      5110   289.71553     -5894.6038     -5837.12       -157.11718      59542.307      25.765138    
      5120   289.84454     -5894.4895     -5836.9802     -284.72028      59598.474      25.827058    
      5130   289.82336     -5894.2734     -5836.7683     -382.44668      59648.227      25.880476    
      5140   290.31997     -5894.0848     -5836.4812     -459.9265       59690.131      25.923469    
      5150   292.03768     -5894.0559     -5836.1115     -507.62025      59723.152      25.954502    
      5160   294.92274     -5894.1819     -5835.665      -529.30499      59746.751      25.972785    
      5170   298.81377     -5894.458      -5835.1691     -518.28322      59760.878      25.978343    
      5180   303.05045     -5894.8008     -5834.6712     -478.32406      59766.003      25.971914    
      5190   306.41997     -5895.0165     -5834.2184     -411.28836      59763.05       25.954866    
      5200   307.74471     -5894.9062     -5833.8453     -306.06411      59753.397      25.92901     
      5210   306.74968     -5894.4221     -5833.5586     -173.32494      59739.012      25.896678    
      5220   304.12477     -5893.6893     -5833.3466     -37.835538      59722.228      25.860581    
      5230   301.0299      -5892.9174     -5833.1887      78.024612      59705.327      25.823394    
      5240   298.35813     -5892.2567     -5833.0582      161.21193      59690.2        25.787414    
      5250   296.76336     -5891.8253     -5832.9432      228.62259      59678.142      25.754042    
      5260   296.65964     -5891.6924     -5832.8309      276.48616      59670.159      25.724366    
      5270   298.16462     -5891.8802     -5832.7201      315.98425      59666.994      25.699527    
      5280   300.89115     -5892.3164     -5832.6153      316.97479      59669.085      25.680677    
      5290   303.55472     -5892.7522     -5832.5226      310.41626      59676.35       25.668471    
      5300   304.99701     -5892.9635     -5832.4477      306.45935      59688.562      25.663271    
      5310   304.98499     -5892.9119     -5832.3985      292.73617      59705.463      25.665274    
      5320   303.86326     -5892.6617     -5832.3709      277.47263      59726.717      25.674587    
      5330   302.38477     -5892.36       -5832.3625      269.45149      59752.009      25.691214    
      5340   301.37986     -5892.1619     -5832.3638      250.42331      59781.056      25.715303    
      5350   301.04908     -5892.1062     -5832.3738      216.75169      59813.446      25.747057    
      5360   301.14329     -5892.137      -5832.3858      164.52671      59848.574      25.786346    
      5370   301.6485      -5892.2538     -5832.4024      103.37484      59885.519      25.832463    
      5380   302.52229     -5892.4497     -5832.425       18.596116      59923.134      25.884007    
      5390   303.58737     -5892.6925     -5832.4564     -81.588225      59960.005      25.938654    
      5400   304.35751     -5892.8895     -5832.5006     -179.38856      59994.532      25.993688    
      5410   304.3371      -5892.9503     -5832.5655     -251.90101      60025.183      26.046573    
      5420   303.76589     -5892.9207     -5832.6492     -307.93827      60050.831      26.095177    
      5430   303.12283     -5892.8969     -5832.7529     -350.63301      60070.621      26.137398    
      5440   302.5129      -5892.9001     -5832.8773     -368.46141      60084.029      26.17151     
      5450   301.87061     -5892.9181     -5833.0226     -355.17044      60090.949      26.196727    
      5460   300.5586      -5892.8258     -5833.1907     -336.58951      60091.723      26.213362    
      5470   298.29386     -5892.5618     -5833.376      -293.05405      60086.853      26.222398    
      5480   295.81543     -5892.2626     -5833.5686     -232.34763      60077.212      26.225205    
      5490   293.87911     -5892.0714     -5833.7616     -173.47648      60063.913      26.223522    
      5500   292.64962     -5892.0132     -5833.9473     -98.690381      60048.062      26.219011    
      5510   292.11793     -5892.0791     -5834.1187     -35.478815      60030.911      26.213188    
      5520   292.25818     -5892.2615     -5834.2733      15.640371      60013.572      26.207022    
      5530   292.85441     -5892.5171     -5834.4106      84.084167      59996.975      26.20089     
      5540   293.49431     -5892.7687     -5834.5352      139.32109      59982.18       26.195299    
      5550   293.96236     -5892.9712     -5834.6448      196.91367      59970.104      26.19093     
      5560   294.34015     -5893.147      -5834.7457      255.99885      59961.647      26.188571    
      5570   294.8519      -5893.3403     -5834.8375      293.02103      59957.621      26.188929    
      5580   294.9079      -5893.4377     -5834.9238      309.51794      59958.553      26.192399    
      5590   293.61288     -5893.2601     -5835.0031      338.71633      59964.694      26.198983    
      5600   291.43338     -5892.8954     -5835.0708      365.63635      59976.392      26.208899    
      5610   290.00959     -5892.6566     -5835.1146      370.5007       59993.932      26.222496    
      5620   290.0692      -5892.6808     -5835.1269      333.87279      60017.216      26.239827    
      5630   291.66155     -5892.9723     -5835.1025      265.43338      60045.531      26.260326    
      5640   293.98251     -5893.3634     -5835.0331      202.49716      60077.711      26.283011    
      5650   296.01772     -5893.6578     -5834.9237      138.92414      60112.601      26.307006    
      5660   297.6026      -5893.8241     -5834.7755      70.141032      60149.038      26.331394    
      5670   299.38689     -5893.9958     -5834.5932      15.728741      60185.867      26.355208    
      5680   301.40758     -5894.1833     -5834.3798     -53.345506      60222.097      26.377874    
      5690   303.07824     -5894.2815     -5834.1464     -107.29103      60256.672      26.39892     
      5700   304.05679     -5894.2335     -5833.9043     -158.24847      60288.65       26.418051    
      5710   304.8693      -5894.1511     -5833.6607     -159.1772       60317.332      26.435343    
      5720   306.2606      -5894.1921     -5833.4256     -161.02382      60342.638      26.451763    
      5730   308.21556     -5894.3602     -5833.2058     -167.01342      60364.614      26.468611    
      5740   310.21343     -5894.5649     -5833.0142     -165.07677      60383.315      26.487042    
      5750   311.47044     -5894.6609     -5832.8607     -157.13645      60398.835      26.50782     
      5760   311.69248     -5894.595      -5832.7507     -136.59625      60411.383      26.531328    
      5770   311.45702     -5894.4873     -5832.6898     -120.07536      60421.324      26.557685    
      5780   311.53182     -5894.4866     -5832.6742     -95.822008      60429.034      26.586581    
      5790   312.37181     -5894.6862     -5832.7071     -83.963076      60434.94       26.617483    
      5800   313.63573     -5895.0249     -5832.7951     -89.840438      60439.27       26.649653    
      5810   313.61129     -5895.1692     -5832.9442     -72.96195       60442.039      26.682373    
      5820   310.97274     -5894.8605     -5833.159      -19.169159      60443.563      26.715482    
      5830   306.07232     -5894.1555     -5833.4264      57.340892      60444.718      26.749491    
      5840   300.73249     -5893.3934     -5833.7238      126.42915      60446.781      26.785452    
      5850   296.40534     -5892.8379     -5834.0268      164.91509      60450.902      26.824446    
      5860   293.56327     -5892.5614     -5834.3142      169.38697      60457.684      26.867071    
      5870   292.37801     -5892.5812     -5834.5692      137.95606      60467.162      26.913001    
      5880   293.17501     -5892.9598     -5834.7897      83.36363       60478.796      26.960928    
      5890   295.72006     -5893.6516     -5834.9765      16.295886      60491.612      27.008854    
      5900   298.72831     -5894.4137     -5835.1417     -56.242528      60504.432      27.054247    
      5910   300.89585     -5894.9971     -5835.295      -137.09465      60516.002      27.094161    
      5920   301.66758     -5895.301      -5835.4459     -178.14127      60525.05       27.125637    
      5930   301.11016     -5895.342      -5835.5975     -175.04073      60530.958      27.14673     
      5940   299.7522      -5895.223      -5835.7479     -150.03595      60533.812      27.156644    
      5950   298.55633     -5895.1296     -5835.8918     -111.20259      60534.072      27.155367    
      5960   298.03701     -5895.1619     -5836.0271     -58.30377       60532.439      27.143459    
      5970   298.01994     -5895.282      -5836.1506     -6.8936264      60529.807      27.122512    
      5980   298.6313      -5895.5164     -5836.2636      48.804402      60527.083      27.094858    
      5990   300.34692     -5895.9602     -5836.3671      89.628336      60525.189      27.063506    
      6000   302.86115     -5896.5608     -5836.4688      110.92723      60524.829      27.031516    
      6010   304.8969      -5897.0731     -5836.5772      136.43133      60526.357      27.001511    
      6020   305.57297     -5897.3309     -5836.7009      157.86958      60530.131      26.975969    
      6030   304.71139     -5897.3027     -5836.8436      179.39756      60536.525      26.956967    
      6040   302.4785      -5897.0149     -5836.9988      215.21957      60545.922      26.945819    
      6050   299.31038     -5896.5465     -5837.159       232.42251      60558.817      26.943322    
      6060   296.14059     -5896.0701     -5837.3115      247.45046      60575.471      26.949568    
      6070   293.73404     -5895.7233     -5837.4422      256.292        60596.095      26.964373    
      6080   292.4086      -5895.5636     -5837.5455      243.37492      60620.768      26.987098    
      6090   292.06595     -5895.5647     -5837.6146      220.18181      60649.206      27.016452    
      6100   292.8289      -5895.7544     -5837.6529      176.41293      60680.96       27.051088    
      6110   294.58308     -5896.1118     -5837.6623      105.22879      60715.256      27.089462    
      6120   296.7033      -5896.5205     -5837.6503      44.608699      60750.921      27.129973    
      6130   298.13973     -5896.778      -5837.6228     -3.733063       60786.868      27.171565    
      6140   298.72508     -5896.8604     -5837.589      -45.288459      60822.26       27.213611    
      6150   299.34847     -5896.9471     -5837.5521     -75.129573      60856.402      27.255585    
      6160   300.88216     -5897.213      -5837.5137     -124.30269      60888.724      27.296769    
      6170   302.93831     -5897.5884     -5837.4811     -172.63176      60918.457      27.336079    
      6180   304.30109     -5897.8363     -5837.4586     -198.11338      60944.846      27.372548    
      6190   304.05982     -5897.7817     -5837.4519     -192.64687      60967.445      27.405432    
      6200   302.19342     -5897.4221     -5837.4626     -176.07868      60986.381      27.434413    
      6210   299.36301     -5896.8765     -5837.4786     -149.80764      61002.031      27.459378    
      6220   296.25728     -5896.2744     -5837.4927     -130.29087      61014.835      27.480442    
      6230   293.60676     -5895.7456     -5837.4898     -118.28485      61025.163      27.497878    
      6240   291.92584     -5895.3882     -5837.4659     -101.83118      61033.283      27.512008    
      6250   291.46069     -5895.2465     -5837.4165     -85.010636      61039.494      27.523469    
      6260   291.81678     -5895.2454     -5837.3447     -87.029471      61044.078      27.533255    
      6270   293.34972     -5895.4644     -5837.2596     -76.947694      61047.136      27.542159    
      6280   296.37279     -5895.976      -5837.1713     -79.572063      61048.79       27.550843    
      6290   300.47443     -5896.7128     -5837.0943     -114.91794      61048.956      27.559419    
      6300   304.55563     -5897.4694     -5837.0412     -146.33557      61047.113      27.567266    
      6310   307.14537     -5897.9601     -5837.018      -154.66964      61042.754      27.573534    
      6320   307.42994     -5898.0245     -5837.026      -120.15622      61035.817      27.577626    
      6330   305.35043     -5897.6462     -5837.0603     -50.782791      61026.919      27.579649    
      6340   301.33859     -5896.8966     -5837.1067      41.559713      61017.25       27.580492    
      6350   296.85961     -5896.0547     -5837.1535      157.62211      61008.452      27.581303    
      6360   294.13344     -5895.5457     -5837.1854      230.76996      61002.394      27.583406    
      6370   294.74395     -5895.6775     -5837.1961      260.67741      61000.36       27.587542    
      6380   298.53955     -5896.4246     -5837.19        240.57115      61002.809      27.593695    
      6390   304.24085     -5897.543      -5837.1772      181.68449      61009.345      27.601411    
      6400   309.81742     -5898.6559     -5837.1837      117.92647      61018.984      27.610119    
      6410   313.76507     -5899.4828     -5837.2273      55.599063      61030.609      27.619426    
      6420   314.5587      -5899.7384     -5837.3255      27.542814      61043.167      27.62929     
      6430   311.67155     -5899.322      -5837.4819      11.679163      61056.063      27.640143    
      6440   306.24791     -5898.4464     -5837.6824      31.854089      61069.114      27.652522    
      6450   300.50571     -5897.5294     -5837.9048      49.14779       61082.606      27.667247    
      6460   296.66572     -5896.9878     -5838.1251      42.989146      61096.804      27.684766    
      6470   295.4929      -5896.9618     -5838.3318      5.2470354      61111.557      27.704864    
      6480   295.98159     -5897.2463     -5838.5194     -34.014677      61126.266      27.726625    
      6490   296.54572     -5897.5291     -5838.6901     -74.675146      61140.195      27.748644    
      6500   295.9851      -5897.5715     -5838.8439     -84.506467      61152.707      27.769319    
      6510   293.76796     -5897.2668     -5838.9791     -73.310059      61163.617      27.787277    
      6520   290.12426     -5896.6553     -5839.0905     -35.124933      61173.167      27.80155     
      6530   286.09896     -5895.928      -5839.1618      15.97331       61182.034      27.812091    
      6540   283.23056     -5895.3809     -5839.1839      43.749297      61191.078      27.819467    
      6550   282.55244     -5895.2054     -5839.143       57.268536      61200.802      27.824471    
      6560   283.90832     -5895.3662     -5839.0347      74.020788      61211.459      27.828059    
      6570   286.40656     -5895.6907     -5838.8635      78.600404      61223.299      27.831272    
      6580   289.02471     -5895.9807     -5838.6341      86.008192      61236.416      27.834845    
      6590   291.5862      -5896.21       -5838.3551      78.70411       61250.904      27.839445    
      6600   294.82125     -5896.537      -5838.0402      77.56707       61266.681      27.845462    
      6610   298.627       -5896.9629     -5837.711       54.022574      61283.625      27.853109    
      6620   301.92587     -5897.2947     -5837.3883      22.492689      61301.369      27.862126    
      6630   304.02836     -5897.4141     -5837.0905      5.1922546      61319.389      27.872112    
      6640   304.5959      -5897.2705     -5836.8343     -2.9437585      61337.355      27.882815    
      6650   303.70385     -5896.8787     -5836.6195     -10.652346      61355.132      27.894266    
      6660   301.67391     -5896.2997     -5836.4433     -30.788732      61372.553      27.906406    
      6670   299.15431     -5895.646      -5836.2895     -48.399461      61389.336      27.918995    
      6680   297.54752     -5895.1897     -5836.152      -65.98585       61405.162      27.931812    
      6690   297.48415     -5895.0436     -5836.0185     -94.041063      61419.677      27.94454     
      6700   298.16786     -5895.0527     -5835.892      -123.55439      61432.421      27.956623    
      6710   298.40768     -5894.9758     -5835.7675     -143.94212      61442.899      27.967531    
      6720   298.03041     -5894.7832     -5835.6497     -159.87429      61450.742      27.976869    
      6730   297.57289     -5894.58       -5835.5372     -161.30818      61455.692      27.984184    
      6740   298.14707     -5894.5811     -5835.4244     -162.52984      61457.725      27.98903     
      6750   300.06017     -5894.8506     -5835.3144     -158.62465      61456.891      27.990944    
      6760   302.57302     -5895.2457     -5835.2109     -149.61141      61453.252      27.989549    
      6770   304.95914     -5895.6335     -5835.1253     -102.93603      61447.048      27.984706    
      6780   306.84047     -5895.9456     -5835.064      -48.356649      61439.079      27.976975    
      6790   307.37459     -5896.0188     -5835.0313      14.885455      61430.333      27.967101    
      6800   305.76145     -5895.6947     -5835.0273      102.31796      61421.973      27.956056    
      6810   302.4319      -5895.0513     -5835.0444      231.01988      61415.555      27.945278    
      6820   299.25537     -5894.4441     -5835.0675      349.50373      61413.24       27.936935    
      6830   298.25026     -5894.2661     -5835.089       422.95799      61417.072      27.933278    
      6840   299.8195      -5894.5887     -5835.1003      434.63183      61428.292      27.936236    
      6850   302.80756     -5895.1937     -5835.1124      407.28542      61447.054      27.946904    
      6860   305.22802     -5895.6995     -5835.1379      394.40654      61472.884      27.965829    
      6870   305.33419     -5895.7679     -5835.1853      374.95069      61505.415      27.993745    
      6880   302.87197     -5895.3508     -5835.2567      372.34848      61544.325      28.03118     
      6890   299.30219     -5894.7301     -5835.3443      356.41019      61589.456      28.078296    
      6900   296.18208     -5894.2024     -5835.4356      338.36087      61640.54       28.134446    
      6910   294.06493     -5893.8658     -5835.5191      292.13048      61697.155      28.198432    
      6920   292.79593     -5893.6787     -5835.5838      233.82826      61758.446      28.268295    
      6930   292.8534      -5893.7303     -5835.624       159.98301      61823.325      28.341517    
      6940   294.57677     -5894.0867     -5835.6384      56.837187      61890.401      28.41524     
      6950   297.51448     -5894.6587     -5835.6276     -62.002699      61957.827      28.486547    
      6960   300.47147     -5895.2172     -5835.5993     -196.48834      62023.399      28.552542    
      6970   301.79599     -5895.4435     -5835.5628     -308.80621      62084.771      28.610641    
      6980   300.46738     -5895.1406     -5835.5236     -383.42656      62139.976      28.658686    
      6990   297.15102     -5894.4371     -5835.4781     -424.85097      62187.659      28.694813    
      7000   293.58776     -5893.6652     -5835.4131     -428.12708      62227.165      28.717572    
      7010   291.22171     -5893.0917     -5835.3091     -438.53162      62258.37       28.725977    
      7020   291.0528      -5892.8979     -5835.1489     -419.95636      62281.275      28.7193      
      7030   293.30118     -5893.1173     -5834.9222     -406.52325      62296.212      28.697859    
      7040   296.90986     -5893.5461     -5834.635      -380.20951      62303.576      28.662605    
      7050   300.09424     -5893.8457     -5834.3027     -325.56648      62303.972      28.61546     
      7060   302.12199     -5893.894      -5833.9487     -256.12133      62298.46       28.559276    
      7070   303.71148     -5893.8538     -5833.5931     -169.13259      62288.386      28.49723     
      7080   305.57783     -5893.8875     -5833.2564     -63.552661      62275.362      28.432725    
      7090   307.72914     -5894.0076     -5832.9497      39.44644       62261.309      28.36928     
      7100   309.70699     -5894.1343     -5832.684       129.09509      62248.102      28.30998     
      7110   311.52538     -5894.2771     -5832.466       208.52201      62237.366      28.257287    
      7120   313.44614     -5894.4972     -5832.305       234.50201      62230.414      28.213037    
      7130   315.27328     -5894.7605     -5832.2058      251.94767      62227.777      28.178155    
      7140   316.32039     -5894.9337     -5832.1712      248.33482      62229.671      28.153314    
      7150   316.16124     -5894.9381     -5832.2072      232.471        62236.002      28.138614    
      7160   314.80944     -5894.7733     -5832.3106      212.16989      62246.455      28.133801    
      7170   312.6511      -5894.5111     -5832.4767      161.81321      62260.559      28.138481    
      7180   310.43211     -5894.2888     -5832.6946      98.974953      62277.4        28.152036    
      7190   308.01273     -5894.0676     -5832.9535      27.24717       62295.821      28.173413    
      7200   304.88391     -5893.734      -5833.2407     -15.465574      62314.596      28.200963    
      7210   301.29217     -5893.3176     -5833.5369     -38.351825      62332.91       28.233048    
      7220   298.4566      -5893.0426     -5833.8245     -70.386192      62350.296      28.268197    
      7230   297.34923     -5893.0891     -5834.0908     -117.42102      62366.188      28.30468     
      7240   297.91524     -5893.4396     -5834.3289     -181.02605      62379.772      28.340435    
      7250   298.87341     -5893.8442     -5834.5435     -233.83832      62389.965      28.373253    
      7260   299.34299     -5894.1317     -5834.7378     -282.64177      62395.761      28.401028    
      7270   299.27178     -5894.2958     -5834.916      -316.13631      62396.342      28.422215    
      7280   299.07901     -5894.421      -5835.0795     -323.78549      62391.18       28.435812    
      7290   299.10807     -5894.5767     -5835.2293     -311.77793      62380.173      28.441467    
      7300   299.24697     -5894.7437     -5835.3688     -286.21681      62363.601      28.439533    
      7310   299.91555     -5895.004      -5835.4965     -237.06437      62341.982      28.430807    
      7320   301.68041     -5895.4764     -5835.6187     -171.16126      62316.256      28.416719    
      7330   304.33519     -5896.1276     -5835.7431     -100.77136      62287.654      28.399154    
      7340   306.97695     -5896.7889     -5835.8803     -16.623582      62257.49       28.380329    
      7350   308.27061     -5897.2028     -5836.0375      55.442268      62227.24       28.362795    
      7360   307.24478     -5897.1815     -5836.2198      150.64206      62198.324      28.348959    
      7370   304.59726     -5896.8563     -5836.4199      233.36122      62172.361      28.341002    
      7380   301.44303     -5896.437      -5836.6264      318.80724      62150.892      28.340687    
      7390   299.08387     -5896.1671     -5836.8246      372.68319      62135.336      28.349366    
      7400   298.0915      -5896.1543     -5837.0087      399.06621      62126.642      28.367451    
      7410   298.4909      -5896.4004     -5837.1755      407.39578      62125.235      28.394616    
      7420   299.60862     -5896.7743     -5837.3277      396.78122      62131.197      28.430271    
      7430   300.63769     -5897.12       -5837.4692      375.98181      62144.298      28.473785    
      7440   301.13717     -5897.3569     -5837.607       346.58809      62164.113      28.524376    
      7450   301.10672     -5897.4822     -5837.7383      315.20924      62190.109      28.580993    
      7460   300.94875     -5897.5785     -5837.8659      289.30728      62221.703      28.64255     
      7470   301.29354     -5897.7682     -5837.9872      248.00491      62258.346      28.708076    
      7480   302.05855     -5898.0366     -5838.1039      207.00146      62299.312      28.776456    
      7490   302.34562     -5898.2091     -5838.2194      166.37638      62343.84       28.846715    
      7500   301.04556     -5898.0656     -5838.3338      118.33241      62391.158      28.918037    
      7510   298.01146     -5897.5686     -5838.4389      72.662311      62440.419      28.989764    
      7520   294.58546     -5896.9761     -5838.5261      31.543444      62490.788      29.061453    
      7530   292.16365     -5896.552      -5838.5825     -16.337392      62541.495      29.132848    
      7540   290.97829     -5896.3359     -5838.6017     -104.55029      62591.56       29.203623    
      7550   290.51002     -5896.2261     -5838.5847     -207.57515      62639.381      29.272898    
[...]
     18200   1292.8605     -5620.4421     -5363.9201      177.07275      65947.897      57.841124    
     18210   1289.6878     -5619.1985     -5363.306       267.39089      65951.849      57.95611     
     18220   1284.4301     -5617.6663     -5362.8169      370.59289      65960.768      58.078911    
     18230   1286.0639     -5617.5784     -5362.4049      421.59745      65976.872      58.214962    
     18240   1292.846      -5618.5668     -5362.0476      436.40861      66001.683      58.36703     
     18250   1298.651      -5619.4116     -5361.7407      411.47847      66036.086      58.53611     
     18260   1309.4543     -5621.3049     -5361.4904      331.70648      66080.135      58.721896    
     18270   1330.1371     -5625.2395     -5361.3212      230.6533       66132.723      58.923298    
     18280   1343.8582     -5627.9187     -5361.278       208.49312      66191.537      59.138453    
     18290   1340.2691     -5627.3258     -5361.3972      342.02511      66254.244      59.365715    
     18300   1336.8305     -5626.9197     -5361.6734      436.37863      66319.294      59.603808    
     18310   1345.7179     -5629.1089     -5362.0992      408.58167      66385.539      59.849758    
     18320   1360.2332     -5632.6011     -5362.7113      290.37152      66452.224      60.100611    
     18330   1364.2502     -5634.2351     -5363.5483      157.85737      66518.367      60.352866    
     18340   1356.0351     -5633.662      -5364.6052      62.704183      66582.729      60.603182    
     18350   1340.1126     -5631.7269     -5365.8294     -6.7848184      66644.092      60.848389    
     18360   1322.1594     -5629.4619     -5367.1265     -42.066512      66701.432      61.08564     
     18370   1303.2311     -5626.9772     -5368.3975     -16.728868      66754.514      61.31432     
     18380   1287.2209     -5624.9586     -5369.5555      28.831561      66804.054      61.534665    
     18390   1279.7692     -5624.4708     -5370.5463     -26.596005      66851.3        61.746983    
     18400   1281.7845     -5625.6782     -5371.3538     -188.7305       66897.101      61.951865    
     18410   1285.5205     -5627.0673     -5372.0016     -356.64052      66941.659      62.151672    
     18420   1289.924      -5628.457      -5372.5176     -521.85959      66985.024      62.34944     
     18430   1297.1251     -5630.2914     -5372.9232     -627.98706      67027.194      62.547667    
     18440   1302.8672     -5631.7595     -5373.252      -720.4263       67067.249      62.746258    
     18450   1304.0651     -5632.2616     -5373.5164     -733.37711      67103.033      62.941271    
     18460   1303.1879     -5632.3059     -5373.7348     -696.42037      67132.727      63.126978    
     18470   1307.2493     -5633.283      -5373.906      -744.45683      67154.895      63.297551    
     18480   1312.9964     -5634.5687     -5374.0514     -781.13696      67168.165      63.446608    
     18490   1311.3997     -5634.3864     -5374.1859     -745.57342      67172.308      63.570689    
     18500   1303.5414     -5632.9365     -5374.2952     -685.10769      67168.44       63.670545    
     18510   1295.6715     -5631.4321     -5374.3524     -650.3675       67158.089      63.750432    
     18520   1293.6862     -5631.0103     -5374.3244     -700.15632      67142.593      63.816753    
     18530   1295.8638     -5631.3215     -5374.2036     -783.57069      67122.37       63.872689    
     18540   1300.9747     -5632.1173     -5373.9853     -917.87723      67097.018      63.916953    
     18550   1307.3392     -5633.0775     -5373.6827     -1044.1584      67065.211      63.944905    
     18560   1308.5033     -5632.934      -5373.3082     -1119.4013      67025.127      63.951347    
     18570   1297.2021     -5630.231      -5372.8475     -1024.5578      66975.472      63.933018    
     18580   1283.7482     -5626.9742     -5372.2602     -893.63353      66916.441      63.888865    
     18590   1282.5466     -5625.9558     -5371.4802     -733.32327      66848.829      63.81846     
     18600   1289.9197     -5626.4253     -5370.4868     -650.1239       66772.745      63.723438    
     18610   1289.5063     -5625.1381     -5369.2815     -500.40785      66688.202      63.607686    
     18620   1290.1354     -5623.8647     -5367.8834     -241.82302      66596.343      63.476974    
     18630   1296.3259     -5623.5432     -5366.3336      81.33277       66499.544      63.338689    
     18640   1301.035      -5622.8573     -5364.7133      435.74058      66400.913      63.201393    
     18650   1302.2747     -5621.5239     -5363.134       746.40535      66303.866      63.074014    
     18660   1309.1445     -5621.4364     -5361.6834      948.44828      66211.317      62.962513    
     18670   1331.0903     -5624.5243     -5360.4169      1022.6829      66125.352      62.869567    
     18680   1358.1662     -5628.8654     -5359.3857      1026.2927      66047.182      62.797279    
     18690   1369.1296     -5630.2734     -5358.6185      1042.4482      65977.481      62.74725     
     18700   1371.7727     -5630.2709     -5358.0915      1105.7481      65916.865      62.718698    
     18710   1371.9162     -5629.9592     -5357.7514      1136.7342      65865.958      62.709052    
     18720   1366.2477     -5628.6262     -5357.5431      1050.5031      65825.174      62.717615    
     18730   1369.3498     -5629.136      -5357.4374      900.57166      65794.706      62.747053    
     18740   1377.1798     -5630.6711     -5357.4189      689.95042      65774.167      62.798657    
     18750   1372.9595     -5629.9186     -5357.5038      580.77056      65762.366      62.86902     
     18760   1353.5261     -5626.2206     -5357.6616      659.94783      65757.756      62.95185     
     18770   1335.393      -5622.7804     -5357.8193      822.70335      65759.43       63.043081    
     18780   1328.4873     -5621.5137     -5357.9228      807.93313      65767.148      63.144753    
     18790   1328.403      -5621.5115     -5357.9373      726.5556       65779.999      63.261203    
     18800   1340.5264     -5623.8479     -5357.8683      610.9712       65797.092      63.39553     
     18810   1351.7111     -5625.9375     -5357.7387      562.38099      65817.831      63.547101    
     18820   1346.651      -5624.777      -5357.5821      658.96583      65842.205      63.711973    
     18830   1339.1741     -5623.0942     -5357.3829      805.94838      65870.968      63.887065    
     18840   1341.3387     -5623.2612     -5357.1204      978.61007      65905.391      64.072888    
     18850   1349.5497     -5624.5496     -5356.7796      1031.5428      65946.556      64.271612    
     18860   1354.0117     -5625.0392     -5356.3839      1035.705       65994.911      64.485276    
     18870   1359.249      -5625.6328     -5355.9383      969.40012      66050.798      64.716687    
     18880   1366.4488     -5626.5776     -5355.4546      829.39759      66113.968      64.965631    
     18890   1364.0176     -5625.5815     -5354.9409      750.60821      66183.683      65.227786    
     18900   1354.5878     -5623.1627     -5354.3931      658.82566      66259.271      65.499369    
     18910   1352.4688     -5622.1227     -5353.7735      536.43236      66340.103      65.778745    
     18920   1361.4226     -5623.1865     -5353.0608      348.51709      66425.05       66.065055    
     18930   1364.2836     -5622.9474     -5352.254       121.70646      66512.054      66.355708    
     18940   1356.6377     -5620.5359     -5351.3595     -87.666246      66598.025      66.644402    
     18950   1361.2948     -5620.4685     -5350.3681     -434.97318      66680.054      66.9246      
     18960   1378.32       -5622.7665     -5349.2881     -817.22298      66755.158      67.191991    
     18970   1387.0307     -5623.3887     -5348.1819     -1077.1488      66820.989      67.443779    
     18980   1391.6693     -5623.2334     -5347.1063     -1247.5075      66876.031      67.675732    
     18990   1392.5757     -5622.3999     -5346.0929     -1305.1945      66919.197      67.88217     
     19000   1388.0675     -5620.567      -5345.1545     -1296.3464      66950.18       68.058927    
     19010   1393.4144     -5620.7574     -5344.2841     -1318.01        66968.939      68.203793    
     19020   1404.9071     -5622.2439     -5343.4902     -1319.594       66974.645      68.315543    
     19030   1408.6479     -5622.3043     -5342.8084     -1282.4341      66966.285      68.393722    
     19040   1409.6176     -5621.9436     -5342.2553     -1142.5183      66943.791      68.438772    
     19050   1407.1543     -5621.0219     -5341.8223     -890.66289      66908.481      68.453432    
     19060   1395.244      -5618.313      -5341.4766     -575.64225      66862.743      68.444503    
     19070   1383.2628     -5615.6078     -5341.1486     -222.8223       66809.261      68.419765    
     19080   1392.8936     -5617.1957     -5340.8256     -43.996788      66751.018      68.385468    
     19090   1400.2617     -5618.3317     -5340.4997      109.63547      66690.616      68.345971    
     19100   1393.7465     -5616.7269     -5340.1877      310.24222      66630.432      68.307793    
     19110   1388.1238     -5615.291      -5339.8674      423.79752      66572.843      68.277866    
     19120   1392.1665     -5615.7444     -5339.5186      382.82797      66519.798      68.261299    
     19130   1390.0991     -5614.9548     -5339.1393      287.63816      66472.51       68.260806    
     19140   1379.1178     -5612.3544     -5338.7176      204.04702      66432.243      68.278696    
     19150   1368.8752     -5609.8158     -5338.2114      222.51631      66399.821      68.316935    
     19160   1362.5592     -5607.9203     -5337.569       210.01999      66375.362      68.37652     
     19170   1357.858      -5606.1508     -5336.7323      201.33636      66358.022      68.455924    
     19180   1354.0619     -5604.3201     -5335.6548      200.99884      66346.69       68.553599    
     19190   1352.8258     -5602.6985     -5334.2785      196.32953      66340.659      68.668448    
     19200   1349.9938     -5600.4258     -5332.5677      241.61571      66339.144      68.796806    
     19210   1346.3991     -5597.6942     -5330.5493      289.2885       66341.336      68.933518    
     19220   1348.1576     -5595.8188     -5328.3251      326.04783      66346.551      69.072999    
     19230   1357.8097     -5595.5035     -5326.0946      303.82562      66354.555      69.210508    
     19240   1381.682      -5598.2523     -5324.1068      181.65137      66366.123      69.345385    
     19250   1405.3894     -5601.3787     -5322.5293      18.427727      66382.606      69.481923    
     19260   1419.4815     -5603.0526     -5321.4072     -28.989504      66405.346      69.62619     
     19270   1424.9317     -5603.3679     -5320.6411      16.528991      66435.538      69.784995    
     19280   1422.326      -5602.3315     -5320.1217      103.55288      66473.644      69.964145    
     19290   1421.9982     -5601.8833     -5319.7385      114.3711       66518.854      70.165028    
     19300   1426.9431     -5602.5619     -5319.4359      26.300898      66569.538      70.384123    
     19310   1427.733      -5602.4733     -5319.1906     -151.98723      66623.685      70.616532    
     19320   1427.6159     -5602.2451     -5318.9857     -354.70852      66679.177      70.856412    
     19330   1432.6748     -5603.0808     -5318.8176     -617.23862      66733.917      71.097052    
     19340   1429.4909     -5602.3136     -5318.6821     -778.83655      66785.407      71.331704    
     19350   1428.2059     -5601.9525     -5318.576      -944.12636      66831.66       71.555271    
     19360   1444.3788     -5605.0884     -5318.5029     -1122.573       66871.397      71.764329    
     19370   1463.0893     -5608.8105     -5318.5127     -1271.1113      66903.583      71.956447    
     19380   1460.2262     -5608.3964     -5318.6666     -1090.1423      66927.509      72.130202    
     19390   1437.4398     -5604.152      -5318.9433     -764.42314      66944.288      72.287856    
     19400   1418.6166     -5600.7429     -5319.2691     -439.2811       66955.815      72.430761    
     19410   1416.0004     -5600.5338     -5319.5791     -259.10806      66964.085      72.560204    
     19420   1417.1653     -5601.0381     -5319.8522     -239.37051      66970.41       72.678062    
     19430   1415.1458     -5600.8696     -5320.0844     -302.20673      66973.884      72.78294     
     19440   1413.366      -5600.7012     -5320.2691     -423.02637      66972.054      72.872618    
     19450   1410.7235     -5600.3035     -5320.3957     -450.49465      66962.97       72.947823    
     19460   1405.3537     -5599.2905     -5320.4482     -433.52185      66946.743      73.013448    
     19470   1401.8199     -5598.5475     -5320.4063     -497.2631       66924.663      73.0739      
     19480   1395.7123     -5597.1705     -5320.2412     -552.7666       66896.234      73.124126    
     19490   1391.7136     -5596.0708     -5319.9349     -621.71332      66860.017      73.155327    
     19500   1397.6717     -5596.7827     -5319.4646     -659.60207      66814.941      73.164375    
     19510   1410.0964     -5598.6072     -5318.8239     -722.01406      66760.846      73.154344    
     19520   1422.9669     -5600.3892     -5318.0522     -686.35842      66698.086      73.130864    
     19530   1421.3614     -5599.1843     -5317.1659     -512.9112       66628.178      73.099889    
     19540   1408.5961     -5595.6442     -5316.1585     -233.72851      66554.291      73.069855    
     19550   1408.9031     -5594.5492     -5315.0026      12.923201      66480.416      73.049176    
     19560   1432.0304     -5597.8477     -5313.7123      102.13475      66409.804      73.041583    
     19570   1453.3297     -5600.7319     -5312.3705      101.61425      66344.239      73.047969    
     19580   1455.7352     -5599.9036     -5311.0648      136.01168      66284.987      73.069292    
     19590   1460.6973     -5599.674      -5309.8507      84.133544      66233.682      73.10574     
     19600   1471.5213     -5600.7235     -5308.7526      126.30631      66191.044      73.156871    
     19610   1468.0857     -5599.0712     -5307.7819      204.89229      66156.685      73.222566    
     19620   1462.6548     -5597.15       -5306.9384      304.30196      66129.481      73.303753    
     19630   1471.8047     -5598.2186     -5306.1915      321.00005      66107.935      73.399341    
     19640   1491.1641     -5601.4153     -5305.547       280.24409      66090.708      73.504574    
     19650   1508.2709     -5604.316      -5305.0535      251.67142      66077.209      73.616037    
     19660   1510.3123     -5604.4252     -5304.7576      370.57144      66067.549      73.734919    
     19670   1497.2858     -5601.7306     -5304.6476      526.34475      66062.065      73.865026    
     19680   1487.3824     -5599.7974     -5304.6794      656.61562      66060.482      74.006079    
     19690   1482.0994     -5598.869      -5304.7993      811.83365      66062.309      74.159416    
     19700   1475.664      -5597.7828     -5304.99        972.08523      66067.434      74.330195    
     19710   1471.3035     -5597.1515     -5305.2238      1065.5073      66076.32       74.523059    
     19720   1467.1305     -5596.5842     -5305.4845      1124.3513      66089.649      74.737661    
     19730   1462.3345     -5595.8987     -5305.7506      1085.7661      66108.064      74.968724    
     19740   1467.385      -5597.1581     -5306.0079      874.44045      66131.646      75.207682    
     19750   1482.224      -5600.3708     -5306.2764      549.64409      66159.517      75.446614    
     19760   1485.27       -5601.2911     -5306.5923      270.67751      66189.745      75.680616    
     19770   1473.5564     -5599.3407     -5306.966       122.73453      66219.905      75.906845    
     19780   1458.6377     -5596.7794     -5307.3648     -15.469127      66248.06       76.123244    
     19790   1449.5511     -5595.356      -5307.7443     -114.57689      66273.354      76.328528    
     19800   1443.3388     -5594.4551     -5308.076      -168.86923      66296.055      76.524442    
     19810   1438.0313     -5593.656      -5308.33       -137.8009       66317.074      76.716795    
     19820   1434.7054     -5593.1422     -5308.4761     -37.964484      66336.944      76.911664    
     19830   1434.0188     -5593.0155     -5308.4856      35.995314      66355.371      77.110878    
     19840   1421.2394     -5590.3129     -5308.3186      223.72067      66372.092      77.310872    
     19850   1409.3495     -5587.5421     -5307.907       294.0222       66388.388      77.50983     
     19860   1420.8704     -5589.0721     -5307.1511      214.1688       66406.342      77.710224    
     19870   1441.8334     -5592.0809     -5306.0005      77.445264      66427.411      77.917142    
     19880   1458.557      -5593.8618     -5304.4632     -127.51423      66451.552      78.133712    
     19890   1468.5008     -5593.9724     -5302.6008     -223.11708      66477.35       78.358715    
     19900   1475.3657     -5593.2535     -5300.5199     -301.3483       66502.855      78.586913    
     19910   1482.3077     -5592.4808     -5298.3698     -372.96346      66526.658      78.812821    
     19920   1483.6346     -5590.6831     -5296.3088     -434.80139      66548.658      79.034752    
     19930   1478.8088     -5587.8593     -5294.4424     -362.30594      66569.55       79.252995    
     19940   1479.1028     -5586.2816     -5292.8064     -410.19088      66590.183      79.466936    
     19950   1485.0199     -5586.0337     -5291.3845     -568.1596       66610.157      79.671221    
     19960   1497.3462     -5587.259      -5290.1641     -664.92449      66628.014      79.861105    
     19970   1511.1295     -5588.9729     -5289.1432     -807.74921      66642.728      80.036558    
     19980   1518.7954     -5589.668      -5288.3172     -801.7295       66653.211      80.197366    
     19990   1512.9168     -5587.8527     -5287.6683     -512.08881      66659.403      80.343953    
     20000   1492.3956     -5583.2542     -5287.1415     -136.41362      66662.947      80.480892    
Loop time of 4615.25 on 1 procs for 10000 steps with 1536 atoms

Performance: 0.094 ns/day, 256.403 hours/ns, 2.167 timesteps/s, 3.328 katom-step/s
91.4% CPU use with 1 MPI tasks x 1 OpenMP threads

MPI task timing breakdown:
Section |  min time  |  avg time  |  max time  |%varavg| %total
---------------------------------------------------------------
Pair    | 3992.7     | 3992.7     | 3992.7     |   0.0 | 86.51
Bond    | 0.042599   | 0.042599   | 0.042599   |   0.0 |  0.00
Neigh   | 2.2027     | 2.2027     | 2.2027     |   0.0 |  0.05
Comm    | 0.34793    | 0.34793    | 0.34793    |   0.0 |  0.01
Output  | 618.9      | 618.9      | 618.9      |   0.0 | 13.41
Modify  | 0.90152    | 0.90152    | 0.90152    |   0.0 |  0.02
Other   |            | 0.1529     |            |       |  0.00

Nlocal:           1536 ave        1536 max        1536 min
Histogram: 1 0 0 0 0 0 0 0 0 0
Nghost:           1783 ave        1783 max        1783 min
Histogram: 1 0 0 0 0 0 0 0 0 0
Neighs:              0 ave           0 max           0 min
Histogram: 1 0 0 0 0 0 0 0 0 0
FullNghs:        45540 ave       45540 max       45540 min
Histogram: 1 0 0 0 0 0 0 0 0 0

Total # of neighbors = 45540
Ave neighs/atom = 29.648438
Ave special neighs/atom = 0
Neighbor list builds = 986
Dangerous builds = 904
unfix           2

write_data      structure.ready.data
System init for write_data ...

write_restart   structure.ready
System init for write_restart ...
    
Total wall time: 2:48:42
