LAMMPS (29 Sep 2021 - Update 3)
OMP_NUM_THREADS environment is not set. Defaulting to 1 thread. (src/comm.cpp:98)
  using 1 OpenMP thread(s) per MPI task
Reading data file ...
  orthogonal box = (0.0000000 0.0000000 0.0000000) to (15.969932 15.719106 81.083077)
  2 by 1 by 8 MPI processor grid
  reading atoms ...
  864 atoms
Finding 1-2 1-3 1-4 neighbors ...
  special bond factors lj:    0        0        0       
  special bond factors coul:  0        0        0       
     0 = max # of 1-2 neighbors
     0 = max # of 1-3 neighbors
     0 = max # of 1-4 neighbors
     1 = max # of special neighbors
  special bonds CPU = 0.001 seconds
  read_data CPU = 0.044 seconds
Neighbor list info ...
  update every 1 steps, delay 10 steps, check yes
  max neighbors/atom: 2000, page size: 100000
  master list distance cutoff = 6.22
  ghost atom cutoff = 6.22
  binsize = 3.11, bins = 6 6 27
  1 neighbor lists, perpetual/occasional/extra = 1 0 0
  (1) pair quip, perpetual
      attributes: full, newton on
      pair build: full/bin
      stencil: full/bin/3d
      bin: standard
Setting up Verlet run ...
  Unit style    : metal
  Current step  : 0
  Time step     : 0.001
Per MPI rank memory allocation (min/avg/max) = 8.888 | 8.903 | 8.913 Mbytes
Step Temp PotEng TotEng Press Volume c_msd[4] 
       0            0   -6930.8241   -6930.8241   -4495.9065    20354.533            0 
      10    65.904237   -6938.1841   -6930.8324   -5379.5912    20354.533 0.0005000384 
      20    168.73131   -6949.6632    -6930.841   -6364.5261    20354.533 0.0061479459 
      30    200.57733   -6953.2127    -6930.838   -5696.6671    20354.533  0.020662009 
      40    199.55606   -6953.0935   -6930.8327   -4580.1506    20354.533   0.03833664 
      50    226.88579   -6956.1474   -6930.8379   -4419.7801    20354.533  0.051806208 
      60    238.47957   -6957.4392   -6930.8365   -4645.7272    20354.533  0.061424452 
      70    236.06355   -6957.1692   -6930.8359    -4807.043    20354.533  0.069853138 
      80    232.99362   -6956.8259   -6930.8351    -5036.908    20354.533  0.079308594 
      90    234.23747   -6956.9654   -6930.8358   -5260.6038    20354.533  0.090830495 
     100    232.00556   -6956.7159   -6930.8353   -5208.0306    20354.533   0.10432197 
     110    232.79067   -6956.8033   -6930.8352   -5031.3164    20354.533   0.11840709 
     120    238.30149    -6957.419   -6930.8361   -4942.2097    20354.533   0.13201584 
     130    238.74514   -6957.4687   -6930.8363   -4988.8033    20354.533   0.14538478 
     140    232.54984   -6956.7771   -6930.8358   -4942.4536    20354.533   0.15867927 
     150    225.40044   -6955.9792   -6930.8355   -4787.8719    20354.533   0.17110203 
     160    224.38726   -6955.8659   -6930.8352   -4620.0724    20354.533    0.1817825 
     170    231.86358   -6956.7009   -6930.8362   -4442.3359    20354.533   0.19072597 
     180    237.58036   -6957.3391   -6930.8366   -4192.2572    20354.533   0.19889867 
     190    235.69365   -6957.1279    -6930.836   -3927.7806    20354.533   0.20710191 
     200    234.44619   -6956.9885   -6930.8356   -3773.8119    20354.533   0.21513007 
     210    236.73114   -6957.2437    -6930.836   -3777.5502    20354.533   0.22305549 
     220    238.14425   -6957.4012   -6930.8359   -3899.9101    20354.533    0.2315521 
     230     238.4388   -6957.4341   -6930.8359   -4006.5782    20354.533   0.24098695 
     240    239.23886    -6957.523   -6930.8356   -3984.7528    20354.533   0.25141959 
     250     242.0724   -6957.8401   -6930.8366   -3793.3442    20354.533   0.26265129 
     260       239.05   -6957.5024    -6930.836   -3540.3897    20354.533   0.27417391 
     270    235.84511    -6957.145   -6930.8361   -3272.6541    20354.533   0.28493922 
     280    231.62838   -6956.6748   -6930.8363   -2948.2435    20354.533   0.29437431 
     290    226.51317   -6956.1028    -6930.835   -2633.8875    20354.533   0.30220439 
     300    232.88912   -6956.8151    -6930.836   -2478.1682    20354.533   0.30835486 
     310    239.65399   -6957.5709   -6930.8371   -2317.7128    20354.533   0.31386348 
     320    236.98534   -6957.2718   -6930.8357   -2020.1819    20354.533   0.31985126 
     330    235.73864   -6957.1329   -6930.8359   -1957.4113    20354.533   0.32664959 
     340    236.09186   -6957.1723   -6930.8359   -2003.6376    20354.533   0.33435107 
     350    237.19352   -6957.2955   -6930.8363   -2145.8328    20354.533   0.34289663 
     360     235.6501   -6957.1226   -6930.8355   -2186.0282    20354.533   0.35153924 
     370      237.245   -6957.3009   -6930.8359   -2246.4379    20354.533   0.35886165 
     380     239.0727   -6957.5047   -6930.8358   -2396.5837    20354.533   0.36451066 
     390    241.64207   -6957.7913   -6930.8358   -2701.0958    20354.533   0.36907283 
     400    244.68963   -6958.1321   -6930.8366    -3058.184    20354.533   0.37340775 
     410    240.84575   -6957.7024   -6930.8357   -3233.9135    20354.533   0.37836011 
     420    237.91038    -6957.375   -6930.8357   -3296.1667    20354.533    0.3837999 
     430    237.53548   -6957.3335    -6930.836     -3297.92    20354.533   0.38923076 
     440    236.65311   -6957.2351   -6930.8361   -3132.9159    20354.533   0.39408345 
     450    236.54722   -6957.2227   -6930.8355   -2838.3736    20354.533   0.39819744 
     460    240.22636   -6957.6339   -6930.8363   -2750.9298    20354.533   0.40204023 
     470    240.52465   -6957.6669    -6930.836   -2995.4918    20354.533   0.40599969 
     480    237.66852   -6957.3482   -6930.8359   -3342.9489    20354.533   0.40967234 
     490     233.8587   -6956.9231   -6930.8358   -3484.3142    20354.533   0.41268728 
     500    232.08796   -6956.7258   -6930.8361   -3205.4816    20354.533   0.41521326 
     510    230.70203   -6956.5715   -6930.8364   -2716.5526    20354.533   0.41731564 
     520    228.05602   -6956.2759   -6930.8359   -2363.5724    20354.533   0.41870774 
     530    227.97164    -6956.267   -6930.8365   -2215.6832    20354.533   0.41939371 
     540    224.82248   -6955.9152   -6930.8359   -2142.5726    20354.533   0.41965215 
     550    224.12424   -6955.8368   -6930.8354   -2230.4398    20354.533   0.41896539 
     560    230.14975   -6956.5094   -6930.8358   -2549.6413    20354.533   0.41694428 
     570    236.18881   -6957.1833   -6930.8361   -2919.3179    20354.533   0.41431605 
     580    239.11248   -6957.5092   -6930.8358   -3311.7801    20354.533   0.41218239 
     590    240.41038    -6957.654   -6930.8359   -3417.9605    20354.533   0.41128732 
     600     241.9108   -6957.8213   -6930.8358   -3319.9933    20354.533   0.41181297 
     610    244.71998   -6958.1355   -6930.8366   -3218.6172    20354.533   0.41378595 
     620     241.0794   -6957.7291   -6930.8363   -3147.9995    20354.533   0.41727735 
     630    235.50013   -6957.1059   -6930.8355   -3135.0665    20354.533   0.42154918 
     640    235.11112   -6957.0634   -6930.8364   -3257.6948    20354.533   0.42544554 
     650    231.17765   -6956.6238   -6930.8356   -3363.2824    20354.533   0.42831027 
     660    230.96587      -6956.6   -6930.8354    -3278.616    20354.533   0.42962018 
     670    236.71051   -6957.2418   -6930.8364   -3057.6575    20354.533   0.43008462 
     680    237.89077   -6957.3735   -6930.8365   -2729.6334    20354.533   0.43147958 
     690    233.77068   -6956.9134    -6930.836   -2455.8007    20354.533   0.43467882 
     700    232.73214   -6956.7972   -6930.8356   -2458.1317    20354.533   0.43896836 
     710     238.6713   -6957.4612    -6930.837     -2772.14    20354.533   0.44306523 
     720    238.40713   -6957.4307    -6930.836    -2807.083    20354.533   0.44626276 
     730     240.4682   -6957.6606    -6930.836   -2649.5036    20354.533   0.44805059 
     740    245.36669   -6958.2082   -6930.8372   -2598.8991    20354.533   0.44927166 
     750    241.62154   -6957.7892    -6930.836   -2531.0184    20354.533   0.45180545 
     760    240.83361   -6957.7015   -6930.8361   -2663.8574    20354.533   0.45609454 
     770    242.81641   -6957.9232   -6930.8366   -2904.7405    20354.533   0.46149917 
     780    240.55873   -6957.6716   -6930.8369   -3011.4883    20354.533   0.46731331 
     790    234.48344    -6956.992    -6930.835   -2984.9723    20354.533   0.47270083 
     800    241.36903   -6957.7616   -6930.8365   -3043.6074    20354.533   0.47702973 
     810    248.02611   -6958.5044   -6930.8367   -3212.7271    20354.533   0.48113406 
     820    247.07524   -6958.3983   -6930.8367   -3298.0857    20354.533   0.48604281 
     830    241.62282   -6957.7892   -6930.8358   -3451.0521    20354.533   0.49200069 
     840    241.09937   -6957.7309   -6930.8359   -3767.5583    20354.533    0.4980224 
     850    243.86884   -6958.0407   -6930.8367   -3969.0277    20354.533   0.50315689 
     860    240.67295   -6957.6839   -6930.8364   -3878.9651    20354.533   0.50749313 
     870    234.88256   -6957.0377   -6930.8362   -3705.4216    20354.533   0.51123394 
     880     230.9712   -6956.6008   -6930.8356   -3732.8653    20354.533   0.51418617 
     890    234.71187   -6957.0191   -6930.8366   -3903.3458    20354.533   0.51649556 
     900    236.69755   -6957.2408   -6930.8368   -4096.5729    20354.533   0.51925856 
     910    234.14135   -6956.9543   -6930.8355   -4214.9524    20354.533   0.52270274 
     920     239.2214   -6957.5215    -6930.836    -4371.806    20354.533    0.5260843 
     930    246.23434   -6958.3046   -6930.8368   -4388.3174    20354.533   0.52947161 
     940    244.93011   -6958.1585   -6930.8361    -4140.633    20354.533    0.5331014 
     950    244.54566   -6958.1146   -6930.8351   -3874.4856    20354.533   0.53608506 
     960     253.5944   -6959.1267   -6930.8378   -3771.8165    20354.533   0.53803089 
     970     248.3829   -6958.5442   -6930.8367   -3524.3442    20354.533   0.53986141 
     980    238.35135   -6957.4243   -6930.8358   -3260.4338    20354.533   0.54101785 
     990    236.50322   -6957.2181   -6930.8358   -3175.8957    20354.533   0.54134372 
    1000    241.19481   -6957.7423   -6930.8367   -3304.4267    20354.533   0.54225539 
    1010    241.95562   -6957.8272   -6930.8367   -3391.2596    20354.533   0.54502288 
    1020    240.16869   -6957.6269   -6930.8357   -3447.0496    20354.533   0.54930268 
    1030    245.53617   -6958.2267   -6930.8368   -3456.4918    20354.533   0.55419445 
    1040    247.77076    -6958.476   -6930.8368   -3298.5887    20354.533   0.55950896 
    1050     244.2442   -6958.0816   -6930.8358   -3136.4369    20354.533   0.56417367 
    1060    244.98518   -6958.1647   -6930.8363    -3248.508    20354.533   0.56688242 
    1070    245.91228   -6958.2687   -6930.8368   -3519.1406    20354.533   0.56812185 
    1080    243.86214    -6958.039   -6930.8358   -3692.2455    20354.533   0.56934968 
    1090    246.84293   -6958.3726   -6930.8369   -3906.5524    20354.533   0.57178329 
    1100      244.881   -6958.1533   -6930.8365   -4089.2355    20354.533   0.57651628 
    1110    240.43499   -6957.6569    -6930.836   -4077.0823    20354.533    0.5832495 
    1120    237.92872   -6957.3775   -6930.8362   -4003.4461    20354.533   0.59023617 
    1130    236.51172   -6957.2189   -6930.8357   -4042.4172    20354.533   0.59550452 
    1140    238.96444   -6957.4936   -6930.8368   -4040.0227    20354.533   0.59831056 
    1150    235.78148   -6957.1379   -6930.8361   -3879.2914    20354.533   0.59921996 
    1160    234.20341   -6956.9615   -6930.8358   -3837.8249    20354.533    0.5985221 
    1170    240.41902   -6957.6544   -6930.8353    -3935.141    20354.533   0.59722217 
    1180    255.54411   -6959.3435   -6930.8372     -4092.55    20354.533   0.59743217 
    1190    258.99242   -6959.7285   -6930.8375   -4046.2257    20354.533    0.6011544 
    1200    248.88394   -6958.5986   -6930.8352   -3714.2841    20354.533   0.60762836 
    1210    248.47025   -6958.5542    -6930.837   -3470.6197    20354.533   0.61448368 
    1220    244.95446   -6958.1613   -6930.8363   -3177.7538    20354.533   0.62050251 
    1230     241.8534   -6957.8153   -6930.8362   -3046.6572    20354.533   0.62473384 
    1240    239.93171   -6957.6017    -6930.837   -2953.8402    20354.533   0.62763822 
    1250    233.26136   -6956.8559   -6930.8352   -2777.3686    20354.533   0.63038166 
    1260    237.93988   -6957.3787   -6930.8361   -2775.1391    20354.533    0.6330371 
    1270    246.35675   -6958.3182   -6930.8368   -2888.4422    20354.533   0.63643977 
    1280    248.45813   -6958.5525   -6930.8366   -2920.0425    20354.533   0.64183599 
    1290    245.47675   -6958.2198   -6930.8365   -2685.1116    20354.533   0.64908358 
    1300    241.63357   -6957.7906    -6930.836   -2354.7632    20354.533   0.65669456 
    1310    242.43427   -6957.8804   -6930.8365   -2080.8148    20354.533   0.66291632 
    1320    245.28186   -6958.1979   -6930.8364   -1915.3295    20354.533    0.6669735 
    1330    248.60459   -6958.5691   -6930.8369   -2012.6907    20354.533   0.66938419 
    1340    247.35187   -6958.4291   -6930.8367   -2148.5782    20354.533   0.67162517 
    1350    244.12194   -6958.0683   -6930.8361   -1975.6824    20354.533   0.67460298 
    1360    246.17117   -6958.2975   -6930.8367   -1695.7314    20354.533   0.67795806 
    1370    247.81913   -6958.4815   -6930.8369   -1406.6961    20354.533   0.68155459 
    1380    246.54204   -6958.3387   -6930.8366   -1365.9532    20354.533   0.68550067 
    1390    245.37096   -6958.2083   -6930.8368   -1609.7263    20354.533   0.68946972 
    1400    243.36629   -6957.9841   -6930.8362   -2040.6718    20354.533   0.69316197 
    1410    243.94371   -6958.0489   -6930.8367    -2492.182    20354.533   0.69632692 
    1420    241.91407   -6957.8222   -6930.8364   -2641.5513    20354.533   0.69908731 
    1430    240.29252    -6957.641   -6930.8361   -2738.6597    20354.533   0.70169952 
    1440    243.00906   -6957.9446   -6930.8366   -2920.7186    20354.533   0.70454594 
    1450    244.25454   -6958.0838   -6930.8369   -3048.4377    20354.533   0.70795341 
    1460    242.09952    -6957.843   -6930.8364   -2976.5792    20354.533   0.71130224 
    1470    243.45842   -6957.9943   -6930.8362   -3081.8274    20354.533    0.7132231 
    1480    250.70065   -6958.8033   -6930.8373   -3338.8349    20354.533   0.71370178 
    1490    252.18388   -6958.9685    -6930.837   -3376.1382    20354.533    0.7144344 
    1500    251.43885   -6958.8853   -6930.8369   -3315.8008    20354.533   0.71637247 
    1510    251.24938    -6958.864   -6930.8368   -3301.7557    20354.533   0.71942223 
    1520    249.70733   -6958.6922    -6930.837   -3282.0336    20354.533   0.72323431 
    1530    244.44696   -6958.1054    -6930.837   -3302.2244    20354.533   0.72763008 
    1540    236.75683   -6957.2464   -6930.8358   -3274.9713    20354.533    0.7323608 
    1550    237.57971   -6957.3389   -6930.8365   -3428.4116    20354.533   0.73683196 
    1560    241.15015   -6957.7371   -6930.8364   -3593.4236    20354.533   0.74115804 
    1570    245.97302   -6958.2754   -6930.8368   -3733.6516    20354.533   0.74547586 
    1580    248.38573   -6958.5448    -6930.837   -3697.1233    20354.533   0.74963233 
    1590    246.86432   -6958.3746   -6930.8366   -3466.8015    20354.533   0.75351214 
    1600     247.7118   -6958.4687    -6930.836   -3388.9239    20354.533   0.75677589 
    1610    253.82537   -6959.1519   -6930.8373    -3531.034    20354.533   0.75955216 
    1620    251.92871   -6958.9401   -6930.8371   -3648.0728    20354.533   0.76294914 
    1630    244.66821   -6958.1291    -6930.836   -3657.5504    20354.533   0.76703359 
    1640    244.28177   -6958.0866   -6930.8366   -3671.0399    20354.533   0.77099433 
    1650    244.83575   -6958.1483   -6930.8365   -3788.3144    20354.533   0.77508445 
    1660    246.40424   -6958.3232   -6930.8364    -3813.853    20354.533   0.77989624 
    1670     250.2724    -6958.755   -6930.8367   -3565.9239    20354.533   0.78529205 
    1680    252.16532   -6958.9666   -6930.8372   -3320.4462    20354.533   0.79034429 
    1690    248.06278   -6958.5083   -6930.8366    -3241.467    20354.533   0.79410211 
    1700    246.18953   -6958.2989   -6930.8361   -3435.3007    20354.533   0.79613512 
    1710    251.37963   -6958.8788   -6930.8371   -3765.1983    20354.533   0.79697816 
    1720    252.49637   -6959.0036   -6930.8373   -4015.6546    20354.533   0.79809077 
    1730    246.19105   -6958.2991   -6930.8361   -4012.8085    20354.533   0.80001418 
    1740    244.72061   -6958.1349   -6930.8359   -3836.2711    20354.533   0.80174398 
    1750    250.77886   -6958.8116   -6930.8368   -3664.5304    20354.533   0.80300604 
    1760    253.23106   -6959.0851   -6930.8368   -3574.9487    20354.533   0.80474848 
    1770     250.9182   -6958.8268   -6930.8365   -3643.0638    20354.533   0.80759401 
    1780    248.19059    -6958.522   -6930.8359    -3925.933    20354.533   0.81194222 
    1790    251.50586   -6958.8923   -6930.8365   -4358.7518    20354.533   0.81788965 
    1800    254.74644   -6959.2547   -6930.8373   -4555.0094    20354.533   0.82537267 
    1810    250.83969   -6958.8178   -6930.8362   -4276.5786    20354.533   0.83331392 
    1820     251.8855   -6958.9345   -6930.8362   -4012.9598    20354.533   0.83972246 
    1830      255.594   -6959.3496   -6930.8377   -3901.3718    20354.533   0.84445553 
    1840    246.70995   -6958.3569   -6930.8361   -3626.6691    20354.533   0.84851616 
    1850    241.86654   -6957.8157   -6930.8351   -3456.7016    20354.533   0.85180041 
    1860    250.43531   -6958.7737   -6930.8372    -3514.864    20354.533    0.8548436 
    1870    251.67809   -6958.9117   -6930.8366    -3317.435    20354.533   0.85904271 
    1880    249.74232   -6958.6953   -6930.8361   -2814.4162    20354.533   0.86408884 
    1890    251.03758   -6958.8407    -6930.837   -2598.2462    20354.533   0.86903478 
    1900    247.47063   -6958.4421   -6930.8364   -2762.2368    20354.533   0.87371783 
    1910    246.41436   -6958.3238   -6930.8359   -3170.3298    20354.533   0.87809892 
    1920    252.32808   -6958.9847   -6930.8371   -3481.0709    20354.533    0.8826292 
    1930    251.70282   -6958.9148    -6930.837   -3522.0143    20354.533   0.88826081 
    1940    246.41342   -6958.3234   -6930.8356   -3409.4835    20354.533   0.89502972 
    1950     251.5574   -6958.8983   -6930.8367   -3383.3627    20354.533   0.90192896 
    1960    256.70331    -6959.473   -6930.8374   -3284.7665    20354.533   0.90797257 
    1970    251.99325   -6958.9465   -6930.8363   -3170.8424    20354.533   0.91214044 
    1980    249.36931   -6958.6536    -6930.836    -3268.664    20354.533   0.91382089 
    1990    253.19383   -6959.0808   -6930.8367   -3484.4565    20354.533   0.91429439 
    2000    255.75062   -6959.3664    -6930.837   -3645.8324    20354.533   0.91593526 
Loop time of 1482.25 on 16 procs for 2000 steps with 864 atoms

Performance: 0.117 ns/day, 205.868 hours/ns, 1.349 timesteps/s
97.6% CPU use with 16 MPI tasks x 1 OpenMP threads

MPI task timing breakdown:
Section |  min time  |  avg time  |  max time  |%varavg| %total
---------------------------------------------------------------
Pair    | 688.08     | 1206.9     | 1473.9     | 580.5 | 81.42
Bond    | 0.00013685 | 0.00043602 | 0.0012596  |   0.0 |  0.00
Neigh   | 0.017837   | 0.02753    | 0.035918   |   3.5 |  0.00
Comm    | 8.1252     | 257.84     | 751.62     |1209.0 | 17.39
Output  | 0.1422     | 8.8987     | 21.453     | 277.0 |  0.60
Modify  | 0.0093725  | 0.011444   | 0.014943   |   1.6 |  0.00
Other   |            | 8.589      |            |       |  0.58

Nlocal:        54.0000 ave          71 max          39 min
Histogram: 3 2 1 1 0 4 1 0 3 1
Nghost:        497.125 ave         591 max         387 min
Histogram: 1 2 1 1 1 3 2 1 2 2
Neighs:         0.00000 ave           0 max           0 min
Histogram: 16 0 0 0 0 0 0 0 0 0
FullNghs:      2382.00 ave        3956 max        1259 min
Histogram: 3 2 2 0 2 3 1 1 1 1

Total # of neighbors = 38112
Ave neighs/atom = 44.111111
Ave special neighs/atom = 0.0000000
Neighbor list builds = 199
Dangerous builds = 198
Setting up Verlet run ...
  Unit style    : metal
  Current step  : 2000
  Time step     : 0.001
Per MPI rank memory allocation (min/avg/max) = 8.897 | 8.905 | 8.914 Mbytes
Step Temp PotEng TotEng Press Volume c_msd[4] 
    2000       1012.5   -6959.3664   -6846.4205    783.98132    20354.533   0.91593526 
    2010    884.62331   -6945.0617   -6846.3807     3363.452    20355.187    0.9314895 
    2020    694.47136   -6923.6087   -6846.1394     6869.032    20359.385   0.95974537 
    2030    633.22795   -6916.1907   -6845.5532    7600.4982    20370.398   0.98387147 
    2040    610.35166   -6912.6361   -6844.5504    7017.3287    20389.159    1.0027871 
    2050    587.84919   -6908.9036   -6843.3281    6251.2213    20415.196    1.0207611 
    2060    580.64539   -6906.9398   -6842.1679    5369.5386     20447.75    1.0392173 
    2070    617.91423    -6910.047   -6841.1177    4544.5937     20485.95    1.0585795 
    2080    633.35088   -6910.7032    -6840.052    4391.1937    20529.022    1.0813605 
    2090    613.68469   -6907.3868   -6838.9293    4295.9014    20576.725    1.1066806 
    2100    626.99834   -6907.6149   -6837.6723    3179.9353    20628.811     1.130127 
    2110     648.8378   -6908.5802   -6836.2014    1784.2698    20684.118    1.1512517 
    2120    641.83705   -6906.2133   -6834.6154    790.62682    20741.148    1.1718402 
    2130    642.57269   -6904.6525   -6832.9725   -196.44147     20798.68    1.1925725 
    2140    645.41088   -6903.2598   -6831.2632   -802.63956    20855.586    1.2149915 
    2150    639.35891   -6900.8376   -6829.5161    -1046.092     20911.09    1.2392612 
    2160    636.69861   -6898.7664   -6827.7417   -1189.6372      20964.8    1.2640195 
    2170    648.00967   -6898.2085    -6825.922   -1127.8788    21016.514    1.2891651 
    2180    667.57454   -6898.5058   -6824.0368   -1078.1383    21066.197    1.3162659 
    2190    685.34684   -6898.5541   -6822.1027   -982.87963    21113.862    1.3468858 
    2200     701.1143   -6898.3356   -6820.1252      -979.46    21159.544    1.3805864 
    2210    695.81774   -6895.7694   -6818.1498   -956.82371     21203.24     1.414898 
    2220    696.03971   -6893.8152   -6816.1709   -1435.2352    21244.898    1.4465649 
    2230    708.77176   -6893.2101   -6814.1455   -2165.0457    21284.008    1.4748738 
    2240    722.47239    -6892.661   -6812.0681    -2768.952    21319.809     1.500884 
    2250    737.92441   -6892.2669   -6809.9503   -3125.3469    21351.658    1.5243534 
    2260    748.27321   -6891.2799   -6807.8089   -2707.8283    21379.282    1.5453585 
    2270    755.08345   -6889.8909   -6805.6602    -1525.977    21403.234    1.5658926 
    2280    746.62516   -6886.8253   -6803.5381   -325.51904    21424.849    1.5888959 
    2290    736.50119   -6883.6076   -6801.4498    96.591747    21445.453    1.6132054 
    2300    749.82653   -6882.9879   -6799.3437   -562.66486    21465.499    1.6345864 
    2310    764.24268   -6882.4315   -6797.1791   -1457.5825    21484.353    1.6520018 
    2320    762.98674   -6880.1144   -6795.0021   -1773.0627    21501.116    1.6662098 
    2330    774.92957   -6879.2788   -6792.8342   -1931.2904    21515.423    1.6772013 
    2340    801.40236   -6880.0193   -6790.6216   -2108.5754    21527.153      1.68789 
    2350    818.94823   -6879.7392   -6788.3843   -2234.5136    21536.179    1.7027661 
    2360    808.75128   -6876.3841   -6786.1667   -2151.4933    21542.451    1.7219773 
    2370    813.61451   -6874.7365   -6783.9766    -2013.843    21546.115    1.7401212 
    2380    830.01971   -6874.3463   -6781.7563   -1678.3969    21547.421    1.7538794 
    2390    854.06672   -6874.7911   -6779.5186   -1402.4152    21546.774    1.7646678 
    2400    855.87383   -6872.7572   -6777.2832   -902.51831    21544.581    1.7776308 
    2410    859.24159   -6870.9418   -6775.0921   -366.06068    21541.423    1.7947776 
    2420    875.49713    -6870.563      -6772.9   -13.968899     21537.92      1.81643 
    2430    891.53735   -6870.1579   -6770.7056    108.34957    21534.483     1.842149 
    2440    897.33284   -6868.6355   -6768.5367     256.4166    21531.266    1.8696634 
    2450    898.79436    -6866.668   -6766.4061    871.74153    21528.469    1.8953346 
    2460    899.54184   -6864.6527   -6764.3075    1711.8918    21526.763    1.9157464 
    2470    912.54354   -6864.0142   -6762.2186    2026.7394    21526.991    1.9309962 
    2480    928.76674   -6863.7416   -6760.1362    2090.2235    21529.497    1.9479609 
    2490    936.11754   -6862.5101   -6758.0848    2118.9674     21534.33    1.9707848 
    2500    939.19483   -6860.8459   -6756.0773    1858.1737     21541.46    1.9976112 
    2510    955.86499   -6860.7297   -6754.1015    1088.2175    21550.512    2.0281015 
    2520    959.23986   -6859.1626   -6752.1579     430.2162    21560.652    2.0644533 
    2530    950.44076   -6856.2946   -6750.2715    373.94684    21571.152    2.1048175 
    2540    933.36956   -6852.5595   -6748.4408    982.14838    21581.969     2.144266 
    2550    943.07945   -6851.8188   -6746.6168    1425.2277    21593.716    2.1795242 
    2560    967.80051   -6852.7315   -6744.7719     1450.186     21606.87    2.2137451 
    2570    984.04931   -6852.7075   -6742.9353    1091.8967     21621.45    2.2490424 
    2580    1010.8061   -6853.9014   -6741.1445    302.99133    21637.008    2.2845315 
    2590    1017.9471   -6852.9751   -6739.4215    329.34171    21652.791     2.319764 
    2600    1021.8114   -6851.7981   -6737.8135    653.99008    21668.747     2.353314 
    2610    1020.0507   -6850.0909   -6736.3027    1156.5587    21685.262    2.3852867 
    2620    1016.8039     -6848.31    -6734.884    1403.2673    21702.874    2.4182353 
    2630     1027.854   -6848.1882   -6733.5296    1084.2431    21721.835    2.4532733 
    2640    1041.2992   -6848.3969   -6732.2384    759.54078    21741.832    2.4897859 
    2650    1045.0478   -6847.6157    -6731.039    567.21788    21762.468     2.527801 
    2660    1030.3638   -6844.8819   -6729.9433    828.91381    21783.582    2.5665526 
    2670    1038.1754    -6844.742    -6728.932    711.61063    21805.376    2.6044595 
    2680    1043.2728   -6844.3605   -6727.9819     252.8719    21827.719     2.642886 
    2690    1033.4728   -6842.3919   -6727.1064    68.953264    21850.151    2.6838695 
    2700    1025.0729   -6840.6434    -6726.295   -40.352724     21872.43    2.7282655 
    2710    1040.9374   -6841.6434   -6725.5253    -507.1156    21894.358    2.7731501 
    2720    1035.4986   -6840.3156   -6724.8041   -627.34775    21915.501    2.8197965 
    2730    1046.3792   -6840.8791   -6724.1539   -622.42802    21935.686    2.8697145 
    2740    1030.3272   -6838.5068   -6723.5722   -132.41978    21954.981     2.922678 
    2750    1018.1833   -6836.6393   -6723.0594    682.10767    21973.959    2.9746996 
    2760    1004.1156    -6834.579   -6722.5684    1054.2727     21993.53    3.0226019 
    2770     1026.576   -6836.5891    -6722.073    725.55117    22014.114    3.0646929 
    2780    1056.2928    -6839.424    -6721.593    498.02297    22035.388    3.1067401 
    2790    1066.3894   -6840.1584    -6721.201    439.07201    22057.085    3.1549869 
    2800    1060.6508   -6839.2479   -6720.9307    668.03327    22079.177     3.208469 
    2810     1050.257    -6837.937   -6720.7792    669.68005    22101.855    3.2605171 
    2820    1020.0904   -6834.4964   -6720.7038    357.05568    22125.134    3.3063584 
    2830    1006.0296   -6832.8736   -6720.6495   -486.81107    22148.592     3.345845 
    2840    1005.3645    -6832.727    -6720.577   -1167.4535    22171.288     3.382124 
    2850    981.33713   -6829.9459   -6720.4763   -820.39746    22192.505    3.4207512 
    2860    980.48691   -6829.6934   -6720.3186     -460.818    22212.559     3.462346 
    2870    1039.0194   -6836.0129   -6720.1087   -844.67752    22231.809    3.5043786 
    2880    1068.8737   -6839.1659   -6719.9314   -841.58726    22249.937    3.5507612 
    2890    1069.2803   -6839.1516   -6719.8718   -940.77506    22266.875    3.6021167 
    2900    1068.8837   -6839.1843   -6719.9487   -1142.5686    22282.514    3.6551144 
    2910    1045.5521   -6836.7762   -6720.1433   -1247.0554    22296.658    3.7074946 
    2920    1039.6207   -6836.3952    -6720.424    -1607.051    22309.127    3.7580637 
    2930    1031.8035   -6835.8575   -6720.7583   -1603.4469    22319.574     3.809097 
    2940    1030.7016   -6836.1217   -6721.1453   -1421.9299     22327.99    3.8584432 
    2950    1025.8532   -6836.0072   -6721.5717    -1258.437    22334.614     3.902035 
    2960    1019.4815   -6835.7601   -6722.0354   -1460.4224    22339.595    3.9409652 
    2970     977.4381   -6831.5159   -6722.4812   -762.50387    22342.863    3.9765779 
    2980    964.63315    -6830.458   -6722.8518   -429.76638    22345.115    4.0077482 
    2990    999.13796   -6834.5941   -6723.1388   -855.64474    22346.744    4.0359271 
    3000    1017.3664   -6836.8873   -6723.3985   -867.22152    22347.367    4.0642269 
    3010    1023.2777   -6837.8201   -6723.6719   -702.91357    22346.946    4.0922386 
    3020     1041.956   -6840.2136   -6723.9819   -540.18091     22345.67    4.1184242 
    3030    1048.8633   -6841.3563    -6724.354   -143.25304    22343.782    4.1423225 
    3040    1044.4399   -6841.3209    -6724.812   -29.123676      22341.7    4.1660617 
    3050    1005.9325   -6837.5288   -6725.3155    -17.25776    22339.582    4.1952065 
    3060    984.29608   -6835.6004   -6725.8007   -429.15563    22337.398    4.2292577 
    3070     972.8525   -6834.7456   -6726.2225   -530.85897    22334.732    4.2656497 
    3080    965.76747   -6834.2779   -6726.5451   -36.149571    22331.517    4.3014515 
    3090     995.6348   -6837.8541   -6726.7895   -331.06381    22328.167     4.334925 
    3100    1001.6983   -6838.7258   -6726.9848   -792.21297    22324.429    4.3690988 
    3110    1013.3616   -6840.2099   -6727.1679   -1256.4032    22319.747    4.4045189 
    3120    1022.3983   -6841.4049   -6727.3549   -1481.4259    22313.582    4.4408207 
    3130    1023.3374    -6841.723   -6727.5682   -1426.3333    22305.646    4.4798542 
    3140    1009.4913   -6840.4097   -6727.7995   -1105.9596    22296.003    4.5223608 
    3150    1002.7421   -6839.8925   -6728.0351   -1035.1147    22284.991    4.5650001 
    3160    984.13093   -6838.0113     -6728.23   -965.82806    22272.774    4.6050777 
    3170    1007.7822   -6840.8139   -6728.3943   -1374.0312    22259.352    4.6412923 
    3180    1005.7586   -6840.7305   -6728.5366   -1159.6733    22244.379    4.6771282 
    3190    989.35479   -6839.0224   -6728.6584   -833.79495     22228.03      4.71353 
    3200    988.85166   -6839.0473   -6728.7394    -515.0722    22210.703    4.7494254 
    3210    975.91035   -6837.6223   -6728.7581    75.920178    22192.834    4.7872149 
    3220    961.40689   -6835.9413   -6728.6949    396.49875     22175.09    4.8276819 
    3230    956.04851   -6835.1752   -6728.5265    57.295612    22157.806    4.8661833 
    3240    953.86541   -6834.6464   -6728.2413   -140.70008    22140.658    4.8986272 
    3250    956.93866   -6834.5785   -6727.8305    152.76099    22123.438      4.92409 
    3260    956.79934   -6834.0261   -6727.2937    415.58998    22106.432    4.9418799 
    3270    958.48156   -6833.5653   -6726.6453    202.08756    22089.897    4.9527587 
    3280    966.54142   -6833.7063   -6725.8872    80.695326    22073.671    4.9617583 
    3290    983.78919   -6834.7783   -6725.0351   -56.516917     22057.57    4.9770072 
    3300    1026.2479   -6838.5981   -6724.1186   -48.572386    22041.452    5.0015843 
    3310    1056.4161   -6841.0531   -6723.2082   -103.57475    22025.299    5.0336533 
    3320    1049.3442   -6839.4507   -6722.3948    230.00177    22009.092    5.0694962 
    3330    1032.5298   -6836.8603   -6721.6801    729.79741    21993.212    5.1028627 
    3340    1033.5448   -6836.3266   -6721.0331    998.07417    21978.211    5.1327149 
    3350    1002.1209   -6832.2078   -6720.4197    2003.4868    21964.534    5.1614692 
    3360    1017.6573   -6833.3379   -6719.8166    2531.4189    21953.199    5.1928075 
    3370    1042.0252   -6835.4528   -6719.2134    2977.2764    21944.919    5.2349434 
    3380    1039.6711   -6834.6403   -6718.6635    3458.1743     21940.22     5.292686 
    3390    1052.7917   -6835.6425    -6718.202     3501.929      21939.6    5.3601545 
    3400    1048.1887   -6834.7572   -6717.8302    2918.7626    21943.108    5.4272626 
    3410    1036.3973   -6833.1628   -6717.5512    1938.7596    21950.075    5.4864853 
    3420    1021.2002   -6831.2379   -6717.3215    726.57315    21959.337    5.5383078 
    3430    1022.4707   -6831.1739   -6717.1158    238.19345    21969.578    5.5883223 
    3440    1014.9267   -6830.1327   -6716.9162    696.46119    21980.238     5.641272 
    3450    1035.5358   -6832.2522   -6716.7366    644.22131    21991.673    5.6951896 
    3460    1025.7477   -6831.0091   -6716.5854    871.78188    22003.958    5.7464562 
    3470    1025.2295   -6830.8456   -6716.4797    1107.0527    22017.321    5.7914677 
    3480    1033.2429   -6831.6652   -6716.4054    808.41621    22032.004    5.8313197 
    3490    1022.9706   -6830.4836   -6716.3697    340.05118    22047.716    5.8702758 
    3500    1022.6066   -6830.4311   -6716.3578   -220.69553    22063.881    5.9121574 
    3510    1029.4388   -6831.2033   -6716.3678   -91.237574     22079.93    5.9603906 
    3520    1032.3999   -6831.5841   -6716.4184    161.58625    22095.939    6.0134313 
    3530    1030.8401   -6831.5087   -6716.5169    389.06174    22112.211    6.0705818 
    3540    1018.2385   -6830.2404   -6716.6544    788.65404    22129.015    6.1326064 
    3550    1008.9236   -6829.3602   -6716.8132    1467.9434     22146.88    6.1971872 
    3560    1021.7114    -6830.958   -6716.9845    1796.7527     22166.56    6.2652319 
    3570    1025.4918   -6831.5717   -6717.1765    2137.9161    22188.531    6.3371568 
    3580    1032.5524   -6832.5921   -6717.4093    1938.5735    22213.155    6.4102306 
    3590    1045.8651   -6834.3666   -6717.6988    1387.0172    22240.204      6.48374 
    3600    1038.4474    -6833.888   -6718.0477    1246.5598    22269.124    6.5620376 
    3610    1045.2944   -6835.0725   -6718.4683     577.8822     22299.62    6.6478027 
    3620    1029.2465   -6833.7517   -6718.9377   -301.32761    22330.927    6.7365514 
    3630    1014.1568   -6832.5521   -6719.4214   -1025.8551    22361.968    6.8261647 
    3640    1014.3997   -6833.0557   -6719.8979   -1305.0399    22391.862    6.9156223 
    3650     1001.497   -6832.0853   -6720.3668   -1274.4658    22420.233    6.9999464 
    3660    994.45581   -6831.7409   -6720.8079   -1501.7687    22447.018    7.0761011 
    3670    1005.8348   -6833.4192   -6721.2168   -1762.6388    22471.936    7.1447603 
    3680    1003.0778   -6833.4917   -6721.5969    -1719.699    22494.706    7.2089671 
    3690    1022.4277   -6836.0315   -6721.9781   -1881.1896    22515.291    7.2700589 
    3700     1016.394   -6835.7625   -6722.3823   -1712.4798    22533.555    7.3344467 
    3710    1008.1617    -6835.266   -6722.8041   -1232.8635    22549.696    7.4041379 
    3720    989.65873   -6833.6022   -6723.2043   -554.15664    22564.315    7.4787422 
    3730    978.82472   -6832.7421   -6723.5527   -458.00891    22578.158    7.5579237 
    3740    971.43807   -6832.1852   -6723.8198   -588.40604    22591.399      7.63843 
    3750     993.1925   -6834.7946   -6724.0025   -1072.7481    22603.837    7.7210454 
    3760     1014.933    -6837.355   -6724.1377    -1553.772    22614.889    7.8086963 
    3770    1012.6251   -6837.2351   -6724.2752   -1562.4605    22624.026    7.8998589 
    3780    1002.9815    -6836.308   -6724.4239   -1696.8577    22631.154    7.9944811 
    3790    975.86796   -6833.4131   -6724.5536   -1628.9034    22636.142    8.0919134 
    3800    969.18188   -6832.7347    -6724.621   -1539.0372    22639.055    8.1841027 
    3810    975.04256   -6833.3682   -6724.6008   -1233.5936    22640.039    8.2600367 
    3820    975.61651   -6833.3244   -6724.4929     -961.987    22639.471     8.319088 
    3830    974.36393   -6832.9975   -6724.3058   -1041.0382     22637.65    8.3628462 
    3840    967.08789    -6831.917   -6724.0369   -632.12261    22634.591    8.3900575 
    3850    982.66643   -6833.2989   -6723.6809   -618.63078    22630.694     8.406957 
    3860    985.10824   -6833.1318   -6723.2415   -893.30433    22626.004     8.427287 
    3870    995.13671   -6833.7562   -6722.7472   -823.18006    22620.226    8.4658271 
    3880    1001.8037    -6833.955   -6722.2023   -225.12165     22613.49     8.524784 
    3890    992.00711   -6832.2894   -6721.6295    454.91895    22606.506    8.5947822 
    3900    989.33174   -6831.3783   -6721.0168    668.08532    22600.072    8.6689168 
    3910     1008.135   -6832.8255   -6720.3665    6.9381228    22594.391    8.7366534 
    3920    1025.1959   -6834.0691    -6719.707   -423.24763    22588.771     8.801856 
    3930    1028.8783   -6833.8449    -6719.072   -166.81116    22582.715    8.8777101 
    3940    1014.2149   -6831.6028   -6718.4656   -10.601842    22576.454    8.9651105 
    3950    1015.6013   -6831.1748   -6717.8829   -180.69557     22570.18    9.0522389 
    3960    1035.2231    -6832.797   -6717.3163   -408.29746    22563.712    9.1324996 
    3970    1036.2859   -6832.4001   -6716.8009   -287.37308    22556.807    9.2068245 
    3980    1009.0867   -6828.8984   -6716.3333     291.5001    22549.618    9.2719729 
    3990      1011.69   -6828.7345    -6715.879    809.31683    22542.808    9.3211935 
    4000    1026.6062   -6829.9296   -6715.4101     1242.735    22537.055    9.3560539 
    4010    1051.9892   -6832.3218   -6714.9708    1403.8929     22532.87     9.385654 
    4020    1053.7356   -6832.1508    -6714.605    1345.7631    22530.441    9.4271835 
    4030    1039.1521   -6830.2653   -6714.3463    1370.4457    22529.722    9.4871317 
    4040    1007.8754   -6826.5721   -6714.1421    1198.7955    22530.726    9.5569123 
    4050    1015.6489   -6827.2474   -6713.9503    131.40036    22533.113    9.6285625 
    4060    1013.5546    -6826.796   -6713.7325   -306.61026    22535.743    9.6994901 
    4070    1011.5771   -6826.3622   -6713.5192    78.966443     22538.08    9.7717733 
    4080     1021.937   -6827.3033   -6713.3047    160.65938    22540.469    9.8473572 
    4090    1037.7206   -6828.8669   -6713.1076   -228.26101     22542.99    9.9241678 
    4100    1042.2058   -6829.2106   -6712.9509   -522.11601     22545.24    9.9963956 
    4110    1024.4786   -6827.1281    -6712.846   -366.43461    22546.882    10.058084 
    4120    1006.9762   -6825.0982   -6712.7685    104.30979    22548.112    10.112831 
    4130     1018.055   -6826.2562   -6712.6906    12.282164    22549.411    10.164031 
    4140    1027.8342    -6827.284   -6712.6276   -167.50206    22550.731    10.212458 
    4150    1014.3033   -6825.7431   -6712.5961    -33.06071    22551.888    10.258447 
    4160    1004.5026   -6824.6336   -6712.5798    8.6474173    22552.984     10.29955 
    4170     1006.831   -6824.8671   -6712.5536    217.28814    22554.118    10.336082 
    4180    1011.5286   -6825.3553   -6712.5178    811.61018    22555.569    10.371684 
    4190    1011.2405   -6825.2779   -6712.4725    1115.4012    22558.004    10.410469 
    4200    1024.5928   -6826.7371   -6712.4422    580.86097    22561.753    10.457049 
    4210    1015.1744   -6825.6638   -6712.4195   -162.14628    22566.226    10.505775 
    4220       1010.7   -6825.1589   -6712.4138   -790.24005    22570.494    10.545617 
    4230    990.91791   -6822.9242   -6712.3858    -843.3029     22573.83     10.57509 
    4240    998.76386    -6823.748   -6712.3344   -906.07674    22576.065    10.596325 
    4250      990.934    -6822.771   -6712.2308   -628.35416    22577.211    10.618127 
    4260    1030.2035   -6827.0235   -6712.1028   -619.67653    22577.512    10.647444 
    4270    1052.0307   -6829.3493   -6711.9936    32.899067    22577.119    10.687072 
    4280    1044.3274   -6828.4654   -6711.9691    683.63317    22576.773    10.735407 
    4290    1030.5278   -6826.9745   -6712.0176    809.69715    22577.238    10.793749 
    4300    1023.4944   -6826.2835   -6712.1112    644.27366    22578.703    10.860165 
    4310    1004.6692   -6824.3049   -6712.2325    861.38377    22581.047     10.92543 
    4320    997.88294   -6823.6485   -6712.3332    1190.6919    22584.511    10.971383 
    4330    1033.3729   -6827.7032   -6712.4288    1124.5613    22589.437    10.990931 
    4340    1033.7302   -6827.8658   -6712.5516    1131.4431    22595.833    11.001886 
    4350    1024.4706    -6827.005   -6712.7238    933.41317    22603.644    11.020535 
    4360    1029.0605   -6827.7252    -6712.932    1187.6411    22612.718    11.056581 
    4370    1049.5113   -6830.2685   -6713.1939    1051.3771    22623.268     11.10985 
    4380    1041.0592   -6829.6593   -6713.5275    642.81184    22635.157     11.17212 
    4390    1028.3905   -6828.6407   -6713.9222    46.456972    22647.878    11.235682 
    4400    1055.5415    -6832.118   -6714.3708   -908.84459    22660.664    11.300032 
    4410    1059.8001   -6833.1467   -6714.9244   -1544.9676     22672.36    11.363958 
    4420    1012.3436   -6828.4748   -6715.5464   -1342.6084    22682.233    11.421281 
    4430    1005.3277   -6828.3168    -6716.171    -1324.549     22690.42     11.47282 
    4440    1006.0383   -6829.0005   -6716.7754   -1353.2074    22696.942    11.527201 
    4450    987.44113   -6827.4912   -6717.3407   -991.06521    22701.815    11.588418 
    4460    986.58648   -6827.9045   -6717.8493   -930.33236    22705.395    11.651215 
    4470    975.85544   -6827.1481     -6718.29   -536.20839    22707.861    11.711897 
    4480    967.94808   -6826.6193   -6718.6432   -288.14988    22709.639    11.771629 
    4490    979.12604   -6828.1322   -6718.9092   -786.31109    22710.962    11.830695 
    4500    990.78434   -6829.6247   -6719.1012   -1273.6018    22711.299    11.890971 
    4510    996.91517    -6830.464   -6719.2566   -1190.9312    22710.066    11.956035 
    4520     976.7663   -6828.3172   -6719.3574   -670.65663    22707.365    12.019432 
    4530     1012.207   -6832.3264   -6719.4132   -780.80597    22703.726    12.071281 
    4540    1017.9473   -6833.0113   -6719.4577   -689.60839    22699.099     12.11239 
    4550    983.69809   -6829.2299   -6719.4969   -307.07199    22693.611    12.148943 
    4560    995.03147   -6830.4967   -6719.4995   -940.71636    22687.557    12.181046 
    4570    993.65268   -6830.2981   -6719.4546   -1468.0693    22680.283    12.205992 
    4580    994.39545   -6830.2958   -6719.3695   -1733.3399    22671.099    12.224508 
    4590    1016.7018   -6832.6638   -6719.2492   -1789.8128    22659.671    12.235864 
    4600    1041.5638   -6835.3259   -6719.1379   -1841.0519    22645.883     12.23985 
    4610    1036.7235   -6834.7238   -6719.0758   -1303.1105    22629.737    12.238462 
    4620    1010.4176   -6831.7751   -6719.0615   -326.53523    22611.897    12.234421 
    4630    986.37046   -6829.0672   -6719.0361    74.031998    22593.459    12.233637 
    4640    985.89991    -6828.936   -6718.9573    159.94755    22574.982    12.238798 
    4650    990.33072   -6829.2849    -6718.812    178.15215    22556.599    12.250318 
    4660     1001.855   -6830.3739   -6718.6155   -19.661754    22538.295    12.265661 
    4670     1013.069   -6831.3901   -6718.3808   -32.379477    22519.883    12.277093 
    4680    1036.1436   -6833.7393   -6718.1559   -200.95649    22501.277    12.278803 
    4690    1000.3254   -6829.5413   -6717.9535   -91.511546    22482.338    12.280243 
    4700    979.11368   -6826.9591   -6717.7375    316.88042    22463.201    12.280569 
    4710    985.43897   -6827.3675   -6717.4403    908.95121    22444.372    12.278745 
    4720     992.9039   -6827.8319   -6717.0719    1442.1721    22426.556    12.283464 
    4730    987.75106    -6826.823   -6716.6379    1745.0121    22410.404    12.301113 
    4740    999.28119   -6827.6182   -6716.1469    1685.2094    22396.309    12.325081 
    4750    1010.8215   -6828.3735   -6715.6148    1175.9186    22384.195    12.336721 
    4760    1011.7789   -6827.9374   -6715.0719    974.43576    22373.533    12.336256 
    4770    1023.7019   -6828.7229   -6714.5274    967.14876    22364.025    12.336425 
    4780    1022.5746   -6828.0571   -6713.9874    1447.3407    22355.729    12.337906 
    4790    1017.8515   -6827.0151   -6713.4723    1521.3298     22349.14    12.345532 
    4800    1033.3542   -6828.2616   -6712.9894    1128.0488    22344.347    12.362483 
    4810    1043.3205   -6828.9318   -6712.5478    1296.5027    22341.003    12.378423 
    4820    1043.6419   -6828.5921   -6712.1723    2146.7263    22339.322      12.3875 
    4830    1024.3212   -6826.1128   -6711.8482    3017.1693    22340.317    12.393552 
    4840    1014.2683   -6824.7172    -6711.574    3229.8692    22344.988     12.40069 
    4850    1018.8886   -6824.9815   -6711.3229    3013.4386    22353.664    12.410546 
    4860    1034.2729   -6826.4708   -6711.0961    2157.2868    22366.075    12.425373 
    4870    1015.0431   -6824.1188   -6710.8892    1738.3495    22381.309    12.451439 
    4880    1006.5298   -6822.9753   -6710.6954    1327.2252     22398.78    12.485661 
    4890     1026.584    -6825.008    -6710.491    779.38556    22417.987    12.517456 
    4900    1036.8174   -6825.9598   -6710.3012    304.34342    22438.287    12.544589 
    4910    1055.6058   -6827.9106   -6710.1562    -368.6008    22459.052    12.569879 
    4920    1062.8831   -6828.6499   -6710.0837   -1083.1886     22479.44    12.595469 
    4930    1051.6837   -6827.4285   -6710.1116   -1455.4886     22498.58    12.628406 
    4940     1037.983   -6826.0228   -6710.2342   -900.34172    22516.056    12.677687 
    4950    1027.0388   -6824.9858   -6710.4181   -195.22626     22532.47    12.736998 
    4960     1032.353   -6825.8283   -6710.6677   -393.09072    22548.568    12.797161 
    4970    1019.6638   -6824.7298   -6710.9848   -709.68859    22564.186    12.852688 
    4980     1013.879   -6824.4634   -6711.3637    -929.7652    22578.955     12.89586 
    4990    1007.4826   -6824.1707   -6711.7845   -957.99054    22592.584    12.930189 
    5000    1002.9047   -6824.1053   -6712.2298    -626.0975    22605.053    12.965236 
Loop time of 2195.98 on 16 procs for 3000 steps with 864 atoms

Performance: 0.118 ns/day, 203.331 hours/ns, 1.366 timesteps/s
97.9% CPU use with 16 MPI tasks x 1 OpenMP threads

MPI task timing breakdown:
Section |  min time  |  avg time  |  max time  |%varavg| %total
---------------------------------------------------------------
Pair    | 1296.4     | 1875.2     | 2175.2     | 518.0 | 85.39
Bond    | 0.00022912 | 0.00067535 | 0.0031374  |   0.0 |  0.00
Neigh   | 0.028608   | 0.040992   | 0.051909   |   3.6 |  0.00
Comm    | 13.256     | 254.05     | 796.11     |1358.1 | 11.57
Output  | 0.20388    | 0.20897    | 0.28411    |   4.2 |  0.01
Modify  | 2.7881     | 66.412     | 142.06     | 631.1 |  3.02
Other   |            | 0.01702    |            |       |  0.00

Nlocal:        54.0000 ave          64 max          41 min
Histogram: 1 2 0 2 1 2 3 1 2 2
Nghost:        468.250 ave         508 max         419 min
Histogram: 2 1 2 1 1 0 1 3 3 2
Neighs:         0.00000 ave           0 max           0 min
Histogram: 16 0 0 0 0 0 0 0 0 0
FullNghs:      2066.25 ave        2675 max        1377 min
Histogram: 3 0 1 3 0 1 3 0 2 3

Total # of neighbors = 33060
Ave neighs/atom = 38.263889
Ave special neighs/atom = 0.0000000
Neighbor list builds = 300
Dangerous builds = 300
Setting up Verlet run ...
  Unit style    : metal
  Current step  : 5000
  Time step     : 0.001
Per MPI rank memory allocation (min/avg/max) = 8.898 | 8.905 | 8.914 Mbytes
Step Temp PotEng TotEng Press Volume c_msd[4] 
    5000    1002.9047   -6824.1053   -6712.2298    -626.0975    22605.053    12.965236 
    5010    1016.3287   -6825.5955   -6712.2225   -191.35254    22604.755    13.023759 
    5020    1034.3113   -6827.6078   -6712.2288    161.85372    22604.216    13.083051 
    5030    1029.8108   -6827.1538   -6712.2768    482.58361    22603.887    13.126669 
    5040    1020.6475   -6826.2193   -6712.3645    952.52231    22604.202    13.149992 
    5050    1025.6177   -6826.8828   -6712.4736      1077.16    22605.691    13.170429 
    5060    1038.9419   -6828.5287   -6712.6332    198.78127    22608.429    13.201236 
    5070    1027.4677   -6827.4658   -6712.8503   -586.11812     22611.47    13.241897 
    5080    1003.9102   -6825.1068   -6713.1191   -913.00404    22613.818    13.288616 
    5090    968.02862   -6821.3606   -6713.3756   -997.86061    22615.027    13.336629 
    5100    947.18392    -6819.219   -6713.5592   -726.27265    22615.027    13.385109 
    5110     967.2976   -6821.5366   -6713.6331   -789.88947     22614.07    13.431252 
    5120    1004.9562    -6825.719   -6713.6146   -817.25108    22612.137    13.468614 
    5130    1018.7068    -6827.207   -6713.5687   -456.41322    22609.209    13.494095 
    5140    1021.2903   -6827.4551   -6713.5286    6.0505248    22605.701    13.512912 
    5150    1021.1367    -6827.414   -6713.5047    293.27024     22602.17    13.539086 
    5160    983.93817    -6823.234   -6713.4742    476.28399    22598.995    13.585155 
    5170    987.62748   -6823.5641   -6713.3928    73.567081    22596.345    13.649094 
    5180    1009.9475   -6825.8974   -6713.2362    -313.0862      22593.8    13.721089 
    5190     1006.735   -6825.3293   -6713.0265   -164.10141    22590.921    13.788467 
    5200    1015.3368   -6826.0231   -6712.7607   -270.47943    22587.798    13.849415 
    5210    1048.9623   -6829.4694   -6712.4561    -658.8278    22584.293    13.908807 
    5220    1055.5329   -6829.9168   -6712.1705   -540.03512    22580.019    13.969901 
    5230    1040.2014   -6827.9756   -6711.9396   -647.50479    22575.022    14.029808 
    5240    1030.4406   -6826.7061   -6711.7589   -1292.1581    22569.101    14.082015 
    5250    1022.3245   -6825.6497   -6711.6079   -1807.2229    22561.526    14.115735 
    5260    1029.4676    -6826.319   -6711.4803   -2654.6958    22551.579    14.125231 
    5270    1033.6827    -6826.698   -6711.3891   -2850.1994    22538.307    14.120429 
    5280    1017.0143   -6824.7871   -6711.3377   -2073.6972    22521.464    14.117994 
    5290    1000.6764   -6822.9081   -6711.2812   -1022.0765    22501.958    14.123857 
    5300    1019.6326   -6824.9345    -6711.193   -343.56467    22481.015    14.131123 
    5310    1048.7229    -6828.088   -6711.1014    -22.95935    22459.467    14.136006 
    5320    1046.5702   -6827.8054   -6711.0589    592.63458    22437.825    14.145133 
    5330    1050.1902   -6828.2503      -6711.1    1120.1967    22416.801    14.162584 
    5340    1047.1378   -6828.0391   -6711.2293     1327.398    22397.019    14.186892 
    5350    1054.9246   -6829.1434    -6711.465    982.61944    22378.719    14.213872 
    5360    1062.4882   -6830.3514   -6711.8293    325.43689    22361.511    14.240122 
    5370    1038.5805    -6828.185   -6712.3298    236.16399    22344.687    14.262211 
    5380      1014.57   -6826.0845   -6712.9077    460.87561    22328.071     14.27599 
    5390     1013.541    -6826.577    -6713.515    971.32345    22311.966    14.284671 
    5400    999.03107   -6825.5689   -6714.1254    1350.3931    22296.966    14.295461 
    5410    994.26507   -6825.6287    -6714.717    1310.2475    22283.515     14.31225 
    5420    1008.2656   -6827.7604   -6715.2869    690.44007    22271.535    14.338795 
    5430    1009.1174   -6828.4177   -6715.8492     350.7412    22260.384    14.377325 
    5440    1014.0863   -6829.5246   -6716.4017   -6.6436281    22249.593    14.425455 
    5450    1011.9468   -6829.8388   -6716.9546   -134.24738    22238.763    14.475845 
    5460    990.34194   -6827.9577   -6717.4836   -5.0055804    22227.737    14.517809 
    5470    977.72701   -6827.0089   -6717.9419    241.20707    22216.653    14.554769 
    5480    978.57279   -6827.4732   -6718.3119    547.25714    22205.803    14.593342 
    5490    982.43599   -6828.2022     -6718.61    607.46319    22195.511    14.630375 
    5500    973.78476   -6827.4638   -6718.8366     823.2097    22185.922    14.664579 
    5510    967.92322   -6826.9466   -6718.9733    1063.9111    22177.283    14.695396 
    5520    982.09108   -6828.5845   -6719.0308    1301.3504    22169.878    14.722826 
    5530    984.17994   -6828.7974   -6719.0106    1738.1791    22164.032    14.751821 
    5540    989.19111   -6829.2815   -6718.9357    1930.1886    22160.236    14.786299 
    5550    965.40947   -6826.4878   -6718.7949    2105.8955    22158.775    14.823795 
    5560    955.51003    -6825.147   -6718.5584    2152.4091    22159.859    14.859822 
    5570    985.17309   -6828.0967   -6718.1992    1782.2151    22163.551    14.886778 
    5580    996.92641   -6828.9444   -6717.7358    1726.2269    22169.506    14.900627 
    5590    1001.1671   -6828.8891   -6717.2074    2140.8805    22177.714    14.908836 
    5600     1026.255   -6831.1052   -6716.6249    1580.4631    22188.528    14.925452 
    5610    1047.2089   -6832.8324   -6716.0147    940.56311     22201.41    14.963289 
    5620    1053.4365   -6832.9488   -6715.4364    1003.2538    22215.682     15.02785 
    5630    1052.4886   -6832.3324   -6714.9257    1034.1183     22231.35    15.113542 
    5640    1042.7542   -6830.8008     -6714.48    978.83107    22248.478    15.205607 
    5650    1027.6629   -6828.7184    -6714.081    903.17715    22267.039    15.285658 
    5660    1041.5359   -6829.8823   -6713.6974    156.24588    22286.891    15.342516 
    5670    1051.5191   -6830.6303   -6713.3318   -753.24451    22307.169    15.383305 
    5680    1004.4158   -6825.0348   -6712.9907   -338.14814    22326.948    15.416973 
    5690    1024.0795   -6826.8791   -6712.6415   -309.36455    22346.508    15.450441 
    5700      1055.03   -6829.9351    -6712.245   -500.01853    22365.927    15.502648 
    5710     1044.589   -6828.3915   -6711.8661      -358.04    22385.009    15.583328 
    5720    1040.2089    -6827.543   -6711.5061    18.961866     22403.94    15.677881 
    5730    1055.0008   -6828.8334   -6711.1465   -159.05843    22423.073    15.764307 
    5740     1056.691   -6828.6646   -6710.7891   -390.80406    22442.275    15.829031 
    5750    1058.4787   -6828.5462   -6710.4713    -606.5662    22461.229    15.872016 
    5760     1019.152   -6823.8664   -6710.1784   -542.24601    22479.694    15.900183 
    5770    1004.6411   -6821.9358   -6709.8666   -780.84035    22497.686    15.919159 
    5780    1024.0621   -6823.7097    -6709.474   -1380.0507    22514.893    15.941984 
    5790    1023.5521   -6823.1857   -6709.0069   -1751.6758    22530.613    15.978804 
    5800    1029.6698   -6823.3512     -6708.49   -2025.5045    22544.328     16.02297 
    5810    1049.7969   -6825.0531   -6707.9466   -2450.7093    22555.618    16.060379 
    5820    1026.3699   -6821.9056   -6707.4125   -2196.2211    22564.022    16.083889 
    5830    1034.4302   -6822.3011   -6706.9088   -2138.5501    22569.714    16.096242 
    5840    1031.5396   -6821.4686   -6706.3988   -2296.5615    22572.754    16.104548 
    5850    1019.4187   -6819.6326    -6705.915   -2608.8092    22572.878    16.109633 
    5860     1009.242   -6818.0138   -6705.4313    -2705.509    22569.727    16.100996 
    5870    1020.7039   -6818.7917   -6704.9306   -2779.8844    22563.101    16.072526 
    5880    1054.0052   -6822.0138   -6704.4379    -2290.716    22552.926    16.033835 
    5890    1041.6463   -6820.1871   -6703.9898   -1237.5976    22539.788    16.000546 
    5900    1036.4433   -6819.2298    -6703.613   -728.27727     22524.85    15.976077 
    5910    1021.1749   -6817.1861   -6703.2725   -367.67146    22508.798    15.954825 
    5920    1037.5959   -6818.7053     -6702.96   -86.698698    22492.053    15.934875 
    5930    1046.1489     -6819.38   -6702.6805    703.45624    22475.036    15.921767 
    5940    1059.5146   -6820.6498   -6702.4593    1372.8392    22458.677    15.915622 
    5950    1107.5829   -6825.9086   -6702.3561    1324.6696    22443.747    15.909664 
    5960    1094.1863   -6824.5104   -6702.4523    1279.7678    22430.286    15.905808 
    5970    1073.7883     -6822.54   -6702.7573    1016.9736    22418.223    15.907678 
    5980    1062.2424   -6821.7223   -6703.2276    967.78929    22407.318    15.918212 
    5990    1058.6046   -6821.9325   -6703.8435    997.27301     22397.48    15.938077 
    6000    1064.8925   -6823.4076   -6704.6173    1332.0992    22388.809    15.964208 
    6010      1045.36   -6822.1223   -6705.5108    1837.3024     22381.73    15.994947 
    6020    1052.9461   -6823.9551   -6706.4974    1584.3101    22376.767    16.028398 
    6030    1040.8237   -6823.6325    -6707.527    1437.0431    22373.763    16.061245 
    6040     1045.106   -6825.1412   -6708.5581     1117.718    22372.495    16.088142 
    6050    1049.7696   -6826.6699   -6709.5665    826.07344     22372.59     16.10344 
    6060    1016.4858    -6823.858   -6710.4675    1337.4678    22373.821    16.109884 
    6070      1026.39   -6825.7287   -6711.2333    1426.6529    22376.681    16.114146 
    6080    1048.1901   -6828.8316   -6711.9044    1374.7149    22381.354    16.122308 
    6090    1045.4968   -6829.1504   -6712.5237    1333.0822    22387.813    16.143258 
    6100     1047.775   -6829.9787   -6713.0978    888.15082    22395.977    16.180412 
    6110    1052.2913   -6831.0327   -6713.6481    274.75955    22405.333    16.229993 
    6120    1036.7341    -6829.838   -6714.1887    453.88061    22415.239    16.296561 
    6130    1012.2979   -6827.6176   -6714.6942    1062.2213    22425.878    16.376386 
    6140    989.02518   -6825.4506   -6715.1234    1308.5237    22437.928     16.45085 
    6150    985.70121   -6825.4206   -6715.4641    1175.2538    22451.742    16.508381 
    6160    1000.7246   -6827.3594   -6715.7271    389.36381    22467.134    16.552251 
    6170    1009.2694   -6828.5338   -6715.9483   -152.77948    22483.238    16.593074 
    6180    997.03483     -6827.35   -6716.1293    -282.9738      22499.4    16.636923 
    6190    1021.2358   -6830.2057   -6716.2853   -925.35013    22515.315    16.688409 
    6200    1025.9695   -6830.8974    -6716.449   -1330.4162    22530.271    16.743107 
    6210    1007.1026   -6828.9762   -6716.6324   -1665.3373    22543.719    16.792902 
    6220    1006.3692   -6829.0781   -6716.8161   -2081.7808    22555.189    16.843435 
    6230    1006.4746   -6829.2595   -6716.9857   -2138.2406    22564.199    16.902146 
    6240    986.96173   -6827.2406   -6717.1435   -1947.1587     22570.62    16.958676 
    6250    969.83147   -6825.4346   -6717.2484   -1663.9409    22574.659    16.992892 
    6260    967.05151   -6825.1412   -6717.2652   -1631.9149    22576.607    17.006704 
    6270    974.97909   -6825.9588   -6717.1984   -1502.8012    22576.523    17.013544 
    6280    979.64808   -6826.3316   -6717.0503    -1168.911     22574.55    17.022575 
    6290    963.36818   -6824.2696   -6716.8044   -585.10889    22571.115    17.034003 
    6300    996.03396   -6827.5778   -6716.4687   -770.17927    22566.791    17.048591 
    6310    992.85546   -6826.8017   -6716.0471   -737.58813    22561.484     17.07405 
    6320    984.03714    -6825.352   -6715.5811   -910.53264    22555.133     17.10998 
    6330    973.22831   -6823.5856   -6715.0205   -1080.7033    22547.572    17.146593 
    6340    987.35396   -6824.4977   -6714.3568   -1377.4859    22538.521    17.175816 
    6350    1007.1603   -6825.9502   -6713.5999   -1500.3976    22527.613    17.208032 
    6360    1036.6781   -6828.4671   -6712.8241   -1540.4837    22514.647    17.259109 
    6370    1020.1283   -6825.8894   -6712.0925   -1291.3362    22499.594    17.322202 
    6380    1001.3662    -6823.118   -6711.4141   -705.36291    22482.748    17.377694 
    6390    1024.2821    -6825.022   -6710.7618   -126.28427    22464.773     17.41593 
    6400    1028.4159   -6824.8632   -6710.1419    891.28445    22446.473    17.439697 
    6410    1032.1467   -6824.7298   -6709.5923    1549.0865    22429.022    17.449694 
    6420    1040.7595   -6825.2207   -6709.1224    1671.6709    22413.208    17.441351 
    6430    1028.0311   -6823.4193   -6708.7408    1900.4015    22399.295    17.426824 
    6440     1040.822   -6824.5514   -6708.4461    1604.7184    22387.501    17.430436 
    6450    1008.7577   -6820.7442   -6708.2158    1659.2034    22377.592    17.466465 
    6460    982.18917   -6817.5669   -6708.0023    1687.9186    22369.608    17.518268 
    6470    1016.9592   -6821.2176   -6707.7742    1094.7944     22363.54     17.55639 
    6480    1015.2027   -6820.7912   -6707.5438    1140.4902    22358.843     17.56973 
    6490     1034.099   -6822.7113    -6707.356    1030.2672    22355.478    17.566424 
    6500    1047.1373   -6824.0361   -6707.2264    846.13665    22353.342    17.566975 
    6510    1037.2172   -6822.8725   -6707.1694    1308.3102    22352.323    17.580035 
    6520    1073.6155   -6826.9666   -6707.2031    1334.3738    22352.874    17.600351 
    6530    1089.2649   -6828.8828   -6707.3737    1311.7114    22355.105    17.624517 
    6540    1057.9219   -6825.6962   -6707.6835    1521.4075    22359.048    17.649747 
    6550    1070.1653   -6827.4871   -6708.1086    1185.6638    22364.899    17.671629 
    6560    1063.2903   -6827.2411   -6708.6295    981.97175    22372.388    17.692338 
    6570    1060.0852   -6827.4839   -6709.2298    625.25848    22381.221    17.722846 
    6580    1064.1505   -6828.5955   -6709.8879    509.32686    22391.043    17.770023 
    6590      1038.81   -6826.4457   -6710.5649    621.94969    22401.719     17.83396 
    6600    1029.9636   -6826.1003   -6711.2063    598.36539    22413.365    17.907943 
    6610    1009.3859   -6824.3776    -6711.779    557.07568    22425.989    17.993006 
    6620     981.8435   -6821.7556   -6712.2295    137.46641    22439.481    18.093932 
    6630    984.83268   -6822.3975    -6712.538   -381.67167    22453.367    18.202105 
    6640    987.52914   -6822.8894    -6712.729   -613.52744    22467.045    18.309752 
    6650    1002.4996   -6824.6771   -6712.8468   -875.06495    22480.184    18.412843 
    6660    1011.0027   -6825.6985   -6712.9196   -1046.1876    22492.445     18.51243 
    6670    1010.8937   -6825.7436   -6712.9769   -996.77763    22503.617     18.60648 
    6680    1007.7529   -6825.4403    -6713.024   -1335.8909    22513.659    18.702302 
    6690    997.29358   -6824.2915   -6713.0419   -1456.0759    22522.196    18.805573 
    6700    1011.4857   -6825.8692   -6713.0365   -1541.9587    22529.016    18.907901 
    6710    1000.8908   -6824.6653   -6713.0144   -1396.8874    22534.027    19.006729 
    6720    1005.8423   -6825.1984   -6712.9952   -1449.7987    22537.319    19.104643 
    6730    1015.3425   -6826.2352   -6712.9722   -1377.2734    22538.844    19.198552 
    6740    1026.1455   -6827.4271    -6712.959   -1060.6695    22538.672    19.279991 
    6750    1034.3274   -6828.3452   -6712.9644   -673.14589    22537.161    19.341728 
    6760    1020.5103   -6826.8347   -6712.9952   -334.24836    22534.778     19.38657 
    6770    999.64316   -6824.5485   -6713.0368   -310.83371    22531.911    19.432938 
    6780     999.2165   -6824.5279   -6713.0638   -499.21515    22528.591    19.492173 
    6790    988.90282   -6823.3691   -6713.0555   -53.699809    22524.692    19.555354 
    6800    997.49945   -6824.2747   -6713.0021    313.64288    22520.673    19.608212 
    6810    1020.2881   -6826.7284   -6712.9137    176.49838    22516.947    19.652377 
    6820    1011.1999   -6825.6192   -6712.8184    497.41213    22513.476    19.705249 
    6830    1014.9761   -6825.9621   -6712.7399    641.91536    22510.571    19.772271 
    6840    1014.1539   -6825.7918   -6712.6614    753.26403     22508.46    19.851381 
    6850    1005.5352   -6824.7495   -6712.5805    980.53117    22507.301    19.944899 
    6860    1007.3102   -6824.8427   -6712.4757     745.7588    22507.315    20.049868 
    6870     1011.787   -6825.2055   -6712.3391    144.03242    22508.226    20.147515 
    6880    1008.5378   -6824.6881   -6712.1842   -367.31298    22509.341    20.223253 
    6890     1017.669   -6825.5367   -6712.0142   -643.70731    22510.027    20.273973 
    6900    1015.9373   -6825.1606   -6711.8313    -518.4494    22509.943     20.30767 
    6910     1027.161   -6826.2256   -6711.6443   -407.82243    22509.186    20.337467 
    6920    1030.8897   -6826.4529   -6711.4556   -98.206227    22507.933    20.376662 
    6930    1020.3748   -6825.0935   -6711.2692    450.82751    22506.584    20.433495 
    6940    1018.5577   -6824.6814   -6711.0597    650.16999    22505.753    20.506737 
    6950    1022.7968   -6824.9229   -6710.8284    356.20208    22505.691    20.589958 
    6960    1014.9591   -6823.7944   -6710.5742    18.923628    22506.092    20.671703 
    6970     998.2366   -6821.6259   -6710.2711   -178.77952    22506.554    20.742902 
    6980     1044.554    -6826.429   -6709.9074    -883.6362    22506.725    20.806226 
    6990    1080.6902   -6830.0953   -6709.5427   -1011.4998    22505.869    20.864724 
    7000    1071.9028    -6828.855   -6709.2827     -818.966    22503.767    20.921483 
    7010    1080.7204   -6829.7061   -6709.1501   -798.48624    22500.605     20.97933 
    7020    1079.8437   -6829.6282     -6709.17   -364.29865    22496.479    21.039628 
    7030    1076.1038   -6829.4092   -6709.3682    127.83963    22491.888    21.108523 
    7040     1083.138   -6830.5918   -6709.7661    125.93118     22487.38    21.185837 
    7050    1081.5928   -6831.0344    -6710.381   -214.06402    22482.953    21.258487 
    7060    1069.4308   -6830.5007   -6711.2041    -388.3811    22478.255    21.319653 
    7070    1058.5339   -6830.2734   -6712.1924   -468.67367    22473.051    21.368897 
    7080    1048.4107   -6830.2459   -6713.2941   -438.44908    22467.263    21.408104 
    7090    1021.6557   -6828.3741   -6714.4068   -153.17146    22460.936    21.444173 
    7100    996.34475   -6826.5701   -6715.4263    127.41216    22454.388    21.476397 
    7110    1000.4352   -6827.9038   -6716.3037   -97.753302    22447.906    21.510785 
    7120    995.56611   -6828.1098   -6717.0529     13.95148    22441.294    21.556971 
    7130    969.07425   -6825.7441   -6717.6424    701.04206    22434.726    21.603737 
    7140    989.32055   -6828.4601   -6718.0999     1014.736    22428.955    21.637871 
    7150    992.53859   -6829.1788   -6718.4596    984.10525    22424.379    21.671271 
    7160    982.66932   -6828.3493   -6718.7311    818.25746    22421.004    21.716161 
    7170    979.03453   -6828.1315   -6718.9188    554.04205    22418.617    21.770206 
    7180    966.17474    -6826.801   -6719.0228    802.34647    22416.973    21.820361 
    7190    960.47221    -6826.169   -6719.0269     1050.341    22416.319    21.857948 
    7200    984.11507   -6828.7141   -6718.9345    774.09072    22416.912    21.889264 
    7210    1001.0893   -6830.4596   -6718.7866    206.36404    22418.436    21.931254 
    7220    988.38074   -6828.8641   -6718.6087    422.37275    22420.339    21.989744 
    7230    990.62483   -6828.8917    -6718.386    508.29726    22422.773    22.053903 
    7240    1006.2833   -6830.3668   -6718.1144   -177.93736    22425.778    22.113101 
    7250    1013.3061    -6830.849   -6717.8132   -614.55642     22428.62     22.16302 
    7260    1032.4175   -6832.6837    -6717.516   -613.57149    22430.761    22.198544 
    7270    1020.9508   -6831.1312   -6717.2426   -163.81138    22432.218    22.217178 
    7280     997.2268   -6828.2209   -6716.9787   -27.105202    22433.455    22.222842 
    7290    999.45984   -6828.1831   -6716.6918   -229.27031     22434.62    22.221814 
    7300    988.82723   -6826.6576   -6716.3524   -99.679618    22435.544     22.22039 
    7310    1004.2278   -6827.9834   -6715.9603   -118.75551     22436.33    22.217174 
    7320     1013.138   -6828.5326   -6715.5155    -336.4982    22436.955    22.211162 
    7330    1010.7152   -6827.7885   -6715.0417   -317.92088    22437.206    22.204088 
    7340     1017.484   -6828.0607   -6714.5588   -392.56625     22437.05    22.197714 
    7350     1022.095   -6828.0878   -6714.0715   -496.20988    22436.411    22.197309 
    7360    1014.3141   -6826.7221   -6713.5738    186.63436    22435.251    22.216514 
    7370     1016.406   -6826.4249   -6713.0433    1131.7521    22434.358    22.256078 
    7380    1046.8094   -6829.2817   -6712.5086    1345.2791    22434.793    22.313646 
    7390    1056.8634   -6829.9139   -6712.0192    1342.8719    22436.918    22.385056 
    7400    1059.2055   -6829.7803   -6711.6243    1250.9083    22440.725    22.457566 
    7410    1035.2984    -6826.797   -6711.3079    1194.6261    22446.111    22.520211 
    7420    1026.9414   -6825.5995   -6711.0426    736.12623    22452.928    22.568385 
    7430    1014.9801   -6824.0053   -6710.7827    685.84735    22460.726    22.597262 
    7440    1008.9304   -6823.0864   -6710.5387    834.69081    22469.388    22.599408 
    7450    998.09042   -6821.6172   -6710.2787    951.55394    22479.092    22.577551 
    7460    1013.3383   -6823.0031   -6709.9637    599.39036    22489.922    22.549583 
    7470    1033.9497   -6824.9321   -6709.5935    463.80214    22501.513    22.543987 
    7480    1011.9932   -6822.0735   -6709.1841    448.55268    22513.669    22.576404 
    7490    1011.0406   -6821.5014   -6708.7183   -33.732155    22526.309    22.629261 
    7500    1021.2099   -6822.0696   -6708.1521   -682.96991    22538.842     22.67294 
    7510    1008.6175   -6820.0041   -6707.4913   -699.38941    22550.547    22.700992 
    7520    1011.7388   -6819.5763   -6706.7153   -477.91244    22561.368    22.717893 
    7530    1032.0998   -6820.9416   -6705.8093   -620.52728    22571.514    22.731121 
    7540    1058.0446   -6822.8379   -6704.8115   -692.17232    22580.853    22.750927 
    7550    1066.6413   -6822.8048   -6703.8194   -460.91564    22589.315    22.784349 
    7560    1072.9102   -6822.5897    -6702.905   -482.32426    22597.136    22.825642 
    7570    1085.5919   -6823.2037   -6702.1043    -520.1848    22604.331    22.860671 
    7580    1074.6601   -6821.3385   -6701.4586    41.956139    22610.925    22.879222 
    7590    1049.4888   -6818.0462   -6700.9741    641.17951    22617.548    22.879195 
    7600     1021.092   -6814.4913    -6700.587    1030.5871     22624.94     22.87582 
    7610    1029.2435    -6815.056   -6700.2424    1006.3429    22633.556    22.896159 
    7620    1046.4588   -6816.6547   -6699.9207    318.75896    22643.346    22.951027 
    7630     1066.306   -6818.6177   -6699.6697   -521.58562     22653.49    23.014019 
    7640    1046.7329   -6816.2735   -6699.5089   -674.48192    22663.031    23.058071 
    7650    1067.9876   -6818.5884   -6699.4528   -1135.5018    22671.628    23.085664 
    7660    1085.1755   -6820.5786   -6699.5257    -1311.842    22678.775    23.109696 
    7670    1067.4715   -6818.8521   -6699.7741   -1044.1134    22684.292    23.135231 
    7680    1066.9412   -6819.1973   -6700.1784   -1340.1959    22688.406    23.161831 
    7690     1067.936   -6819.8921   -6700.7622   -2004.9221    22690.752    23.189984 
    7700    1019.9579   -6815.2653   -6701.4875   -1738.4239     22690.66    23.217507 
    7710     1011.791   -6815.1672   -6702.3004   -1037.2075    22688.394    23.243576 
    7720    1012.2508   -6816.0871    -6703.169   -484.43438    22684.792    23.280954 
    7730    987.74267   -6814.2348   -6704.0506    32.759051    22680.606     23.33981 
    7740    1010.0598   -6817.5863   -6704.9126    -102.8312    22676.402    23.404272 
    7750    1044.7311   -6822.3473    -6705.806   -465.03576    22672.047    23.453703 
    7760    1036.7008    -6822.374   -6706.7285   -492.15806    22667.147    23.491966 
    7770    1027.5189   -6822.2477   -6707.6264    -342.6268    22661.661    23.523185 
    7780    1027.2744    -6823.036    -6708.442   -201.78768     22655.77    23.552902 
    7790    1023.4107   -6823.3284   -6709.1654    -277.2542    22649.618    23.589276 
    7800    993.99086   -6820.6266   -6709.7454   -633.04369    22643.105    23.639707 
    7810    997.67991   -6821.4682   -6710.1755   -1632.5864    22635.733    23.686756 
    7820    1005.1828   -6822.6165   -6710.4869   -2099.2321    22626.377     23.70387 
    7830    1000.3545   -6822.3069   -6710.7159   -1807.2341     22614.45    23.702256 
    7840    1006.4046    -6823.146   -6710.8801   -1501.2324    22600.252    23.702387 
    7850     1011.334   -6823.8261   -6711.0103   -1605.1557    22584.106    23.706022 
    7860    993.87566    -6821.979   -6711.1107   -1382.5947    22566.005    23.709189 
    7870    1000.6738   -6822.7959   -6711.1693   -1254.2219     22546.17    23.714486 
    7880    1008.2464   -6823.6699   -6711.1984   -843.95367      22524.8    23.725363 
    7890    996.93805   -6822.4112   -6711.2013   -162.57588     22502.43    23.745294 
    7900    997.10963   -6822.4009   -6711.1718     309.9491    22479.857    23.772485 
    7910    1010.0088   -6823.7777   -6711.1097    492.76499    22457.675     23.79227 
    7920      1025.14   -6825.3906   -6711.0347    461.15175    22436.138    23.799504 
    7930    1039.8202   -6826.9885    -6710.995    197.00542    22415.173     23.80417 
    7940    1021.2759   -6824.9222   -6710.9973    388.97887    22394.544     23.81171 
    7950    1031.9602   -6826.1514   -6711.0346    423.17757    22374.408     23.81986 
    7960    1041.8881   -6827.3412    -6711.117    392.49806    22354.819    23.825843 
    7970    1021.9568   -6825.2579    -6711.257    789.34219    22335.785     23.83311 
    7980    1013.7865   -6824.5202   -6711.4308    973.89162    22317.714    23.854477 
    7990    1007.5069   -6823.9982   -6711.6093    786.16689    22300.839    23.889388 
    8000     1000.447   -6823.3809   -6711.7795    524.22509    22284.955    23.932087 
    8010    1029.9648   -6826.8502    -6711.956    253.11705    22269.732    23.984125 
    8020    1038.4611   -6828.0146   -6712.1727    127.03949    22254.848    24.045914 
    8030    1023.0537   -6826.5821    -6712.459    535.25199    22240.181      24.1082 
    8040    1012.7547   -6825.7591   -6712.7848    963.42857    22226.163    24.160832 
    8050     1001.762   -6824.8791   -6713.1311    1202.5696    22213.292    24.200514 
    8060    981.37654   -6822.9351   -6713.4611    1301.2091     22201.88    24.235325 
    8070    990.16811   -6824.2123   -6713.7575     1241.673     22192.05    24.276124 
    8080     990.6731   -6824.5343   -6714.0232    1313.3574    22183.765    24.320396 
    8090    973.71038   -6822.8741   -6714.2552    1178.2367    22177.054    24.366406 
    8100    964.47325   -6822.0129   -6714.4245    1078.5256    22171.789    24.425003 
    8110    983.61278   -6824.2433   -6714.5198    731.87096    22167.811    24.502027 
    8120    984.78701   -6824.3998   -6714.5454    655.96599    22164.758    24.597699 
    8130    1001.4089   -6826.2291   -6714.5205    866.42577     22162.53    24.701491 
    8140     1018.831   -6828.1154   -6714.4633    1495.3379    22161.419    24.796395 
    8150    1003.8278   -6826.3782   -6714.3997    2121.0989    22162.145     24.87198 
    8160    1005.6347   -6826.5029   -6714.3228    2179.6736    22165.398    24.925741 
    8170    1004.3176   -6826.2471    -6714.214    2441.7042    22171.357    24.963261 
    8180    1009.1612   -6826.6551   -6714.0816    2592.2205    22180.315    24.987027 
    8190    1007.8432   -6826.3391   -6713.9127     2436.231    22192.451    25.005026 
    8200    1017.5965   -6827.2182   -6713.7038    1849.0132    22207.536    25.033754 
    8210    1033.6018    -6828.765   -6713.4651    1500.0245    22224.974     25.07785 
    8220    1055.2199    -6830.952   -6713.2406    1201.6459    22244.318    25.142646 
    8230     1039.547   -6829.0298   -6713.0667    981.40107     22265.22    25.228718 
    8240    1010.0915   -6825.6167   -6712.9395    611.40529    22287.382    25.324484 
    8250    1007.9495   -6825.2422   -6712.8039    231.18181    22310.355    25.411653 
    8260    1000.9333   -6824.2694   -6712.6138    68.992179    22333.708    25.478884 
    8270    999.57535   -6823.8697   -6712.3655   -80.107452    22357.209    25.539928 
    8280    991.57562   -6822.6702   -6712.0584    58.434987    22380.694     25.61999 
    8290    985.76597   -6821.6418   -6711.6782    -34.10433    22404.248    25.729757 
    8300    990.43245   -6821.6938   -6711.2095   -442.72652    22427.762    25.860547 
    8310    982.82814   -6820.2792   -6710.6432   -776.10494     22450.77    25.991501 
    8320    988.56382   -6820.2597   -6709.9839   -1295.4993    22472.811    26.106218 
    8330    987.51729   -6819.3918   -6709.2327   -1515.4921    22493.279    26.206765 
    8340    972.99057   -6816.9606   -6708.4221   -1161.8898    22511.915    26.301412 
    8350    997.47969   -6818.8208   -6707.5505   -1092.0284    22529.043    26.390647 
    8360    1024.7335   -6820.9561   -6706.6455   -1156.0509    22544.765    26.467882 
    8370    1047.4757   -6822.6541   -6705.8066   -1208.3321    22559.036    26.529214 
    8380    1076.2591   -6825.1608   -6705.1025   -1851.6835    22571.686    26.585684 
    8390     1064.633   -6823.3255   -6704.5641   -2025.7383    22582.062    26.655919 
    8400    1074.0209   -6824.0187   -6704.2101   -2026.3057    22589.852    26.741976 
    8410    1077.1087   -6824.1612   -6704.0081   -1451.2791    22595.142    26.828375 
    8420    1060.9868   -6822.3106    -6703.956   -930.77972    22598.582    26.900893 
    8430    1060.7429   -6822.3483   -6704.0208   -1160.4038     22600.76    26.957706 
    8440    1055.1428   -6821.8856   -6704.1828   -1747.4466    22601.431     27.00731 
    8450    1030.3507   -6819.3688   -6704.4316   -1659.2762    22599.972    27.059952 
    8460    1000.4264   -6816.2999   -6704.7009   -1412.3019    22596.436    27.128024 
    8470    1015.3978   -6818.2247   -6704.9556   -1568.6614    22591.077    27.199918 
    8480    1041.6463   -6821.4316   -6705.2343    -1532.892    22583.772    27.260733 
    8490    1025.2445   -6819.9249   -6705.5574    -803.6087    22574.655    27.309459 
    8500    999.61204   -6817.3986   -6705.8904   -231.98227    22564.546    27.342178 
    8510    984.01801   -6815.9672   -6706.1985   -12.794427    22554.158    27.356055 
    8520    969.12677   -6814.5402   -6706.4327   -242.91148    22543.762    27.345927 
    8530    1005.4077   -6818.7706   -6706.6159   -980.70357    22533.026    27.322721 
    8540    1019.3457   -6820.4891   -6706.7796   -915.95128    22521.212    27.310065 
    8550    1033.1192   -6822.2167   -6706.9707   -729.54162    22508.308    27.321124 
    8560    1042.6733     -6823.53   -6707.2182   -447.64426    22494.547    27.352012 
    8570    1037.1788   -6823.2369    -6707.538   -51.690525    22480.292    27.385233 
[...]
   22890    1038.1178   -6828.6677   -6712.8641    272.02549    22421.936    90.175288 
   22900    1040.2451   -6828.9776   -6712.9367    398.29307    22428.228     90.15781 
   22910     1044.024   -6829.5343   -6713.0719    324.98018    22434.967    90.150633 
   22920     1049.728   -6830.3728   -6713.2741   -49.399036    22442.063    90.173152 
   22930      1027.38   -6828.1594   -6713.5537    42.136075    22449.138    90.246644 
   22940    978.94421   -6823.0442   -6713.8415    344.05642    22456.248    90.374505 
   22950    969.55591   -6822.2137   -6714.0583    32.138697    22463.685    90.502771 
   22960    961.28515   -6821.4067   -6714.1739   -318.76392    22471.104    90.570912 
   22970    954.28573   -6820.6378   -6714.1857   -28.255251    22478.138    90.570339 
   22980    990.11227   -6824.5501   -6714.1016    5.8014438    22485.024     90.54605 
   22990    1012.1104   -6826.8509   -6713.9485   -45.178652     22491.84     90.53833 
   23000    1026.6895    -6828.319   -6713.7902   -133.44521    22498.516    90.565901 
   23010     1020.642    -6827.497   -6713.6429   -64.021978    22505.001     90.63329 
   23020    1024.6823   -6827.8062   -6713.5014   -581.68423    22511.267    90.735176 
   23030    1026.4674   -6827.8618   -6713.3578   -1066.7365    22516.748    90.849757 
   23040    1029.0919   -6828.0345   -6713.2378   -1264.1299    22520.845    90.947877 
   23050     995.7112   -6824.1916   -6713.1186   -1120.4721    22523.361    91.040492 
   23060    988.56983   -6823.2398   -6712.9633   -1206.4203    22524.418    91.142272 
   23070    1001.2611   -6824.4277   -6712.7356   -1083.8362    22523.985    91.238358 
   23080    992.37714   -6823.1187   -6712.4175   -609.26438     22522.25    91.329699 
   23090    1005.4219   -6824.1481   -6711.9918   -302.58785    22519.749    91.430825 
   23100    1022.4866   -6825.4935   -6711.4336    -68.12685    22516.894    91.544238 
   23110    1036.4479   -6826.3976   -6710.7803    180.03052    22513.986    91.645264 
   23120    1062.1279   -6828.5756   -6710.0936    503.00388     22511.36    91.703735 
   23130    1063.2953    -6828.044   -6709.4318    1163.5419     22509.47    91.730889 
   23140     1063.477   -6827.4773   -6708.8449    1491.7634    22509.027    91.748721 
   23150    1080.1421   -6828.8318   -6708.3404     1544.867     22510.44    91.773684 
   23160    1087.8276   -6829.3078    -6707.959    1137.3131    22513.715    91.828863 
   23170    1084.5694   -6828.7085   -6707.7232    363.28305    22518.352     91.91144 
   23180    1074.0052   -6827.4447   -6707.6378   -454.00721    22523.383    92.006596 
   23190    1049.6294   -6824.7775   -6707.6898   -909.01447    22527.816     92.11412 
   23200    1046.1934   -6824.5456   -6707.8411   -1073.7764     22531.07    92.230431 
   23210    1041.6614   -6824.2686   -6708.0697   -729.91974     22532.99    92.330355 
   23220    1049.1001   -6825.4245   -6708.3958   -366.76537    22533.991    92.365132 
   23230    1027.5665   -6823.4327   -6708.8061   -340.11579    22534.499    92.329122 
   23240    1031.9103   -6824.4169   -6709.3057   -789.37719    22534.517    92.243988 
   23250    1035.1326     -6825.34   -6709.8694    -1147.719    22533.589    92.157456 
   23260    1046.8459   -6827.3185   -6710.5413   -1447.4789     22531.25    92.103556 
   23270    1016.9357   -6824.7243   -6711.2836   -1599.7212     22527.17    92.082432 
   23280    993.21578   -6822.8236   -6712.0289   -1726.2662    22521.171    92.067481 
   23290    1002.8278   -6824.5942   -6712.7272   -2068.9455    22513.087     92.02443 
   23300    1015.3222   -6826.6682   -6713.4075   -2018.3934    22502.613    91.955684 
   23310    1010.5986   -6826.7916   -6714.0578   -1385.0651    22489.874    91.878392 
   23320     1026.272   -6829.1721   -6714.6899   -722.75263    22475.635     91.78034 
   23330    1032.0829   -6830.4411   -6715.3107    31.169545    22460.785    91.643755 
   23340    1033.2202   -6831.1971   -6715.9398    515.08818    22446.188    91.478229 
   23350    1013.0415    -6829.555   -6716.5487    935.84479    22432.483    91.342078 
   23360    1006.1698   -6829.3532   -6717.1135    951.83405    22420.127    91.288134 
   23370    999.92401   -6829.1433   -6717.6003    1041.5914    22409.181    91.308858 
   23380    1018.4636   -6831.6461   -6718.0349    1112.5773    22399.713    91.357138 
   23390     1003.658   -6830.3928   -6718.4332    1049.3414    22391.755    91.412049 
   23400    951.52725   -6824.8918   -6718.7476    1004.7523     22385.23    91.479126 
   23410    951.89918   -6825.1101   -6718.9243    778.30814    22380.029    91.548011 
   23420    972.98382   -6827.5049   -6718.9671     960.0463    22375.915    91.585795 
   23430    977.65268   -6827.9788   -6718.9202    1517.9824    22373.084    91.595453 
   23440    978.42124   -6827.9565   -6718.8122    1670.0449    22372.107    91.641067 
   23450    963.44349   -6826.1046    -6718.631    1598.9915    22373.188    91.769583 
   23460    982.76064   -6827.9983   -6718.3699    1046.0765    22376.173    91.947454 
   23470    991.78524   -6828.6849   -6718.0498    631.47105    22380.424    92.118795 
   23480    983.60653   -6827.4169   -6717.6941    587.34392    22385.443    92.230314 
   23490    1011.2814   -6830.1202   -6717.3102    499.03182    22391.102    92.284719 
   23500    1016.1163   -6830.2765   -6716.9272    680.54339    22397.345    92.322364 
   23510    1017.0666   -6830.0291   -6716.5738    258.68649    22404.272    92.354796 
   23520    1020.4916   -6830.0939   -6716.2565    -98.12723    22411.444    92.394234 
   23530    1003.6559   -6827.9213    -6715.962    9.3853374     22418.47    92.446687 
   23540    1009.6994   -6828.3078   -6715.6743   -154.97492    22425.382    92.510491 
   23550    1012.2081    -6828.308   -6715.3946   -334.70544    22432.008    92.573126 
   23560    1004.1019   -6827.1379   -6715.1288   -379.38283    22438.165    92.641326 
   23570    996.76922   -6826.0467   -6714.8556   -655.54587    22443.739    92.730813 
   23580    1013.2386   -6827.5999   -6714.5716   -706.74641    22448.461    92.809745 
   23590    1028.7628   -6829.0547   -6714.2947   -395.52293    22452.284    92.825639 
   23600    1037.9942   -6829.8602   -6714.0704    -49.04481    22455.582    92.778297 
   23610    1033.5277   -6829.2069   -6713.9153    49.406102    22458.741    92.712277 
   23620    1010.3686   -6826.5205   -6713.8124    567.78334    22462.004    92.677062 
   23630    1004.3354   -6825.7627   -6713.7276    531.36809    22465.863    92.689812 
   23640    1004.7792   -6825.7012   -6713.6165    570.94423    22470.365    92.740292 
   23650    1037.3382   -6829.2329   -6713.5162    417.04081    22475.491    92.807248 
   23660    1013.9905   -6826.5553   -6713.4431    798.47371    22481.172    92.876761 
   23670    1005.1761   -6825.5181   -6713.3892    857.98431    22487.743     92.92352 
   23680    1045.2245   -6829.9413   -6713.3449    863.36916    22495.315    92.934682 
   23690    1059.0507   -6831.5067    -6713.368    692.31073    22503.869    92.935773 
   23700    1060.4293   -6831.7907   -6713.4982    88.925912    22513.158    92.951078 
   23710    1029.8328   -6828.5786   -6713.6992   -230.08055    22522.511    92.995418 
   23720     1008.359   -6826.4045   -6713.9205   -496.05909    22531.498    93.073391 
   23730    997.60075   -6825.3869   -6714.1031   -629.45437    22539.815    93.171793 
   23740    1024.7415   -6828.5703   -6714.2588   -996.35019    22547.224    93.276331 
   23750    1024.4258    -6828.691   -6714.4148    -688.2486    22553.412    93.385807 
   23760    1017.0751   -6828.0403    -6714.584   -318.43549    22558.682     93.49385 
   23770    1014.4006   -6827.9026   -6714.7447   -91.003279    22563.495    93.594957 
   23780    995.53855   -6825.9288    -6714.875    90.367676    22568.147    93.684291 
   23790    1004.2234    -6826.978   -6714.9554    107.86941    22572.866    93.765182 
   23800    1028.7484   -6829.7697   -6715.0113    -96.90003    22577.653    93.850503 
   23810    1033.3127    -6830.348   -6715.0805   -708.77946    22582.237    93.941539 
   23820      1050.69   -6832.3932   -6715.1872   -1291.7564    22585.903    94.023756 
   23830    1057.1369   -6833.2764   -6715.3511   -1043.5455     22588.03    94.078032 
   23840    1041.6242    -6831.762   -6715.5672   -825.93781    22588.823    94.101871 
   23850    1035.7409     -6831.34   -6715.8016   -951.18129    22588.544    94.082147 
   23860    1043.5206   -6832.4614   -6716.0551    -1200.859    22587.077    94.017272 
   23870    1023.0291   -6830.4403   -6716.3199   -1240.0201    22584.133    93.944093 
   23880    1003.3307   -6828.4962   -6716.5731   -869.46707    22579.675    93.895575 
   23890    978.87048   -6825.9534   -6716.7589   -289.46052    22574.189    93.882144 
   23900    1007.6561   -6829.2861   -6716.8806   -672.27004    22568.248    93.876821 
   23910    1015.6967   -6830.2743   -6716.9718   -686.50697    22561.563     93.85969 
   23920    1001.7043   -6828.7979   -6717.0563   -118.04489    22554.139    93.839493 
   23930    1014.1693    -6830.257   -6717.1249    150.82057    22546.569    93.817987 
   23940    1009.1817   -6829.7572   -6717.1815     417.8787    22539.245    93.833024 
   23950    991.40074   -6827.8235   -6717.2312    10.713589    22532.409    93.919909 
   23960    972.52894   -6825.7205   -6717.2334   -488.48575     22525.64    94.053179 
   23970     966.8037   -6825.0058   -6717.1574   -936.67012    22518.305    94.189486 
   23980    965.71039   -6824.7132   -6716.9867   -1054.1482    22509.883    94.294419 
   23990    971.35261   -6825.0637   -6716.7078   -745.66357    22500.229    94.329841 
   24000    1000.6971   -6827.9746   -6716.3453   -400.38398    22489.675    94.309626 
   24010    992.71011   -6826.6547   -6715.9164     50.75139    22478.701    94.264264 
   24020    1013.0446   -6828.4572   -6715.4506   -148.58175    22467.773    94.218726 
   24030    1031.2809   -6830.0009     -6714.96   -404.08381     22456.71    94.199292 
   24040    1019.6913   -6828.2403   -6714.4922   -430.88222    22445.192    94.200227 
   24050    1006.9708   -6826.3712   -6714.0421     115.9498    22433.246    94.203805 
   24060    986.75312   -6823.6404   -6713.5666     950.6904    22421.518     94.19832 
   24070    993.80734   -6823.9021   -6713.0414    1137.6594    22410.938    94.187908 
   24080    989.82245   -6822.8741   -6712.4579      962.158    22401.779     94.18242 
   24090     997.4213    -6823.093   -6711.8292    435.78001    22393.808    94.175401 
   24100    1038.3888   -6826.9984   -6711.1646    -440.8504    22386.366    94.186682 
   24110    1044.8645   -6827.1006   -6710.5444    -751.4336    22378.459    94.234757 
   24120    1006.7019   -6822.3106   -6710.0115   -173.54507     22369.74    94.296438 
   24130    1009.3268   -6822.1008   -6709.5089    314.60004    22360.818    94.343964 
   24140    1038.5044    -6824.866   -6709.0193    439.99158    22352.273    94.378106 
   24150    1036.9995   -6824.2653   -6708.5865    780.56201    22344.323    94.413166 
   24160    1021.1494   -6822.1407     -6708.23    1128.7434     22337.37     94.44959 
   24170    1029.4329   -6822.7578    -6707.923    751.13237    22331.728     94.46338 
   24180    1033.4444    -6822.953   -6707.6707    642.67023    22327.061    94.450793 
   24190    1023.4454   -6821.6343   -6707.4675    942.30049    22323.247    94.420061 
   24200    1026.8273   -6821.8503   -6707.3062    960.51376    22320.562    94.381099 
   24210    1030.3777   -6822.1191   -6707.1789    605.07056    22319.033    94.345489 
   24220     1048.745   -6824.0979   -6707.1088    73.634984    22318.239    94.314712 
   24230    1036.2338   -6822.6937   -6707.1003   -91.022039    22317.601    94.288284 
   24240    1051.2176   -6824.4413   -6707.1763   -645.26325    22316.796    94.241471 
   24250    1029.9552   -6822.2088   -6707.3158   -1026.6448     22315.22    94.169576 
   24260    1018.7846   -6821.1468   -6707.4999   -878.65053    22312.433    94.100578 
   24270    1017.4782   -6821.1856   -6707.6844   -190.27893    22308.632    94.038262 
   24280    1034.8988   -6823.3316   -6707.8871    51.998648    22304.538    93.989074 
   24290     1031.125   -6823.1537   -6708.1302    319.48201    22300.522    93.977331 
   24300    1017.8402   -6821.9449   -6708.4033    751.74283    22296.928    94.009643 
   24310    1023.9623   -6822.9215    -6708.697    854.82157    22294.212    94.051566 
   24320    1020.6538   -6822.8564    -6709.001    1430.8773     22292.63     94.04784 
   24330     1032.698     -6824.54    -6709.341    1555.3249    22292.749    93.989765 
   24340    1026.5544   -6824.2325   -6709.7188    1398.8634    22294.758    93.945048 
   24350    1033.4079   -6825.4034   -6710.1252     998.5366     22298.49    93.966399 
   24360    1051.8393   -6827.9381   -6710.6038    604.57978    22303.459    94.037344 
   24370     1013.993   -6824.2541   -6711.1417    1373.9916     22309.34    94.107655 
   24380    1024.4859   -6825.9899   -6711.7069    1653.3223    22316.878    94.150958 
   24390     1039.673   -6828.2957   -6712.3186    1613.1311    22326.468    94.173578 
   24400    1009.5201   -6825.5809   -6712.9675    1824.9249    22338.129    94.187278 
   24410    1002.0478   -6825.3831   -6713.6031    1832.5064    22352.095     94.19371 
   24420    1005.6226   -6826.3815   -6714.2027    1597.9965    22368.376    94.222184 
   24430    987.26125   -6824.8616   -6714.7311    1268.8387    22386.711     94.30582 
   24440     986.3725   -6825.1904    -6715.159    669.55376    22406.689    94.446353 
   24450    995.26786   -6826.4959   -6715.4723    32.448547    22427.585    94.605591 
   24460    1009.2907   -6828.2774   -6715.6895   -580.46796    22448.602    94.763512 
   24470    1012.6077    -6828.793   -6715.8351    -1176.606    22468.961    94.921851 
   24480    999.65101   -6827.4327   -6715.9202   -1444.9312     22487.95    95.076099 
   24490    996.17591   -6827.0798   -6715.9549   -1574.2282    22505.181     95.20714 
   24500    981.34632   -6825.4117   -6715.9411   -1606.2827    22520.464    95.305967 
   24510    968.54282   -6823.9204    -6715.878   -1615.5588    22533.743    95.362215 
   24520    975.31149    -6824.559   -6715.7616   -1936.9953    22544.964    95.381576 
   24530    982.87965   -6825.2338   -6715.5921    -2406.613    22553.739    95.397726 
   24540    987.88999   -6825.5729   -6715.3722   -2696.7883    22559.485    95.448021 
   24550    1014.4583   -6828.2813   -6715.1169   -2561.7561    22561.887    95.544232 
   24560    1034.3661   -6830.2637   -6714.8786   -2324.0068    22561.064    95.662374 
   24570    1011.6384   -6827.5387   -6714.6889   -1997.6918    22557.322    95.775014 
   24580    985.19126   -6824.4199   -6714.5204   -2091.2035    22551.019    95.892086 
   24590    975.89776   -6823.1759   -6714.3131    -2282.679    22542.097    96.005884 
   24600    964.98193   -6821.6722    -6714.027   -1928.1823      22530.4    96.105737 
   24610    981.76051   -6823.1618    -6713.645   -1440.5669    22516.345    96.204911 
   24620    1018.4451   -6826.8009   -6713.1918   -988.08121    22500.539    96.302125 
   24630     1019.885   -6826.4968   -6712.7271   -376.32418    22483.584    96.352006 
   24640    1045.7145   -6828.9348   -6712.2838   -68.268808    22466.196     96.32912 
   24650    1064.3755   -6830.6316   -6711.8989    381.06831    22448.838    96.254467 
   24660    1034.3954   -6826.9957   -6711.6073    840.48611     22432.06    96.161415 
   24670     1013.919   -6824.4753   -6711.3711    1088.2079    22416.384    96.067963 
   24680    1000.7194   -6822.7662   -6711.1344    1712.6321    22402.202    95.992081 
   24690    987.66723   -6821.0479   -6710.8722    1741.1146     22390.15    95.966429 
   24700    998.16623   -6821.9101   -6710.5631    1173.7787     22380.29    95.995047 
   24710    1031.0538   -6825.2453   -6710.2297    274.23592      22371.9    96.036511 
   24720    1020.0336   -6823.6981   -6709.9118    -213.7466     22363.95    96.063681 
   24730    1014.0859   -6822.7408    -6709.618   -489.36455      22355.8    96.075635 
   24740    1011.5477   -6822.1505   -6709.3108   -287.62213     22347.17     96.10023 
   24750    1027.6809   -6823.6395   -6709.0001   -253.71972    22338.198    96.154629 
   24760    1016.2592   -6822.0536   -6708.6883    699.64078     22329.11    96.208571 
   24770    1010.1948   -6821.0686   -6708.3798    1613.5415     22320.95    96.231126 
   24780    1012.0374   -6820.9497   -6708.0554    2043.1644    22314.796    96.220577 
   24790    1031.8135   -6822.8349   -6707.7345    1592.2152    22311.096    96.182417 
   24800     1041.869   -6823.6595   -6707.4375    1034.2038    22309.391    96.144789 
   24810    1031.4999   -6822.2537   -6707.1884    442.92523    22308.955    96.139438 
   24820    1025.7203   -6821.3964   -6706.9757   -85.711576    22309.074    96.150455 
   24830    1032.5134   -6821.9671   -6706.7887   -325.79713    22309.129    96.146646 
   24840    1023.2856   -6820.7692   -6706.6202    -199.7769    22308.847    96.129105 
   24850    1038.7784   -6822.3628   -6706.4855    -619.8648    22308.254    96.114407 
   24860    1015.2448   -6819.6213   -6706.3693   -480.83152    22306.989    96.122506 
   24870    1018.4244   -6819.8782   -6706.2714   -391.12705    22305.117    96.142833 
   24880    1039.5377   -6822.1395   -6706.1775    -522.8615    22302.753    96.153555 
   24890    1030.9935   -6821.1357   -6706.1268   -168.13833    22299.816    96.149977 
   24900    1017.7648   -6819.6608   -6706.1277    765.79727    22296.758    96.126648 
   24910    1017.0925   -6819.5947   -6706.1365     1125.177      22294.6    96.113469 
   24920     1044.981   -6822.7313   -6706.1621    982.54611     22293.78    96.120503 
   24930    1055.5895   -6824.0251   -6706.2725    1188.2623     22294.22    96.120821 
   24940    1016.8671    -6819.909   -6706.4759    1294.6768    22296.126    96.121042 
   24950     1008.589   -6819.2457   -6706.7361    333.67627    22299.469    96.132271 
   24960    1035.7367   -6822.5852   -6707.0472    -706.4358    22303.194    96.162007 
   24970    1011.2393   -6820.2295   -6707.4242   -247.62078    22306.234    96.227541 
   24980    994.87956   -6818.8315   -6707.8511    377.12451    22308.977      96.3376 
   24990    1013.2208   -6821.3355   -6708.3092    558.52951    22312.134    96.481992 
   25000     1029.313    -6823.652   -6708.8306    579.99902     22315.95    96.621709 
Loop time of 14271.1 on 16 procs for 20000 steps with 864 atoms

Performance: 0.121 ns/day, 198.209 hours/ns, 1.401 timesteps/s
97.9% CPU use with 16 MPI tasks x 1 OpenMP threads

MPI task timing breakdown:
Section |  min time  |  avg time  |  max time  |%varavg| %total
---------------------------------------------------------------
Pair    | 10615      | 12607      | 13892      | 913.0 | 88.34
Bond    | 0.0019162  | 0.0051354  | 0.018284   |   5.3 |  0.00
Neigh   | 0.21674    | 0.27192    | 0.32038    |   7.4 |  0.00
Comm    | 265.03     | 1410.3     | 3526.6     |2639.5 |  9.88
Output  | 3.887      | 3.9197     | 4.3991     |   6.3 |  0.03
Modify  | 52.382     | 249.11     | 515.64     |1000.3 |  1.75
Other   |            | 0.1095     |            |       |  0.00

Nlocal:        54.0000 ave          65 max          42 min
Histogram: 1 1 0 3 4 2 1 0 2 2
Nghost:        468.625 ave         517 max         428 min
Histogram: 2 2 3 0 1 2 1 3 1 1
Neighs:         0.00000 ave           0 max           0 min
Histogram: 16 0 0 0 0 0 0 0 0 0
FullNghs:      2088.75 ave        2887 max        1417 min
Histogram: 1 2 2 3 2 2 0 1 2 1

Total # of neighbors = 33420
Ave neighs/atom = 38.680556
Ave special neighs/atom = 0.0000000
Neighbor list builds = 2000
Dangerous builds = 2000
Total wall time: 4:59:15
