LAMMPS (29 Sep 2021 - Update 3)
OMP_NUM_THREADS environment is not set. Defaulting to 1 thread. (src/comm.cpp:98)
  using 1 OpenMP thread(s) per MPI task
Reading data file ...
  orthogonal box = (0.0000000 0.0000000 0.0000000) to (19.147970 18.143486 83.460053)
  2 by 1 by 8 MPI processor grid
  reading atoms ...
  864 atoms
Finding 1-2 1-3 1-4 neighbors ...
  special bond factors lj:    0        0        0       
  special bond factors coul:  0        0        0       
     0 = max # of 1-2 neighbors
     0 = max # of 1-3 neighbors
     0 = max # of 1-4 neighbors
     1 = max # of special neighbors
  special bonds CPU = 0.002 seconds
  read_data CPU = 0.029 seconds
Neighbor list info ...
  update every 1 steps, delay 10 steps, check yes
  max neighbors/atom: 2000, page size: 100000
  master list distance cutoff = 6.22
  ghost atom cutoff = 6.22
  binsize = 3.11, bins = 7 6 27
  1 neighbor lists, perpetual/occasional/extra = 1 0 0
  (1) pair quip, perpetual
      attributes: full, newton on
      pair build: full/bin
      stencil: full/bin/3d
      bin: standard
Setting up Verlet run ...
  Unit style    : metal
  Current step  : 0
  Time step     : 0.001
Per MPI rank memory allocation (min/avg/max) = 8.888 | 8.895 | 8.900 Mbytes
Step Temp PotEng TotEng Press Volume c_msd[4] 
       0            0   -7700.8381   -7700.8381    -4537.927    28994.935            0 
      10    45.183944    -7705.883   -7700.8427   -4512.0438    28994.935 0.00030079645 
      20    126.64468   -7714.9757   -7700.8483   -4255.0047    28994.935 0.0038182906 
      30    177.09989   -7720.6021   -7700.8463   -3781.1412    28994.935  0.013459324 
      40    209.87694   -7724.2579   -7700.8458    -3431.074    28994.935  0.027221013 
      50    241.22837   -7727.7551   -7700.8457   -3411.1653    28994.935  0.041726522 
      60    268.67173    -7730.818   -7700.8473   -3593.0662    28994.935  0.056043827 
      70     275.0391   -7731.5278   -7700.8468   -3607.6817    28994.935  0.071357203 
      80    265.25817   -7730.4352   -7700.8452   -3405.9066    28994.935  0.088279141 
      90    259.20615   -7729.7596   -7700.8448   -3201.4486    28994.935   0.10567802 
     100    263.43248   -7730.2328   -7700.8465   -3100.4009    28994.935    0.1224315 
     110    261.11727   -7729.9736   -7700.8456   -3033.5725    28994.935   0.13961289 
     120    259.78415   -7729.8251   -7700.8458   -3194.7166    28994.935   0.15773106 
     130    260.98349   -7729.9594   -7700.8463   -3347.3712    28994.935   0.17623602 
     140     255.9553   -7729.3982    -7700.846   -3347.8197    28994.935    0.1944487 
     150    249.49756   -7728.6766   -7700.8447   -3322.3017    28994.935   0.21137034 
     160     254.2947   -7729.2133   -7700.8464   -3341.2107    28994.935   0.22648355 
     170    255.39364   -7729.3354   -7700.8459   -3341.1695    28994.935   0.24056013 
     180    255.33687   -7729.3285   -7700.8453   -3331.4823    28994.935   0.25386781 
     190    260.76117   -7729.9344   -7700.8461   -3386.2272    28994.935   0.26621627 
     200    264.43741   -7730.3443   -7700.8459   -3501.0887    28994.935    0.2779645 
     210    266.13355   -7730.5336    -7700.846   -3595.0956    28994.935   0.28977516 
     220     266.1185   -7730.5314   -7700.8455   -3526.2817    28994.935   0.30213735 
     230    270.18321   -7730.9847   -7700.8454   -3347.9295    28994.935   0.31516558 
     240    278.15139   -7731.8749   -7700.8467   -3118.2308    28994.935   0.32946162 
     250    277.04449   -7731.7511   -7700.8464   -2922.7818    28994.935   0.34515362 
     260    270.54869   -7731.0256   -7700.8455   -2860.0876    28994.935   0.36076902 
     270    270.26056   -7730.9936   -7700.8456   -2886.6638    28994.935    0.3744656 
     280    273.36059   -7731.3402   -7700.8465   -2958.6022    28994.935   0.38584739 
     290    272.08277    -7731.197   -7700.8457   -3010.2651    28994.935   0.39576783 
     300    272.47723   -7731.2413   -7700.8461   -3100.0508    28994.935    0.4054068 
     310    271.93405   -7731.1808   -7700.8461   -3197.7717    28994.935   0.41587444 
     320     269.8009   -7730.9425   -7700.8458   -3135.1867    28994.935   0.42741727 
     330    269.08948   -7730.8635   -7700.8462   -2993.1826    28994.935   0.43980783 
     340    268.16652   -7730.7603   -7700.8459   -2893.4834    28994.935   0.45291747 
     350    270.00833   -7730.9658   -7700.8459    -2886.157    28994.935   0.46637788 
     360    272.40416   -7731.2339   -7700.8468   -2898.1671    28994.935   0.47993924 
     370    268.70619   -7730.8204   -7700.8458   -2820.4785    28994.935   0.49341184 
     380    268.96819   -7730.8497   -7700.8459   -2726.7365    28994.935    0.5062241 
     390    274.33864   -7731.4496   -7700.8467   -2645.6399    28994.935   0.51814514 
     400    276.36872   -7731.6757   -7700.8464   -2560.3847    28994.935   0.52930511 
     410    276.65126   -7731.7069    -7700.846   -2480.5382    28994.935   0.53982283 
     420    279.28097   -7732.0012   -7700.8469   -2431.2553    28994.935   0.55016179 
     430    276.82132   -7731.7259   -7700.8461    -2350.253    28994.935    0.5605612 
     440    277.03673   -7731.7497   -7700.8458   -2209.9282    28994.935   0.57093397 
     450    283.29469   -7732.4489    -7700.847   -2142.7855    28994.935   0.58158636 
     460    283.18302   -7732.4358   -7700.8463   -2100.6621    28994.935   0.59293578 
     470    283.23944   -7732.4417   -7700.8459   -2099.1213    28994.935   0.60470775 
     480    287.80996   -7732.9521   -7700.8464   -2253.1287    28994.935    0.6158485 
     490    288.81392   -7733.0639   -7700.8462   -2363.7422    28994.935   0.62479236 
     500    286.12762   -7732.7647   -7700.8468   -2407.5126    28994.935   0.63109946 
     510    276.45664   -7731.6849   -7700.8457   -2333.6198    28994.935   0.63597531 
     520    272.85667   -7731.2829   -7700.8454   -2206.2639    28994.935   0.64031219 
     530    279.50156   -7732.0253   -7700.8465   -2083.3564    28994.935   0.64463616 
     540    284.37697   -7732.5687    -7700.846   -1943.8509    28994.935   0.65001402 
     550    291.30626   -7733.3418   -7700.8462   -1829.3471    28994.935   0.65693039 
     560    297.78102   -7734.0651   -7700.8471   -1833.9621    28994.935   0.66549221 
     570    293.16658   -7733.5496   -7700.8465   -1837.0313    28994.935    0.6760564 
     580    285.58978   -7732.7039   -7700.8459   -1826.5131    28994.935   0.68850487 
     590    282.56573   -7732.3668   -7700.8462   -1911.9655    28994.935    0.7021441 
     600     283.4768   -7732.4683   -7700.8461   -2073.7839    28994.935    0.7157642 
     610    287.24651   -7732.8898    -7700.847   -2293.6112    28994.935   0.72816073 
     620    284.76091   -7732.6116   -7700.8461   -2326.3579    28994.935   0.73882186 
     630    285.14211   -7732.6539   -7700.8459   -2334.4346    28994.935   0.74737438 
     640    290.36779   -7733.2378   -7700.8468   -2353.3887    28994.935    0.7538232 
     650    290.71623   -7733.2766   -7700.8467   -2278.0119    28994.935   0.75912133 
     660    288.33491   -7733.0103   -7700.8461   -2194.3759    28994.935   0.76456941 
     670    289.38519   -7733.1286   -7700.8472   -2280.7715    28994.935   0.77063577 
     680    284.08824   -7732.5372   -7700.8467   -2463.5275    28994.935   0.77689412 
     690    275.77756   -7731.6093   -7700.8459   -2595.8822    28994.935   0.78265361 
     700    273.49144   -7731.3545   -7700.8461   -2613.0856    28994.935   0.78795972 
     710       273.31   -7731.3347   -7700.8466   -2521.5258    28994.935   0.79394117 
     720    269.49383   -7730.9092   -7700.8467    -2471.479    28994.935   0.80161731 
     730    262.18364   -7730.0925   -7700.8455   -2432.3962    28994.935   0.81035929 
     740    268.03582   -7730.7459   -7700.8461   -2455.7574    28994.935   0.81713067 
     750      280.622   -7732.1512   -7700.8473   -2533.4825    28994.935   0.82146207 
     760    283.23536   -7732.4419   -7700.8466   -2512.7271    28994.935   0.82470762 
     770    282.03319   -7732.3076   -7700.8464   -2550.3227    28994.935   0.82669995 
     780    279.77355   -7732.0557   -7700.8465   -2597.5325    28994.935   0.82699219 
     790    278.93712    -7731.962   -7700.8461   -2631.8344    28994.935   0.82552909 
     800    281.08894   -7732.2026   -7700.8467   -2684.1916    28994.935   0.82315699 
     810    280.13687   -7732.0959   -7700.8463   -2681.9226    28994.935   0.82177255 
     820     281.3104   -7732.2267   -7700.8461   -2639.4626    28994.935   0.82239938 
     830    285.21728   -7732.6634    -7700.847   -2628.9625    28994.935   0.82520652 
     840    283.73704   -7732.4982   -7700.8469   -2551.7329    28994.935   0.82976691 
     850    277.96973   -7731.8542   -7700.8462   -2441.8061    28994.935   0.83512428 
     860    278.46628   -7731.9092   -7700.8458    -2451.403    28994.935   0.84001546 
     870     286.3188   -7732.7868   -7700.8475   -2562.6227    28994.935   0.84379749 
     880    284.94265   -7732.6322   -7700.8465   -2543.1687    28994.935   0.84689222 
     890    282.26548   -7732.3331    -7700.846   -2457.3709    28994.935   0.84934875 
     900    285.50422   -7732.6948   -7700.8464   -2420.2274    28994.935   0.85157652 
     910    289.66708   -7733.1596   -7700.8468   -2414.4195    28994.935   0.85497176 
     920    289.15743   -7733.1025   -7700.8466   -2444.5638    28994.935   0.85995223 
     930    286.27915    -7732.781   -7700.8462   -2572.7025    28994.935   0.86509978 
     940    285.95089   -7732.7444   -7700.8462   -2776.6718    28994.935   0.86904324 
     950    288.49376   -7733.0284   -7700.8465   -2889.1908    28994.935   0.87143422 
     960    289.92569   -7733.1882   -7700.8466   -2832.2639    28994.935   0.87230061 
     970     289.5038   -7733.1411   -7700.8465   -2634.1457    28994.935   0.87176043 
     980    287.47267   -7732.9147   -7700.8467   -2412.0947    28994.935   0.87065618 
     990    285.00128   -7732.6385   -7700.8462   -2204.4549    28994.935   0.87041092 
    1000     286.6964   -7732.8282   -7700.8468   -2219.8679    28994.935   0.87192888 
    1010    285.76351   -7732.7245   -7700.8471   -2431.4357    28994.935   0.87520227 
    1020    279.23305   -7731.9951   -7700.8462   -2663.3857    28994.935   0.87962384 
    1030    276.12451   -7731.6483   -7700.8462   -2859.1863    28994.935   0.88430034 
    1040    278.85999   -7731.9537   -7700.8465    -2881.783    28994.935   0.88821373 
    1050    283.63264   -7732.4862   -7700.8465   -2806.0208    28994.935   0.89127233 
    1060    287.45819   -7732.9134    -7700.847   -2784.5081    28994.935   0.89438156 
    1070    287.50721   -7732.9183   -7700.8464    -2666.725    28994.935   0.89833559 
    1080     288.3388   -7733.0115   -7700.8468   -2554.5321    28994.935   0.90295372 
    1090    287.72687   -7732.9434   -7700.8471    -2449.256    28994.935   0.90791379 
    1100    282.26879   -7732.3342   -7700.8467   -2349.9216    28994.935   0.91319332 
    1110    278.17476   -7731.8766   -7700.8457   -2362.6978    28994.935   0.91830915 
    1120    285.00574   -7732.6397   -7700.8469   -2476.5807    28994.935   0.92287415 
    1130    291.73084   -7733.3901   -7700.8471   -2509.8798    28994.935   0.92706174 
    1140    292.56331   -7733.4827   -7700.8468   -2461.8775    28994.935   0.93059884 
    1150    291.16272   -7733.3259   -7700.8462   -2379.8012    28994.935   0.93290929 
    1160    294.20611   -7733.6658   -7700.8466   -2430.1845    28994.935   0.93429138 
    1170    296.65171   -7733.9391   -7700.8472     -2519.69    28994.935   0.93626719 
    1180    293.48989   -7733.5857   -7700.8465   -2544.9247    28994.935     0.939758 
    1190    292.32791   -7733.4561   -7700.8465   -2544.6809    28994.935   0.94403649 
    1200    292.54359   -7733.4805   -7700.8469    -2530.558    28994.935   0.94834108 
    1210    290.86487   -7733.2928   -7700.8464   -2465.9334    28994.935   0.95245077 
    1220    291.85186   -7733.4031   -7700.8466   -2358.3836    28994.935   0.95556404 
    1230    293.44413    -7733.581   -7700.8469   -2284.1551    28994.935    0.9573295 
    1240    292.76049   -7733.5044   -7700.8465   -2170.6219    28994.935   0.95845355 
    1250    293.13798   -7733.5467   -7700.8467   -2103.9544    28994.935   0.95986863 
    1260    292.96803    -7733.528    -7700.847   -2167.4504    28994.935   0.96196013 
    1270    289.24985   -7733.1127   -7700.8464   -2276.5202    28994.935   0.96415629 
    1280    285.75102   -7732.7224   -7700.8464   -2286.5297    28994.935   0.96566897 
    1290      284.651   -7732.5992    -7700.846   -2272.9878    28994.935   0.96658717 
    1300    288.60829   -7733.0414   -7700.8467   -2265.8955    28994.935   0.96788144 
    1310    290.24478    -7733.224   -7700.8467   -2190.3822    28994.935    0.9706072 
    1320    288.58259   -7733.0384   -7700.8466   -2131.8835    28994.935   0.97434843 
    1330    285.79594   -7732.7273   -7700.8463   -2097.4449    28994.935   0.97833796 
    1340    284.94721   -7732.6325   -7700.8462   -2025.5076    28994.935   0.98199327 
    1350    288.56733   -7733.0366   -7700.8465   -1879.3769    28994.935    0.9842258 
    1360    294.42631   -7733.6904   -7700.8467   -1741.8221    28994.935   0.98424419 
    1370    297.49937   -7734.0339   -7700.8474   -1667.3381    28994.935   0.98285555 
    1380    292.74623   -7733.5025   -7700.8462   -1608.0865    28994.935   0.98190459 
    1390    292.14101   -7733.4347   -7700.8459   -1576.6018    28994.935   0.98232817 
    1400    301.24748   -7734.4513   -7700.8467   -1571.9358    28994.935   0.98457679 
    1410    308.74525   -7735.2887   -7700.8477   -1627.6249    28994.935   0.98929211 
    1420    303.47704   -7734.6996   -7700.8463   -1559.3261    28994.935   0.99584973 
    1430    299.27771   -7734.2314   -7700.8465   -1560.2881    28994.935    1.0022596 
    1440    296.07219   -7733.8739   -7700.8466   -1645.0073    28994.935    1.0075133 
    1450    291.73802   -7733.3904   -7700.8466   -1761.2712    28994.935    1.0117171 
    1460    287.07709   -7732.8704   -7700.8466   -1858.1077    28994.935    1.0153184 
    1470    283.25203   -7732.4433   -7700.8461   -1859.1758    28994.935    1.0193785 
    1480    285.43138   -7732.6869   -7700.8466   -1822.6605    28994.935     1.024986 
    1490    289.90651   -7733.1866   -7700.8471   -1845.5531    28994.935    1.0319924 
    1500    290.00682   -7733.1976   -7700.8469   -1829.6868    28994.935    1.0392423 
    1510    288.95403   -7733.0793    -7700.846    -1792.572    28994.935    1.0455821 
    1520    295.71659   -7733.8347    -7700.847   -1855.4847    28994.935    1.0502501 
    1530    300.00567   -7734.3136   -7700.8475   -1884.0491    28994.935    1.0536411 
    1540    296.05902   -7733.8724   -7700.8466    -1822.818    28994.935    1.0568576 
    1550    294.34188   -7733.6807   -7700.8464   -1777.7282    28994.935    1.0604411 
    1560    298.19535   -7734.1112    -7700.847   -1665.6338    28994.935    1.0645653 
    1570    299.64452   -7734.2738    -7700.848   -1440.2495    28994.935    1.0694105 
    1580    292.64469   -7733.4917   -7700.8467   -1277.6152    28994.935     1.074918 
    1590    291.80684   -7733.3982   -7700.8467   -1332.1552    28994.935    1.0805049 
    1600    295.06101   -7733.7628   -7700.8483   -1440.1438    28994.935    1.0859126 
    1610    287.09163   -7732.8718   -7700.8463   -1485.4826    28994.935     1.091018 
    1620    286.48969   -7732.8047   -7700.8463   -1689.2872    28994.935    1.0951954 
    1630    293.71975   -7733.6125   -7700.8476   -1988.5087    28994.935    1.0988049 
    1640    292.89599   -7733.5202   -7700.8473   -2234.1959    28994.935    1.1028795 
    1650    285.80089    -7732.728   -7700.8465   -2370.0192    28994.935     1.107297 
    1660    283.13292   -7732.4301   -7700.8462   -2397.8467    28994.935    1.1109226 
    1670    289.15974   -7733.1032    -7700.847   -2351.0065    28994.935    1.1128534 
    1680    293.97663   -7733.6412   -7700.8477   -2320.8136    28994.935    1.1135229 
    1690    290.81385   -7733.2871   -7700.8464    -2229.079    28994.935    1.1138195 
    1700    291.76806    -7733.394   -7700.8469     -2159.57    28994.935    1.1136614 
    1710    294.02161   -7733.6456   -7700.8471   -2087.1354    28994.935    1.1134744 
    1720    294.14467   -7733.6593    -7700.847   -2007.8553    28994.935    1.1142792 
    1730    292.64536   -7733.4921   -7700.8471   -1906.6844    28994.935    1.1170331 
    1740    289.08712   -7733.0952   -7700.8471   -1708.4731    28994.935    1.1223514 
    1750    285.80556   -7732.7285   -7700.8464   -1570.4904    28994.935    1.1294849 
    1760     287.9638   -7732.9699   -7700.8471   -1527.7152    28994.935    1.1368575 
    1770    288.43964   -7733.0232   -7700.8473   -1474.3978    28994.935    1.1431943 
    1780    286.35452   -7732.7895   -7700.8462   -1374.2159    28994.935     1.147556 
    1790    290.77345   -7733.2831   -7700.8469   -1389.1814    28994.935    1.1497522 
    1800    296.05814   -7733.8725   -7700.8468   -1449.0765    28994.935    1.1507558 
    1810     301.3688   -7734.4651   -7700.8469   -1533.3472    28994.935    1.1516988 
    1820    304.48648   -7734.8131   -7700.8472   -1596.5101    28994.935    1.1539225 
    1830    302.85742    -7734.631   -7700.8468   -1598.9173    28994.935    1.1587776 
    1840    300.11343   -7734.3251    -7700.847   -1609.6044    28994.935    1.1667637 
    1850    297.67909   -7734.0531   -7700.8466   -1550.7625    28994.935    1.1770761 
    1860    299.64542    -7734.273   -7700.8471   -1446.6551    28994.935     1.187862 
    1870     300.4479   -7734.3628   -7700.8474   -1280.9239    28994.935    1.1969883 
    1880    297.75438   -7734.0614   -7700.8465   -1097.3535    28994.935    1.2026277 
    1890    300.44075   -7734.3616   -7700.8469   -1049.3061    28994.935    1.2042642 
    1900    303.94471   -7734.7532   -7700.8477   -1145.0928    28994.935    1.2033292 
    1910    299.67427   -7734.2762   -7700.8471   -1345.6827    28994.935    1.2022867 
    1920    294.22814   -7733.6682   -7700.8466   -1538.3262    28994.935    1.2030558 
    1930    294.31479   -7733.6782   -7700.8469   -1657.6619    28994.935    1.2063703 
    1940    296.08002   -7733.8751   -7700.8469   -1611.8933    28994.935    1.2121107 
    1950    298.47477   -7734.1425   -7700.8472   -1385.7061    28994.935    1.2194675 
    1960    298.47034   -7734.1418    -7700.847   -1084.0269    28994.935    1.2273777 
    1970    298.87552   -7734.1869   -7700.8469   -898.13371    28994.935    1.2348923 
    1980    299.98792   -7734.3117   -7700.8476   -807.05202    28994.935     1.241364 
    1990    297.18456   -7733.9979   -7700.8465   -843.22149    28994.935     1.246939 
    2000    299.90649   -7734.3021   -7700.8471   -1051.7337    28994.935    1.2522542 
Loop time of 1507.52 on 16 procs for 2000 steps with 864 atoms

Performance: 0.115 ns/day, 209.378 hours/ns, 1.327 timesteps/s
96.7% CPU use with 16 MPI tasks x 1 OpenMP threads

MPI task timing breakdown:
Section |  min time  |  avg time  |  max time  |%varavg| %total
---------------------------------------------------------------
Pair    | 1003.1     | 1223.6     | 1386       | 307.2 | 81.16
Bond    | 0.00018287 | 0.00052825 | 0.0010645  |   0.0 |  0.00
Neigh   | 0.018041   | 0.023079   | 0.027807   |   1.6 |  0.00
Comm    | 111.2      | 259.21     | 492.19     | 650.9 | 17.19
Output  | 5.436      | 16.161     | 30.248     | 233.9 |  1.07
Modify  | 0.010055   | 0.011439   | 0.013952   |   1.0 |  0.00
Other   |            | 8.553      |            |       |  0.57

Nlocal:        54.0000 ave          63 max          44 min
Histogram: 2 0 2 1 2 3 2 1 0 3
Nghost:        408.438 ave         459 max         374 min
Histogram: 2 2 1 1 5 3 0 0 1 1
Neighs:         0.00000 ave           0 max           0 min
Histogram: 16 0 0 0 0 0 0 0 0 0
FullNghs:      1578.38 ave        2029 max        1152 min
Histogram: 2 1 2 1 2 3 2 0 1 2

Total # of neighbors = 25254
Ave neighs/atom = 29.229167
Ave special neighs/atom = 0.0000000
Neighbor list builds = 199
Dangerous builds = 198
Setting up Verlet run ...
  Unit style    : metal
  Current step  : 2000
  Time step     : 0.001
Per MPI rank memory allocation (min/avg/max) = 8.892 | 8.897 | 8.900 Mbytes
Step Temp PotEng TotEng Press Volume c_msd[4] 
    2000        487.5   -7734.3021   -7679.9207   -280.84766    28994.935    1.2522542 
    2010    459.23538   -7731.1395   -7679.9111   -92.938647    28994.442    1.2593817 
    2020    422.62458   -7726.9903   -7679.8459   -2.8188174    28993.506    1.2673535 
    2030    406.65035   -7725.0291   -7679.6666   -46.025257    28992.515    1.2721918 
    2040    398.77887   -7723.8238   -7679.3394   -145.36062    28991.322     1.274312 
    2050    392.53492   -7722.6503   -7678.8624   -298.44686    28989.478    1.2765179 
    2060    393.14148   -7722.1221   -7678.2665   -500.33436    28986.314    1.2807154 
    2070    396.20336   -7721.8173   -7677.6202   -644.16908    28981.019     1.287518 
    2080     395.7732   -7721.1601    -7677.011    -651.4946    28972.982    1.2966298 
    2090    401.51886   -7721.2579   -7676.4679   -495.92654    28962.186    1.3071166 
    2100    406.55402   -7721.3178   -7675.9661   -292.29462     28949.25    1.3182546 
    2110    408.48061   -7721.0401   -7675.4735   -190.90645    28934.991    1.3292379 
    2120    414.39081   -7721.1873   -7674.9614   -216.32448    28919.831    1.3388881 
    2130    417.13814   -7720.9469   -7674.4145    -255.1831     28903.71    1.3466033 
    2140    414.68164   -7720.0928   -7673.8345   -255.25219     28886.49     1.352491 
    2150    415.46038   -7719.5671   -7673.2219   -270.32496    28868.121    1.3562496 
    2160    422.44964   -7719.7016   -7672.5767   -222.33446     28848.57    1.3583329 
    2170    425.97406   -7719.4292   -7671.9112   -97.724599    28828.032    1.3605169 
    2180    429.93032   -7719.2001   -7671.2407    41.755602    28807.033    1.3643407 
    2190     434.7681   -7719.0676   -7670.5686    36.124272    28786.107     1.370817 
    2200    433.45812   -7718.2561   -7669.9031   -51.090556    28765.259    1.3803288 
    2210    426.68101   -7716.8424   -7669.2455   -130.06703    28744.154    1.3915894 
    2220    426.66433   -7716.1802   -7668.5852   -266.01877    28722.417     1.402435 
    2230    431.91826   -7716.0922    -7667.911   -241.69526    28699.576    1.4120482 
    2240    442.99226   -7716.6429   -7667.2264   -238.04799    28675.644    1.4206809 
    2250    454.51232   -7717.2432   -7666.5417   -236.89775    28650.657    1.4286459 
    2260    452.94417   -7716.4005   -7665.8739   -78.267818    28624.689    1.4362638 
    2270    451.34052   -7715.5718    -7665.224     97.97151    28598.374     1.443551 
    2280    454.81878   -7715.3137   -7664.5779    122.66349    28572.389    1.4514798 
    2290    454.84365   -7714.6756   -7663.9371    4.7715741    28546.853    1.4610251 
    2300    447.79172    -7713.258   -7663.3061   -126.95133    28521.324    1.4719634 
    2310    447.84364   -7712.6302   -7662.6726   -191.58583    28495.281    1.4828844 
    2320    453.41701   -7712.6029   -7662.0236   -128.54792    28468.478     1.492954 
    2330    456.31324   -7712.2699   -7661.3675   -7.9453645    28441.153    1.5024274 
    2340    463.49102   -7712.4173   -7660.7142     88.88704    28413.812    1.5111971 
    2350    471.18412   -7712.6299   -7660.0686    179.38475    28386.859    1.5185833 
    2360    481.27742   -7713.1294   -7659.4421    340.84944    28360.695    1.5246623 
    2370    491.45718   -7713.6662   -7658.8434    573.37135    28335.989    1.5306517 
    2380     493.5731   -7713.3461   -7658.2873    858.24028    28313.698    1.5376234 
    2390    496.28847   -7713.1423   -7657.7805    1034.4251     28294.92    1.5454922 
    2400    497.18961   -7712.7853   -7657.3231    1103.6318    28280.381    1.5537433 
    2410     490.9271   -7711.6773   -7656.9136    1138.9528    28270.396    1.5615983 
    2420    481.31096   -7710.2288   -7656.5379    1151.8829    28265.102    1.5683108 
    2430    474.25219   -7709.0744   -7656.1709    1089.7994    28264.524    1.5722747 
    2440    474.78705   -7708.7566   -7655.7934    946.69263    28268.413    1.5730363 
    2450    479.84675   -7708.9283   -7655.4007    850.93165    28276.245    1.5731929 
    2460    482.08804   -7708.7767   -7654.9991    772.45603    28287.625    1.5754816 
    2470    495.32803   -7709.8533   -7654.5987    482.92539    28302.155    1.5811398 
    2480    503.61033   -7710.3907   -7654.2122    110.38974    28318.712    1.5908137 
    2490    494.58519   -7709.0375   -7653.8658   -3.5859339    28335.885    1.6025804 
    2500    486.34784   -7707.8051   -7653.5523    131.25691    28353.197    1.6126985 
    2510    499.11228   -7708.9319   -7653.2552    447.48043    28371.197    1.6196064 
    2520    513.45957   -7710.2623   -7652.9851    817.31537    28391.163     1.625068 
    2530    514.34927   -7710.1527   -7652.7762    1113.6337    28414.584    1.6311869 
    2540    505.08228   -7708.9779   -7652.6352    1298.3615    28442.709    1.6384553 
    2550    500.00948   -7708.3229   -7652.5461     1319.043    28476.334    1.6453306 
    2560    498.34289    -7708.081   -7652.4901    1265.9431     28515.63    1.6501706 
    2570    505.99982   -7708.9055   -7652.4604    1045.6775    28560.339    1.6534386 
    2580    511.95605   -7709.5735   -7652.4641    784.10333    28609.596     1.657232 
    2590    510.11327   -7709.4182   -7652.5143    538.90419    28662.322    1.6631048 
    2600    505.28022   -7708.9753   -7652.6105    376.72235    28717.492    1.6711408 
    2610    498.87452   -7708.3909   -7652.7407    142.18057    28774.306    1.6793694 
    2620    497.07093   -7708.3379   -7652.8888   -270.49134    28831.679    1.6852793 
    2630    489.61431   -7707.6588   -7653.0416   -619.89423    28887.868     1.688534 
    2640    479.62698   -7706.6913   -7653.1882   -805.96279    28941.368    1.6901227 
    2650    483.00221   -7707.1954   -7653.3158   -1168.0515    28991.173    1.6909214 
    2660    490.94974   -7708.1952    -7653.429    -1634.536    29035.726    1.6916701 
    2670    496.74675   -7708.9667   -7653.5539   -1980.2913    29073.078    1.6923268 
    2680    493.55043   -7708.7656   -7653.7093   -2114.7252     29101.74    1.6926657 
    2690    483.52327   -7707.8261   -7653.8883   -2115.2464    29121.114    1.6932048 
    2700    476.49785   -7707.2245   -7654.0704   -1981.1655    29131.241    1.6945451 
    2710    472.14635   -7706.9051   -7654.2364   -1797.5555    29132.712    1.6960814 
    2720    478.17286   -7707.7208   -7654.3799   -1777.9832    29126.274    1.6962037 
    2730    484.59651   -7708.5687   -7654.5112   -1618.9009    29112.188    1.6939315 
    2740    484.60976   -7708.6952   -7654.6362    -1286.112    29091.223     1.688625 
    2750    491.19579   -7709.5559   -7654.7622    -1093.271    29064.738    1.6808532 
    2760    491.36998   -7709.7081    -7654.895   -873.51666    29033.703    1.6736895 
    2770    489.96334   -7709.6922    -7655.036   -663.26539    28999.083    1.6693788 
    2780    491.86095    -7710.049   -7655.1812   -317.32358    28961.893    1.6682637 
    2790    495.26991   -7710.5766   -7655.3285    98.262748    28923.638     1.669629 
    2800    497.01094   -7710.9275   -7655.4852    366.95837    28886.037     1.673139 
    2810    495.79091   -7710.9615   -7655.6553    530.97627    28850.297    1.6787422 
    2820    501.53441   -7711.7991   -7655.8522    489.46076    28817.042    1.6850388 
    2830    499.27991   -7711.7822   -7656.0868    550.28238    28786.212    1.6904787 
    2840    483.68406   -7710.2944   -7656.3388    778.58667    28758.065    1.6941352 
    2850    480.40735   -7710.1715   -7656.5813    923.35967    28733.426    1.6959008 
    2860     489.1488   -7711.3827   -7656.8174     840.0454    28712.817    1.6975906 
    2870    487.98183   -7711.4942   -7657.0591    650.64318    28695.907    1.7005786 
    2880    477.23187   -7710.5311   -7657.2952    433.46003    28681.875    1.7045892 
    2890    475.68165   -7710.5726   -7657.5096    322.17608    28669.837    1.7080347 
    2900    475.10806   -7710.6964   -7657.6974    317.45479    28659.305    1.7107982 
    2910    470.95189   -7710.3915   -7657.8561    319.99064    28650.201    1.7141969 
    2920    468.99347   -7710.2945   -7657.9776    304.84131    28642.528    1.7184093 
    2930    474.08239   -7710.9437   -7658.0591     202.8088    28636.181    1.7225861 
    2940    485.47442   -7712.2758   -7658.1204    116.61864    28630.748    1.7273385 
    2950    479.54868   -7711.6667   -7658.1723    141.05984    28625.902    1.7345446 
    2960    473.28105   -7711.0075   -7658.2123    185.26754    28621.697    1.7436748 
    2970     469.8441   -7710.6341   -7658.2222    219.49383     28618.31    1.7526765 
    2980    472.04124   -7710.8514   -7658.1945    127.91517    28615.832    1.7606783 
    2990    471.08789   -7710.6771   -7658.1265    56.457285    28613.944    1.7682269 
    3000    468.03933    -7710.227   -7658.0165    36.156048    28612.335    1.7741861 
    3010    471.71042   -7710.4835   -7657.8635    43.343483    28610.907     1.777355 
    3020    473.65635   -7710.5076   -7657.6705     99.38044    28609.714    1.7794559 
    3030      476.054   -7710.5522   -7657.4477    67.931222    28608.914    1.7815469 
    3040     472.5802   -7709.9148   -7657.1978   -9.7168746    28608.396    1.7837005 
    3050    474.99879   -7709.9082   -7656.9214    9.8508253    28607.882    1.7862228 
    3060    486.68718   -7710.9139   -7656.6233    213.56978    28607.484    1.7900844 
    3070    487.10682   -7710.6593   -7656.3218    494.31679    28608.004    1.7962186 
    3080    481.29083   -7709.7152   -7656.0264    727.73937    28610.579    1.8031807 
    3090    483.68166   -7709.6783   -7655.7229    747.47573    28616.116    1.8082631 
    3100    492.42835   -7710.3383   -7655.4072    507.55703    28624.634    1.8109526 
    3110    503.60407   -7711.2751   -7655.0973    155.74839    28635.175    1.8134893 
    3120    511.59584    -7711.894   -7654.8247   -158.87617    28646.294    1.8185232 
    3130     505.8794   -7711.0423   -7654.6107   -428.60951    28656.638    1.8273786 
    3140     493.1589   -7709.4584   -7654.4458   -575.01018    28665.125     1.838825 
    3150    489.39823   -7708.8962    -7654.303   -676.41604    28671.111     1.850147 
    3160    490.02166   -7708.8316   -7654.1689   -678.79589    28674.208    1.8603262 
    3170    491.11977   -7708.8307   -7654.0456   -511.86149    28674.481    1.8701193 
    3180    495.21278   -7709.1776   -7653.9359   -282.75502    28672.633    1.8802148 
    3190    509.28246   -7710.6621   -7653.8509   -145.90581    28669.585    1.8905507 
    3200    517.42176    -7711.533   -7653.8139    16.615187    28665.987    1.9009401 
    3210    515.14598   -7711.3112   -7653.8459    188.06512    28662.521    1.9115015 
    3220    506.80053   -7710.4804    -7653.946    255.58899    28659.845     1.922016 
    3230    490.36417   -7708.7914   -7654.0905    308.46212    28658.272     1.930999 
    3240    480.02733   -7707.7942   -7654.2464    366.45434    28658.017    1.9362445 
    3250    483.42394   -7708.3241   -7654.3975    460.67984    28659.332    1.9381997 
    3260    486.64924   -7708.8311   -7654.5446    462.83212    28662.544    1.9412648 
    3270    491.82451   -7709.5639   -7654.7001    192.43387    28667.563    1.9483798 
    3280    491.73938    -7709.729   -7654.8747   -95.603151     28673.35    1.9590189 
    3290    482.99136   -7708.9458   -7655.0673   -149.90437    28678.766    1.9707885 
    3300    479.94936   -7708.8019   -7655.2628   -101.75378    28683.539    1.9803881 
    3310    488.56354   -7709.9594   -7655.4594   -188.74058    28687.778     1.985405 
    3320    496.46063   -7711.0537   -7655.6728   -141.80989    28691.249    1.9868162 
    3330    496.85589   -7711.3459   -7655.9209   -39.942038    28694.101    1.9879043 
    3340    491.12255   -7710.9882   -7656.2028   -134.48506    28696.682    1.9906798 
    3350    489.27422   -7711.0902   -7656.5109   -357.64038    28698.643    1.9956143 
    3360    492.45424   -7711.7781    -7656.844   -522.95745    28699.099    2.0033438 
    3370    494.90907   -7712.4137   -7657.2058   -434.97331    28697.453    2.0134684 
    3380    493.72674   -7712.6724   -7657.5965   -292.21417    28694.012     2.023539 
    3390    489.56292   -7712.6146   -7658.0031   -199.41308    28689.366    2.0314042 
    3400    482.89389   -7712.2716   -7658.4041   -91.832898    28683.935    2.0365493 
    3410    474.47744      -7711.7   -7658.7713    67.504215    28678.214    2.0388966 
    3420    469.87803   -7711.5002   -7659.0846    207.78315    28672.837    2.0378155 
    3430    465.73254   -7711.2849   -7659.3317    294.15527    28668.382    2.0339046 
    3440    466.04711   -7711.5006   -7659.5123    394.74732    28665.226    2.0289965 
    3450    465.30974   -7711.5364   -7659.6304    529.87528    28663.785    2.0246631 
    3460    466.88115   -7711.7745   -7659.6933    625.43565    28664.593    2.0211505 
    3470    474.53334   -7712.6458   -7659.7109    564.87654    28667.981    2.0181195 
    3480    487.23506   -7714.0539   -7659.7021      364.409    28673.663    2.0157129 
    3490     493.1493   -7714.7032   -7659.6916    207.60656    28680.855    2.0147976 
    3500    481.32803   -7713.3788   -7659.6859    37.757727    28688.835    2.0158071 
    3510    477.06173   -7712.8873   -7659.6703   -135.94331    28696.903    2.0173941 
    3520    479.90761   -7713.1703   -7659.6359   -283.36381    28704.314    2.0183453 
    3530    470.71723   -7712.0939   -7659.5847   -158.96221    28710.559    2.0191544 
    3540     459.5116   -7710.7654   -7659.5062    88.805867    28716.114    2.0202597 
    3550    460.74338   -7710.7812   -7659.3846    142.08878    28721.905    2.0215343 
    3560    467.02453   -7711.3154   -7659.2181    55.861796     28728.19    2.0234132 
    3570    472.86473   -7711.7687   -7659.0199   -23.446396    28734.653    2.0261648 
    3580    483.61633   -7712.7598   -7658.8116   -102.82933    28740.973    2.0294646 
    3590    486.46086   -7712.8791   -7658.6136    -207.6535    28746.786    2.0331761 
    3600    481.75504   -7712.1755    -7658.435   -169.51465    28751.742    2.0367552 
    3610    483.43196   -7712.1988   -7658.2712    -263.0507    28755.867    2.0398983 
    3620    479.50429   -7711.6063   -7658.1168   -320.03919    28758.868    2.0431259 
    3630    469.82518   -7710.3761   -7657.9664   -145.73293    28760.592    2.0464073 
    3640    468.00356   -7710.0095    -7657.803     104.4947    28761.714     2.049383 
    3650    475.43606   -7710.6565   -7657.6209    235.13428    28763.212    2.0522637 
    3660    488.36829   -7711.9128   -7657.4346    274.77683    28765.675    2.0553891 
    3670     499.8213   -7713.0259     -7657.27    190.62544    28769.244    2.0591718 
    3680    496.30021   -7712.5075   -7657.1445    68.917322    28773.581    2.0641865 
    3690    490.85972   -7711.8096   -7657.0535    -8.807832    28778.198    2.0700255 
    3700    489.02496   -7711.5335    -7656.982   -94.465413    28782.739    2.0759757 
    3710    485.16922   -7711.0463   -7656.9249     -140.432    28786.848    2.0812663 
    3720    468.39456   -7709.1168   -7656.8667    24.009334    28790.404    2.0852829 
    3730    459.62883   -7708.0498   -7656.7775    169.03352    28794.045    2.0873509 
    3740    477.37763   -7709.8942    -7656.642   -45.230024    28798.234    2.0883775 
    3750    493.72955   -7711.5581   -7656.4819   -293.40018    28802.183    2.0909526 
    3760    497.72275   -7711.8555   -7656.3338   -362.07506    28804.931    2.0963906 
    3770    504.27406   -7712.4667   -7656.2142   -404.57576    28806.118    2.1043944 
    3780    508.42638   -7712.8504   -7656.1347   -406.49404    28805.604    2.1140271 
    3790    504.67211   -7712.4018   -7656.1048    -481.8952    28803.328    2.1228691 
    3800    502.29996   -7712.1507   -7656.1184   -530.03097    28799.056    2.1281647 
    3810    500.87893   -7712.0435   -7656.1697   -472.48577    28792.617    2.1293506 
    3820    490.33378   -7710.9445   -7656.2471   -174.44331    28784.341    2.1278016 
    3830    477.58807   -7709.6034   -7656.3278    134.32508    28775.413    2.1246067 
    3840    466.97195    -7708.476   -7656.3845    270.29643    28767.077    2.1205761 
    3850    462.11002   -7707.9477   -7656.3987    237.24096    28759.909    2.1168118 
    3860     462.5601   -7707.9579   -7656.3586    216.67277    28753.838    2.1148507 
    3870    470.74763   -7708.7786    -7656.266     186.0398    28748.753    2.1154484 
    3880    480.67171   -7709.7509   -7656.1313     125.9403    28744.501    2.1183605 
    3890    483.79956   -7709.9401   -7655.9715     186.2741    28740.876    2.1227015 
    3900    476.41901   -7708.9361   -7655.7908    344.91768    28738.119     2.126288 
    3910    473.47795   -7708.3946   -7655.5775    419.44304    28736.812    2.1263594 
    3920    477.49411   -7708.5801   -7655.3149    487.87941      28737.3    2.1229192 
    3930    486.31169   -7709.2507   -7655.0019    487.34621    28739.825    2.1170466 
    3940    496.71967   -7710.0601   -7654.6503    499.46206    28744.409    2.1106452 
    3950    500.92144   -7710.1607   -7654.2821    571.63361    28751.114     2.106482 
    3960    510.35536   -7710.8458   -7653.9149    524.78996    28760.165    2.1044613 
    3970    525.58392    -7712.198   -7653.5684    286.69064    28771.316    2.1034272 
    3980    529.63683   -7712.3603   -7653.2785     92.90994    28783.635    2.1033696 
    3990    516.86985   -7710.7244   -7653.0668   -36.816489    28796.291    2.1047271 
    4000    505.72562   -7709.3281   -7652.9136   -259.16024     28808.67     2.107511 
    4010    509.50488   -7709.6305   -7652.7945    -516.7238    28819.841    2.1120102 
    4020    503.86016   -7708.9125   -7652.7061   -491.78356    28828.852    2.1182474 
    4030    490.18219    -7707.323   -7652.6424   -301.72815    28835.775    2.1240927 
    4040    484.96231   -7706.6735   -7652.5752   -225.45639    28841.316    2.1278599 
    4050     490.4348   -7707.1968    -7652.488   -192.63802    28845.862    2.1303216 
    4060    487.69883     -7706.78   -7652.3764   -78.502092    28849.594    2.1332479 
    4070     484.2398   -7706.2505   -7652.2328    46.964457    28852.978    2.1367344 
    4080    489.80183   -7706.6791    -7652.041     49.35133    28856.496    2.1402027 
    4090    490.60889   -7706.5279   -7651.7997    95.672683    28860.225    2.1439599 
    4100    496.11522   -7706.8614    -7651.519    91.233747    28864.311    2.1480889 
    4110    501.70229   -7707.1742   -7651.2085    43.149971    28868.754     2.153335 
    4120    502.04016   -7706.8954   -7650.8921   -49.373359     28873.35    2.1602055 
    4130    501.55306   -7706.5324   -7650.5834   -79.568001    28877.743    2.1678126 
    4140    499.10316   -7705.9656   -7650.2899    46.822381    28881.832    2.1748838 
    4150    498.26539   -7705.5959   -7650.0136    242.83932    28886.128    2.1801608 
    4160    504.75273   -7706.0615   -7649.7555    344.01856    28891.426    2.1822259 
    4170    519.59249   -7707.4929   -7649.5316    306.84027     28898.15    2.1806473 
    4180    521.99519   -7707.6013   -7649.3719    316.43172    28906.195     2.176256 
    4190     517.9903   -7707.0729   -7649.2903    388.21964    28915.615    2.1696509 
    4200    530.54627   -7708.4733     -7649.29    219.96596    28926.584    2.1620265 
    4210    535.96041   -7709.1798   -7649.3926   -64.199691    28938.429    2.1560899 
    4220     527.4178   -7708.4511   -7649.6168    -267.7699    28949.982    2.1528215 
    4230    513.57947   -7707.2323   -7649.9417     -334.098    28960.418    2.1509662 
    4240     506.3914   -7706.8171   -7650.3284   -453.94746    28969.383     2.148832 
    4250    506.20898   -7707.2247   -7650.7563   -627.16355    28976.341    2.1450628 
    4260    500.85292   -7707.0765   -7651.2056   -545.72785    28980.682    2.1385894 
    4270    496.38487   -7707.0244    -7651.652   -373.48783    28982.694    2.1291001 
    4280    496.44005   -7707.4576    -7652.079   -347.80778     28983.03    2.1180842 
    4290    497.47398   -7707.9771   -7652.4831   -467.60131    28981.816    2.1080676 
    4300      497.624   -7708.3737    -7652.863   -472.71115    28978.659    2.1011775 
    4310    496.95012    -7708.654   -7653.2184   -406.46736    28973.499    2.0972617 
    4320    498.93188   -7709.2099   -7653.5533   -459.32681     28966.56    2.0941407 
    4330    496.53918   -7709.2631   -7653.8734   -559.18219    28957.647    2.0891982 
    4340    485.48776   -7708.3248   -7654.1679   -526.90991    28946.413    2.0809351 
    4350    484.70528   -7708.4962   -7654.4266   -454.85233    28932.966    2.0699999 
    4360    491.88493   -7709.5293   -7654.6588   -324.03352    28917.613    2.0592332 
    4370    489.67782   -7709.5013    -7654.877   -27.327539    28900.967    2.0518055 
    4380    478.16893   -7708.4146   -7655.0741     257.0923    28884.244    2.0477997 
    4390    466.89875   -7707.3131   -7655.2298     417.4292    28868.645    2.0445388 
    4400    467.23673   -7707.4514   -7655.3304    318.34992    28854.787    2.0389769 
    4410    484.80396   -7709.4751   -7655.3945   -59.679079    28842.211     2.031196 
    4420    493.16063   -7710.4655   -7655.4527   -421.21719     28829.43    2.0242851 
    4430    488.97837   -7710.0701   -7655.5239   -587.12416    28814.955    2.0200893 
    4440    479.21473    -7709.052   -7655.5948   -527.71412    28798.098    2.0188002 
    4450    479.97219   -7709.1887    -7655.647   -471.49425    28779.008    2.0195359 
    4460    492.95419   -7710.6751   -7655.6853   -337.08571    28757.979    2.0216781 
    4470    497.17903    -7711.189   -7655.7279   -25.050013    28735.664    2.0251826 
    4480     495.7082   -7711.0839   -7655.7869     167.7016    28713.266    2.0286025 
    4490    497.53593   -7711.3659    -7655.865    85.938824    28691.542    2.0303321 
    4500    497.07301   -7711.4177   -7655.9684   -125.21848    28670.224    2.0307406 
    4510    489.15771   -7710.6626   -7656.0963   -350.83959    28648.468    2.0308255 
    4520    483.16328   -7710.1336    -7656.236   -510.07462     28625.35    2.0302594 
    4530    484.54739   -7710.4332   -7656.3812   -609.53344    28600.186    2.0283256 
    4540     481.6232   -7710.2566   -7656.5308   -529.25609    28572.638    2.0250544 
    4550    472.69909   -7709.4065   -7656.6762   -468.65879    28542.969    2.0201901 
    4560    460.24769   -7708.1383    -7656.797   -434.22904    28511.466    2.0138266 
    4570    450.96353    -7707.172   -7656.8664   -382.64232    28478.311    2.0070702 
    4580    455.26008   -7707.6494   -7656.8645   -281.67349    28443.742    2.0013714 
    4590    471.97746   -7709.4407   -7656.7909   -164.14004     28408.17    1.9979451 
    4600    485.53038   -7710.8246    -7656.663    29.745678    28372.149    1.9970321 
    4610    487.54015   -7710.8893   -7656.5035    208.28393    28336.449    1.9973303 
    4620    482.05876   -7710.0919   -7656.3175    371.22598    28301.808    1.9967759 
    4630      484.766   -7710.1703   -7656.0939    529.59501    28268.902    1.9936409 
    4640    501.46994   -7711.7718   -7655.8321    646.37397    28238.372    1.9875693 
    4650    507.92316   -7712.2159   -7655.5563    831.60174    28210.723    1.9807258 
    4660    501.45981     -7711.23   -7655.2914    1045.0328    28186.653    1.9754532 
    4670    503.49283   -7711.2031   -7655.0377    1180.2933    28166.953    1.9717897 
    4680    497.18494   -7710.2548   -7654.7931    1429.5736    28152.232    1.9683044 
    4690    484.30927   -7708.5761   -7654.5507    1613.0811    28143.386    1.9628481 
    4700    492.97246   -7709.2855   -7654.2937    1458.7503    28141.026    1.9552917 
    4710    500.10808   -7709.8064   -7654.0186    1246.7738    28144.614    1.9491769 
    4720     500.5033   -7709.5793   -7653.7474    1064.1798    28153.276    1.9469426 
    4730    500.61302   -7709.3298   -7653.4857    926.39624    28166.273    1.9475582 
    4740    505.36598   -7709.6123    -7653.238    821.86266     28183.02    1.9483186 
    4750    505.47791   -7709.3991   -7653.0123    775.62429    28203.091    1.9481923 
    4760    499.62067   -7708.5481   -7652.8147    786.59448    28226.293    1.9486474 
    4770    496.62306   -7708.0355   -7652.6364    773.54366    28252.642    1.9512603 
    4780    501.62427    -7708.425   -7652.4681    633.92459    28282.066    1.9564045 
    4790    511.90259   -7709.4194   -7652.3159    350.55387    28313.988    1.9636119 
    4800    514.94702   -7709.6433   -7652.2001    128.60293    28347.309    1.9719118 
    4810    510.96391   -7709.1342   -7652.1354   -37.348594    28381.073    1.9800473 
    4820    506.24551   -7708.5911   -7652.1186   -183.84053    28414.585    1.9869607 
    4830    504.19225   -7708.3889   -7652.1455   -325.79846    28447.213    1.9925485 
    4840    495.39572   -7707.4755   -7652.2134     -215.277     28478.47    1.9986939 
    4850    483.19658   -7706.2144   -7652.3131    66.579918    28508.764    2.0076613 
    4860    479.21257   -7705.8798   -7652.4229    269.17934    28539.172    2.0195655 
    4870    489.67794   -7707.1632   -7652.5389    259.41044    28570.497    2.0323101 
    4880    493.27571   -7707.6992   -7652.6735    201.66783    28602.761    2.0439698 
    4890    490.77181   -7707.5864   -7652.8401     120.8286    28635.726    2.0531199 
    4900    491.72956   -7707.8915   -7653.0383   -39.265484     28669.03    2.0600594 
    4910    496.10889   -7708.6173   -7653.2756   -364.48765     28701.93    2.0671794 
    4920    492.33623   -7708.4799    -7653.559   -619.49737    28733.156    2.0767209 
    4930    482.48781   -7707.7027   -7653.8805    -733.5932    28761.652    2.0886634 
    4940    482.93897   -7708.0954   -7654.2228   -869.51509    28786.874    2.1014653 
    4950    490.02188   -7709.2482   -7654.5855   -1099.5221    28808.216    2.1139173 
    4960    489.31492   -7709.5542   -7654.9703   -1267.5071     28824.76     2.124509 
    4970    481.55838   -7709.0831   -7655.3646     -1156.24    28835.909     2.131657 
    4980    476.34909   -7708.8794   -7655.7419   -852.18127    28842.136    2.1352639 
    4990    483.06909   -7709.9807   -7656.0936   -563.75723    28844.674    2.1370261 
    5000    486.64825    -7710.709   -7656.4226   -347.17022    28844.759    2.1390683 
Loop time of 2427.7 on 16 procs for 3000 steps with 864 atoms

Performance: 0.107 ns/day, 224.787 hours/ns, 1.236 timesteps/s
96.8% CPU use with 16 MPI tasks x 1 OpenMP threads

MPI task timing breakdown:
Section |  min time  |  avg time  |  max time  |%varavg| %total
---------------------------------------------------------------
Pair    | 1860.3     | 2118.8     | 2245.8     | 259.7 | 87.28
Bond    | 0.00026608 | 0.0008226  | 0.0019374  |   0.0 |  0.00
Neigh   | 0.029131   | 0.034885   | 0.0409     |   1.7 |  0.00
Comm    | 44.463     | 186.52     | 455.92     | 849.3 |  7.68
Output  | 1.4454     | 1.4829     | 2.0441     |  11.9 |  0.06
Modify  | 55.737     | 120.84     | 175.75     | 398.3 |  4.98
Other   |            | 0.01482    |            |       |  0.00

Nlocal:        54.0000 ave          60 max          44 min
Histogram: 2 0 0 1 1 4 1 0 4 3
Nghost:        403.000 ave         434 max         382 min
Histogram: 2 2 2 1 3 4 0 0 1 1
Neighs:         0.00000 ave           0 max           0 min
Histogram: 16 0 0 0 0 0 0 0 0 0
FullNghs:      1577.25 ave        1852 max        1155 min
Histogram: 1 0 1 2 2 1 3 1 3 2

Total # of neighbors = 25236
Ave neighs/atom = 29.208333
Ave special neighs/atom = 0.0000000
Neighbor list builds = 300
Dangerous builds = 300
Setting up Verlet run ...
  Unit style    : metal
  Current step  : 5000
  Time step     : 0.001
Per MPI rank memory allocation (min/avg/max) = 8.893 | 8.898 | 8.900 Mbytes
Step Temp PotEng TotEng Press Volume c_msd[4] 
    5000    486.64825    -7710.709   -7656.4226   -347.17022    28844.759    2.1390683 
    5010     487.0222   -7710.7496   -7656.4215   -195.22825    28844.131      2.13869 
    5020    488.38889   -7710.9013   -7656.4208   -200.52345    28842.597    2.1398622 
    5030    489.83113    -7711.064   -7656.4226   -228.82304    28840.216    2.1418494 
    5040    488.97475   -7710.9749    -7656.429   -252.55599    28836.873    2.1431998 
    5050    493.69106   -7711.5152   -7656.4433   -349.80112    28832.432     2.142469 
    5060    499.37749   -7712.1808   -7656.4745   -472.84282    28826.469     2.137906 
    5070    496.25071   -7711.8901   -7656.5326   -341.24508    28818.556    2.1288595 
    5080    486.39867   -7710.8704   -7656.6119   -80.328799    28809.215    2.1174677 
    5090    475.47728   -7709.7323   -7656.6921    91.593799    28799.485    2.1067265 
    5100    474.32875   -7709.6687   -7656.7566    185.19408    28790.107    2.0997395 
    5110     475.7721   -7709.8699   -7656.7968    198.78771    28781.481     2.099149 
    5120    482.76565   -7710.6707   -7656.8175    84.920268    28773.646    2.1046673 
    5130    489.95433   -7711.4848   -7656.8297   -57.366054    28766.158    2.1134713 
    5140    489.57914   -7711.4598   -7656.8465   -63.253969    28758.462    2.1216419 
    5150    485.37381   -7711.0134   -7656.8693   -1.3978232      28750.5    2.1272173 
    5160    485.00931   -7710.9974   -7656.8939   -1.5550478     28742.49    2.1307402 
    5170    484.30737   -7710.9415   -7656.9163    85.573205    28734.497    2.1337822 
    5180    489.32351   -7711.5271   -7656.9423    272.45501    28726.878    2.1384996 
    5190    488.93039   -7711.5186   -7656.9777    481.80465    28720.406    2.1457743 
    5200    485.92755   -7711.2303   -7657.0244     480.0297    28715.898    2.1542597 
    5210    490.20432   -7711.7663   -7657.0833    227.01298    28713.338    2.1627068 
    5220    484.51969    -7711.204   -7657.1551    14.407342    28711.759    2.1708998 
    5230     476.3032    -7710.362   -7657.2296   -146.50794    28710.263    2.1773229 
    5240     475.5039   -7710.3337   -7657.2905   -315.21991    28708.141    2.1804174 
    5250    474.68615   -7710.2805   -7657.3285   -426.62503    28704.691    2.1807268 
    5260    477.40025    -7710.596   -7657.3413   -401.66494    28699.458    2.1794412 
    5270    480.29438   -7710.9069   -7657.3294   -293.73744    28692.522     2.177327 
    5280    480.44809   -7710.8895   -7657.2948   -224.00248    28684.286    2.1745355 
    5290    483.56196   -7711.1794   -7657.2374    -235.6056    28675.028    2.1711038 
    5300    484.38453   -7711.1924   -7657.1586   -252.16159    28664.733    2.1679569 
    5310     482.6015   -7710.8956   -7657.0607   -282.48048    28653.318    2.1665122 
    5320    486.30654   -7711.1942    -7656.946   -409.12535    28640.609    2.1670747 
    5330    492.38505   -7711.7496   -7656.8234   -382.60345    28626.183    2.1686745 
    5340    497.20941   -7712.1685    -7656.704    -233.7522    28610.129    2.1711269 
    5350    504.04822   -7712.8302   -7656.6028   -201.44062    28592.972    2.1756472 
    5360    497.11269   -7711.9836     -7656.53   -154.65026    28574.886    2.1828926 
    5370    480.45281   -7710.0704   -7656.4751    18.673707    28556.104    2.1906127 
    5380    473.45652   -7709.2222   -7656.4074    263.75575    28537.374    2.1959925 
    5390     482.6179   -7710.1445   -7656.3077    313.66834     28519.59    2.1993667 
    5400    500.85037   -7712.0634   -7656.1928    248.68469    28502.994    2.2034759 
    5410    502.45698   -7712.1424   -7656.0926    341.00203    28487.432    2.2108985 
    5420    494.49258   -7711.1784    -7656.017    562.66468    28473.279    2.2216597 
    5430    494.63984   -7711.1296   -7655.9518    656.29031    28461.362    2.2341205 
    5440     490.6526   -7710.6233   -7655.8903    773.90793    28452.143    2.2477893 
    5450      479.557   -7709.3185   -7655.8232    981.07707    28446.167    2.2627578 
    5460    483.87298   -7709.7173   -7655.7405    945.35184    28444.171    2.2783572 
    5470    491.16352   -7710.4314   -7655.6413    760.60229    28446.069    2.2950842 
    5480    494.67602   -7710.7247   -7655.5429    530.23213    28451.154    2.3133437 
    5490    490.80324   -7710.2032   -7655.4534    326.16879    28458.502    2.3328674 
    5500    485.26656   -7709.4983   -7655.3661    130.33777    28467.249    2.3523775 
    5510    490.06538   -7709.9415    -7655.274    37.049974    28476.626    2.3697025 
    5520    491.91536   -7710.0521   -7655.1782    114.68212    28486.284    2.3837593 
    5530    490.55583   -7709.8093    -7655.087    247.90893    28496.501    2.3947574 
    5540    485.61658   -7709.1664   -7654.9951    335.20395      28507.8    2.4025726 
    5550     487.8585   -7709.3167   -7654.8954    292.92963    28520.536    2.4057756 
    5560    491.27761   -7709.5864   -7654.7836    267.70174    28534.624    2.4045545 
    5570    488.64584   -7709.1764   -7654.6672    288.75444    28549.968    2.4022412 
    5580    485.19643   -7708.6653   -7654.5409    259.52947    28566.645    2.4020941 
    5590    493.90029   -7709.4971   -7654.4018      103.605     28584.49    2.4056992 
    5600    493.16639   -7709.2654   -7654.2519    61.706518    28602.981    2.4129839 
    5610    496.00892    -7709.431   -7654.1004    65.215377     28621.91    2.4213399 
    5620    497.79288   -7709.4791   -7653.9496    73.792931    28641.284      2.42807 
    5630     493.9957   -7708.9108   -7653.8048    50.316697    28661.138    2.4309707 
    5640    497.06484    -7709.113   -7653.6647   -86.081319    28681.337    2.4295459 
    5650    495.69645   -7708.8237    -7653.528   -122.74503    28701.405     2.425699 
    5660    500.48811   -7709.2307   -7653.4005   -199.64031    28721.116      2.42136 
    5670    511.36604   -7710.3346   -7653.2909   -345.61452    28740.139    2.4182509 
    5680    513.67185   -7710.5233   -7653.2225   -368.92901    28757.905     2.417637 
    5690    511.48729    -7710.267   -7653.2098   -311.92984    28774.292      2.41937 
    5700    509.25356   -7710.0607   -7653.2527   -303.96372    28789.482    2.4232723 
    5710    503.11979   -7709.4733   -7653.3495   -305.39374    28803.509    2.4296541 
    5720    500.32166   -7709.3107   -7653.4991    -323.3504    28816.364    2.4379967 
    5730    496.05607   -7709.0337   -7653.6979   -325.75531    28827.961     2.447515 
    5740     490.5315   -7708.6575    -7653.938    -291.6588    28838.277     2.456564 
    5750    490.69125   -7708.9476   -7654.2103   -350.43467     28847.39    2.4631135 
    5760    492.99095    -7709.509   -7654.5151   -517.98921    28855.028    2.4659047 
    5770    490.57464   -7709.5727   -7654.8484   -559.86174    28860.556    2.4644325 
    5780    499.10449   -7710.8903   -7655.2144   -573.54258    28863.722    2.4595701 
    5790    506.20671   -7712.0921    -7655.624   -500.66891    28864.491    2.4545192 
    5800    498.67799    -7711.701   -7656.0727   -261.66722    28863.173    2.4520601 
    5810    485.89941    -7710.724   -7656.5212    5.2302303    28860.722     2.452598 
    5820    482.07243    -7710.711   -7656.9351     121.0635    28858.224    2.4557808 
    5830    479.82034   -7710.8235   -7657.2988    43.405153    28856.166    2.4603614 
    5840    473.58104   -7710.4328   -7657.6041   -182.54612    28854.208    2.4631522 
    5850    466.67357   -7709.9009   -7657.8428   -373.98739    28851.454    2.4610998 
    5860    467.31999   -7710.1442   -7658.0139   -476.83675    28847.097    2.4537165 
    5870    473.99215   -7711.0052   -7658.1307   -463.90671    28840.685    2.4434367 
    5880    478.58205   -7711.5963   -7658.2097    -361.9167    28832.232    2.4342617 
    5890    478.82174   -7711.6761   -7658.2628   -217.00496    28822.127    2.4292181 
    5900     478.4359   -7711.6627   -7658.2925   -76.025472    28810.961    2.4288705 
    5910    483.60868   -7712.2492   -7658.3019   -39.784993    28799.292    2.4317434 
    5920    494.07232   -7713.4187   -7658.3042   -134.08691    28787.235    2.4357299 
    5930    499.99584   -7714.0977   -7658.3224   -148.98291    28774.455    2.4390289 
    5940     492.0362   -7713.2491   -7658.3617    95.140018    28760.972    2.4400159 
    5950     490.8853   -7713.1739   -7658.4149    251.75886    28747.649    2.4376603 
    5960    492.89294   -7713.4577   -7658.4747    354.66599    28735.196    2.4335135 
    5970    494.40945   -7713.7006   -7658.5485    439.27315    28724.089    2.4300594 
    5980    484.68404   -7712.6958   -7658.6285    414.14569    28714.651    2.4288003 
    5990     481.7692   -7712.4485   -7658.7064    240.77309    28706.779    2.4289806 
    6000    483.72363   -7712.7351    -7658.775    105.05171    28699.841     2.429536 
    6010    487.40471   -7713.2083   -7658.8376    106.74768     28693.29    2.4308203 
    6020    487.68861    -7713.303   -7658.9006    294.31459    28687.182    2.4334038 
    6030    481.77356   -7712.7075   -7658.9649    411.20039    28682.189    2.4371141 
    6040    471.86663   -7711.6542   -7659.0167    466.80707    28678.853    2.4408281 
    6050    467.59621   -7711.2033   -7659.0422    413.73441    28677.418    2.4440355 
    6060    461.33947   -7710.4871    -7659.024    326.79352    28677.721    2.4479533 
    6070    456.93489   -7709.9167    -7658.945    182.72968    28679.414      2.45387 
    6080    459.32546   -7710.0246   -7658.7861   -81.296864    28681.868    2.4622559 
    6090    462.14731   -7710.0837   -7658.5305   -192.14114    28684.106    2.4725791 
    6100    463.65261   -7709.8861    -7658.165   -238.97661    28685.577    2.4838269 
    6110    469.25057   -7710.0282   -7657.6826   -176.80841    28686.099    2.4951998 
    6120    480.62494   -7710.7089   -7657.0944   -51.443401    28685.913    2.5059031 
    6130     493.8859   -7711.5427    -7656.449   -79.143957    28685.445     2.515126 
    6140    495.27029   -7711.0705   -7655.8224    -57.64466    28684.665    2.5231456 
    6150    500.02742   -7711.0546   -7655.2758   -45.170453    28683.624    2.5305733 
    6160    512.55288   -7712.0101   -7654.8341   -67.221937    28682.373    2.5380231 
    6170    514.09547   -7711.8645   -7654.5164   -12.584125    28680.843    2.5463078 
    6180    509.03608   -7711.0981   -7654.3144    71.361421    28679.241    2.5549622 
    6190    507.66556   -7710.8271   -7654.1963    230.42398    28677.961    2.5625289 
    6200    514.39538   -7711.5234   -7654.1418    355.50584    28677.617    2.5680843 
    6210    524.13483    -7712.626   -7654.1579     519.9714    28678.818    2.5730218 
    6220    516.08844   -7711.8189   -7654.2484    730.31269      28682.3     2.579759 
    6230    502.53817   -7710.4508   -7654.3919    778.13133    28688.918    2.5884483 
    6240     495.5492   -7709.8362    -7654.557     598.4784    28698.927    2.5981588 
    6250    494.15247   -7709.8508   -7654.7274    297.41301    28711.665     2.608049 
    6260      497.153   -7710.3594   -7654.9013    12.397539     28725.96    2.6179532 
    6270    502.58076   -7711.1535   -7655.0898   -138.27003    28740.674    2.6290186 
    6280    498.84044   -7710.9464      -7655.3   -56.316466    28755.204    2.6426618 
    6290    490.04136   -7710.1866   -7655.5218    211.85897    28769.891    2.6581785 
    6300     487.0896   -7710.0742   -7655.7386    367.11825    28785.774    2.6738481 
    6310     484.6694   -7710.0083   -7655.9427    318.92294    28803.517    2.6898155 
    6320     481.6662   -7709.8585   -7656.1279    153.84243    28822.976    2.7073062 
    6330    481.55895   -7710.0104   -7656.2918    4.9145631    28843.539    2.7266108 
    6340     482.3514   -7710.2441   -7656.4371   -139.15353    28864.583    2.7468138 
    6350    483.30113   -7710.4822   -7656.5692   -309.60842    28885.492    2.7671014 
    6360    482.49898   -7710.5116   -7656.6881   -581.12132    28905.468    2.7870347 
    6370     478.4608   -7710.1637   -7656.7907   -768.86306    28923.389    2.8059191 
    6380    478.98956   -7710.3056   -7656.8736   -738.56714    28938.464    2.8236575 
    6390    490.93488   -7711.7115   -7656.9469   -692.05345    28950.635    2.8407541 
    6400    496.52494   -7712.4205   -7657.0324   -572.87279    28960.072    2.8580891 
    6410    489.58184   -7711.7537   -7657.1401   -459.26296    28967.195    2.8759656 
    6420    480.58479   -7710.8671   -7657.2571   -309.63186    28972.489    2.8946748 
    6430    485.06293   -7711.4779   -7657.3684   -259.44488    28976.502    2.9146904 
    6440    498.54459   -7713.0995   -7657.4861    -339.4215    28979.397     2.935933 
    6450    488.19552   -7712.0825   -7657.6235   -339.87873    28980.918    2.9574608 
    6460    478.22782   -7711.1172   -7657.7702    -491.0151    28980.901    2.9768238 
    6470    484.92235   -7712.0061   -7657.9123   -622.61317     28978.76    2.9931542 
    6480    493.89625     -7713.16   -7658.0652   -756.40185    28973.875    3.0085576 
    6490    494.20338   -7713.3813   -7658.2522     -926.093     28965.59    3.0247788 
    6500     489.1637   -7713.0461   -7658.4792   -1021.1454    28953.155    3.0419362 
    6510    482.07394   -7712.5171   -7658.7411   -1083.0097    28936.049    3.0599016 
    6520    473.17278   -7711.8036   -7659.0205   -1060.5063    28913.973    3.0784365 
    6530    472.11912   -7711.9661   -7659.3005   -1048.6881    28886.924    3.0954656 
    6540    478.63938   -7712.9791   -7659.5862   -1010.3238    28854.908    3.1078977 
    6550    477.50116   -7713.1511   -7659.8852   -634.71517    28818.193    3.1151415 
    6560    477.61505   -7713.4698   -7660.1912   -143.99174    28778.266     3.120125 
    6570    481.26093     -7714.19   -7660.5047    278.03338    28737.178    3.1270317 
    6580    477.09995   -7714.0461   -7660.8248    560.25263    28696.743    3.1384391 
    6590    468.43483   -7713.3974   -7661.1428    613.97795    28658.169    3.1541171 
    6600    462.90245   -7713.0807   -7661.4432    474.72721    28621.745    3.1705809 
    6610    461.93553   -7713.2411   -7661.7115    268.70279        28587    3.1841844 
    6620    467.60674   -7714.1088   -7661.9465   -66.768767    28553.043    3.1941517 
    6630    473.19699   -7714.9464   -7662.1606   -300.41216     28518.57    3.2024953 
    6640    472.08298   -7715.0209   -7662.3594   -303.42554    28482.647    3.2118471 
    6650    466.77745   -7714.6041   -7662.5344   -21.485934     28445.31    3.2229005 
    6660    454.03581   -7713.3101   -7662.6618    376.38109    28407.695    3.2347404 
    6670    446.91288    -7712.572   -7662.7182    699.21421    28371.417    3.2446611 
    6680    458.24486   -7713.8181   -7662.7002    807.97309    28337.776    3.2501641 
    6690    468.43165   -7714.8709   -7662.6167    704.20702     28307.23    3.2519679 
    6700    470.28872    -7714.943   -7662.4816    634.36561    28279.456    3.2522056 
    6710    465.20219   -7714.1819   -7662.2879     760.2472    28254.245    3.2529864 
    6720     470.2203   -7714.4753   -7662.0215    961.33193    28232.068     3.255069 
    6730    479.41667   -7715.1518   -7661.6721    1216.3111    28213.761    3.2580137 
    6740    483.73595   -7715.2125    -7661.251    1353.1606     28200.31    3.2600128 
    6750    484.01254   -7714.7636   -7660.7713    1324.7469    28192.294    3.2601798 
    6760    493.28188   -7715.2775   -7660.2512    1167.4393    28189.633    3.2595046 
    6770    498.15726   -7715.2899   -7659.7197    1075.2953    28191.787    3.2587687 
    6780    492.21326   -7714.1299   -7659.2227    1076.9549    28198.425    3.2573747 
    6790    491.38992   -7713.5933    -7658.778    1035.6166     28209.53    3.2554707 
    6800    496.78871   -7713.8068   -7658.3893    923.99039    28224.983    3.2552747 
    6810    500.48596   -7713.8991   -7658.0692     697.5768    28244.357    3.2591613 
    6820    494.40252   -7712.9694    -7657.818    451.63571    28266.767    3.2679473 
    6830    491.20635   -7712.4162   -7657.6214     247.6167    28291.249    3.2800487 
    6840    494.53175   -7712.6291   -7657.4633   -5.9402365    28316.919    3.2925772 
    6850     487.8333   -7711.7566   -7657.3381    -139.2499    28342.812    3.3048231 
    6860    475.59727    -7710.283   -7657.2294   -169.30512    28368.369    3.3158705 
    6870     478.8346   -7710.5289   -7657.1142   -189.07556    28393.413     3.323195 
    6880    486.79581   -7711.2946   -7656.9918   -100.47572    28417.889    3.3274226 
    6890    487.08367   -7711.2118   -7656.8769   -53.101077    28442.081    3.3322265 
    6900    485.34511   -7710.9114   -7656.7704   -130.54519    28466.159    3.3398037 
    6910    489.81524   -7711.3088   -7656.6692   -233.29489    28489.838    3.3500906 
    6920    494.70509   -7711.7655   -7656.5804   -227.18053    28512.739    3.3621219 
    6930    494.24646   -7711.6457   -7656.5118   -260.62168    28534.822    3.3747136 
    6940    497.11135   -7711.9177   -7656.4642   -294.36728    28555.958    3.3859059 
    6950    494.65506   -7711.6183   -7656.4388   -169.26282    28576.026    3.3949432 
    6960    481.05764     -7710.09   -7656.4273    71.756539    28595.548    3.4027752 
    6970    471.41086   -7708.9915   -7656.4049    170.13667    28615.434     3.409145 
    6980    476.26848   -7709.4822   -7656.3538    148.93263    28636.116    3.4130626 
    6990    483.56086   -7710.2173   -7656.2754    118.75961    28657.553    3.4148036 
    7000    492.93272   -7711.1734    -7656.186    60.447716    28679.613    3.4152643 
    7010    504.63884   -7712.3995   -7656.1063   -73.192137    28702.026    3.4153525 
    7020    505.07468   -7712.3966   -7656.0548   -132.52593      28724.3    3.4162962 
    7030    503.90998   -7712.2521   -7656.0402   -113.56995     28746.16    3.4187116 
    7040    504.72948   -7712.3696   -7656.0663    12.324871    28767.712    3.4235196 
    7050    497.27078   -7711.6051   -7656.1338    56.506096    28789.399     3.431897 
    7060    493.77271   -7711.3139   -7656.2329   -62.813961    28811.377    3.4428594 
    7070    496.60685    -7711.756   -7656.3588   -250.80889    28833.181    3.4546411 
    7080    494.80223   -7711.7113   -7656.5153   -395.30295    28854.047    3.4661555 
    7090    498.91738   -7712.3681   -7656.7131   -506.91785    28873.342    3.4757826 
    7100    501.81562   -7712.9438   -7656.9655   -538.82776    28890.581    3.4830329 
    7110    500.78305   -7713.1536   -7657.2905   -345.58439    28905.671    3.4887591 
    7120     490.3008   -7712.3804   -7657.6866   -1.4915256    28919.426     3.493915 
    7130    476.90815   -7711.3219   -7658.1221    226.17586    28933.213    3.4983664 
    7140    479.90603   -7712.1059   -7658.5716    123.97447    28947.923    3.5013685 
    7150    484.03133   -7713.0244     -7659.03   -178.65989    28963.196    3.5042282 
    7160    476.24532   -7712.6036   -7659.4777   -445.54427    28977.807    3.5085825 
    7170    468.51968   -7712.1475   -7659.8834   -595.82039    28990.625    3.5141912 
    7180    466.99306   -7712.3206   -7660.2268   -609.03345    29000.994    3.5202269 
    7190    468.18109   -7712.7292   -7660.5029   -518.41572    29008.833    3.5261675 
    7200    472.87794   -7713.4669   -7660.7167   -537.34488    29014.416    3.5310305 
    7210    479.38808   -7714.3567   -7660.8803   -626.14249     29017.68    3.5344898 
    7220    480.17851   -7714.5718   -7661.0072   -691.67914    29018.265    3.5364477 
    7230    481.87234    -7714.858   -7661.1044   -782.41125    29015.847    3.5364403 
    7240    489.33652    -7715.772   -7661.1858   -900.75288    29009.997    3.5349144 
    7250    482.33947   -7715.0634   -7661.2577   -808.91973    29000.288    3.5327816 
    7260    472.30546   -7713.9973   -7661.3109   -693.64794    28987.009    3.5288734 
    7270    471.12019   -7713.8871   -7661.3329   -565.04209    28970.651    3.5223314 
    7280    469.33617   -7713.6731   -7661.3179   -251.41992    28951.826     3.514013 
    7290    473.05792   -7714.0368   -7661.2664    90.877185    28931.818     3.504173 
    7300    479.48577   -7714.6765   -7661.1892    263.30727        28912    3.4939614 
    7310    479.05909   -7714.5401   -7661.1004    402.59485    28893.166    3.4840806 
    7320    476.73123   -7714.1825   -7661.0024    472.35226    28875.923    3.4730223 
    7330     479.0216   -7714.3285   -7660.8929    406.45779    28860.561     3.459425 
    7340    477.93712   -7714.0886    -7660.774    376.82111    28846.893    3.4445289 
    7350    468.63351     -7712.92   -7660.6432    398.96915    28834.794    3.4316735 
    7360    466.91715   -7712.5756   -7660.4903     366.4717    28824.293    3.4238292 
    7370    469.77846   -7712.7146   -7660.3101    442.93014    28815.342    3.4215373 
    7380    475.20689     -7713.12     -7660.11    525.96327    28808.248    3.4218468 
    7390    481.41323   -7713.6071   -7659.9047    294.26631    28803.234     3.421182 
    7400    479.82453   -7713.2307   -7659.7056   -46.774531    28799.423     3.417725 
    7410    480.70509    -7713.139   -7659.5157   -338.97647    28795.413    3.4113851 
    7420    485.83081   -7713.5293   -7659.3342   -570.69382    28789.928    3.4034632 
    7430     487.6971   -7713.5735   -7659.1701   -594.87896    28782.028    3.3969207 
    7440    477.60414   -7712.3005   -7659.0231   -436.85329    28771.582    3.3933979 
    7450    471.05577    -7711.423   -7658.8761     -293.094    28759.183    3.3895262 
    7460    476.95177   -7711.9218   -7658.7171    -291.3616    28745.362    3.3813021 
    7470    476.69346   -7711.7246   -7658.5487    -186.7972    28730.221    3.3692321 
    7480    478.66251   -7711.7721   -7658.3766   -38.822791    28714.171    3.3547871 
    7490    486.41564   -7712.4621   -7658.2017    31.162672    28697.801    3.3378868 
    7500    498.04629   -7713.5998    -7658.042   -19.124884    28681.386    3.3185668 
    7510    499.31811   -7713.6168   -7657.9171   -13.665029     28664.79    3.2978759 
    7520    486.99872   -7712.1533   -7657.8279    61.836788    28648.004    3.2769487 
    7530    472.60453   -7710.4655   -7657.7457      238.508    28631.371    3.2565928 
    7540    467.47254   -7709.7872   -7657.6399    392.94856     28615.61    3.2367311 
    7550    480.22925   -7711.0757   -7657.5054    315.99296    28601.296    3.2180171 
    7560    493.76448   -7712.4419   -7657.3617    234.62466    28588.208    3.2037031 
    7570    499.43184   -7712.9498   -7657.2374    315.14984    28576.067    3.1965859 
    7580    503.14132   -7713.2717   -7657.1456    485.95795     28565.19     3.195681 
    7590    511.65525   -7714.1723   -7657.0963    550.78222    28556.212    3.1976605 
    7600    507.40106   -7713.6997   -7657.0984    709.04281    28549.532     3.201249 
    7610    498.54914   -7712.7576   -7657.1437    948.69932    28545.831    3.2057131 
    7620    501.85389   -7713.1997   -7657.2172    1018.5549     28546.05    3.2091086 
    7630    509.01496    -7714.105   -7657.3236    884.16619    28550.496    3.2103248 
    7640    511.78531   -7714.5678   -7657.4774    681.17911    28558.704    3.2111583 
    7650    511.65189   -7714.7605   -7657.6849    480.88585    28569.886    3.2148576 
    7660    507.19002     -7714.52   -7657.9422    309.67235    28583.226    3.2214719 
    7670    499.90108   -7714.0007    -7658.236    275.40132    28598.073    3.2281677 
    7680    494.55396   -7713.7153   -7658.5471     351.2577    28614.297    3.2343261 
    7690    491.25293   -7713.6606   -7658.8606    411.07544    28632.183    3.2422765 
    7700    483.51135   -7713.0958   -7659.1593    377.53201    28651.976    3.2545306 
    7710    473.66166   -7712.2573   -7659.4196    178.06962    28673.524    3.2703795 
    7720    473.32385   -7712.4241   -7659.6241   -66.201432    28696.065    3.2858225 
    7730    475.21753   -7712.7865   -7659.7753   -275.27008    28718.575    3.2975147 
    7740    471.58127   -7712.4833   -7659.8777    -382.2455    28740.188    3.3047032 
    7750    475.33368    -7712.962   -7659.9379   -523.01211    28760.378    3.3079006 
    7760    481.23722   -7713.6466   -7659.9639   -773.99472    28778.471    3.3083242 
    7770    474.22817   -7712.8678   -7659.9669   -948.43259    28793.451    3.3080896 
    7780    467.36714   -7712.0808   -7659.9453   -1090.9497    28804.521     3.309089 
    7790    471.76023   -7712.5225   -7659.8969   -1193.5644    28810.999     3.312622 
    7800    472.52274   -7712.5396    -7659.829   -1061.1317    28812.484     3.318404 
    7810    480.54971    -7713.356     -7659.75   -973.59788    28809.396    3.3240602 
    7820    489.48193   -7714.2707   -7659.6682    -825.1878    28802.145    3.3287422 
    7830    486.69901   -7713.8858   -7659.5937    -578.6759    28791.334    3.3330278 
    7840    479.11657   -7712.9687   -7659.5225   -308.43535    28777.971    3.3365164 
    7850    477.72134   -7712.7339   -7659.4434   -121.67288    28763.192    3.3377304 
    7860    481.47817   -7713.0682   -7659.3586   -131.31943    28747.723    3.3375309 
    7870     473.9327   -7712.1371   -7659.2692   -151.77123    28731.611    3.3391176 
    7880    473.59977   -7711.9984   -7659.1676   -239.31675    28714.739    3.3432059 
    7890    482.87994   -7712.9139   -7659.0479   -321.95406    28696.784    3.3488785 
    7900     488.1756   -7713.3761   -7658.9194   -324.72232    28677.422    3.3556764 
    7910    488.42417   -7713.2745   -7658.7901   -188.31451    28656.673    3.3633347 
    7920    491.56963    -7713.499   -7658.6636   -6.4866888    28635.093    3.3727017 
    7930    497.83137   -7714.0833   -7658.5495    1.7251329    28613.368     3.383913 
    7940    500.76376   -7714.3254   -7658.4644   -66.651242    28591.591    3.3945528 
    7950    502.08404   -7714.4262    -7658.418   -90.786159    28569.511    3.4015679 
    7960    492.63023   -7713.3584   -7658.4048    98.037329    28547.101    3.4045921 
    7970    476.04022   -7711.5027   -7658.3996    362.45463    28525.086    3.4057249 
    7980    471.85738   -7711.0093   -7658.3728    535.03181     28504.53    3.4079949 
    7990    478.00711   -7711.6365   -7658.3141    479.39807    28486.111    3.4138727 
    8000    493.06593   -7713.2418   -7658.2396    230.46043     28469.61    3.4236569 
    8010    500.03417    -7713.957   -7658.1774    48.068837    28454.094    3.4352985 
    8020    488.23665   -7712.5999   -7658.1363    20.229792    28438.834    3.4446272 
    8030    493.17055   -7713.1228   -7658.1089   -113.62198    28423.575    3.4465955 
    8040    499.39195   -7713.8037   -7658.0957    -202.3785    28407.832    3.4417083 
    8050    492.14463   -7713.0049   -7658.1054   -135.89497    28391.277    3.4355843 
    8060    491.10802   -7712.9131   -7658.1292    38.640572    28374.169    3.4335944 
    8070     497.9114   -7713.7073   -7658.1646    257.83243    28357.203    3.4386652 
    8080    495.62522   -7713.5084   -7658.2206    507.52075    28341.274    3.4510649 
    8090    484.82881   -7712.3819   -7658.2985    828.42531    28327.423    3.4677128 
    8100    476.86391   -7711.5754   -7658.3805    1113.9884    28316.975    3.4831196 
    8110    487.32757   -7712.8291   -7658.4669    1077.2118    28310.992     3.493408 
    8120    493.18822   -7713.5905   -7658.5746    945.59867    28309.433    3.4992213 
    8130    493.67371    -7713.794    -7658.724    782.06159    28311.778    3.5013508 
    8140    494.39411   -7714.0765   -7658.9261    570.92335    28317.351    3.4997169 
    8150    494.07465   -7714.3084   -7659.1936      423.853    28325.339    3.4961169 
    8160    489.18896   -7714.0997   -7659.5299    413.45159    28335.169    3.4942907 
    8170     488.2032   -7714.3925   -7659.9327    537.07375    28346.824    3.4965264 
    8180     481.9609     -7714.15   -7660.3866    598.14414    28360.734    3.5021906 
    8190    475.29912   -7713.8758   -7660.8555    440.37522    28377.134    3.5080814 
    8200    479.00083   -7714.7473   -7661.3141    17.173723    28395.366    3.5122172 
    8210    473.91435   -7714.6068   -7661.7409   -257.67877    28413.827     3.514715 
    8220    469.55663   -7714.4971   -7662.1174   -319.40091    28431.397    3.5143307 
    8230    471.62666   -7715.0488   -7662.4381   -350.85882    28447.726    3.5098636 
    8240    467.50499   -7714.8544   -7662.7035   -339.77407    28462.702    3.5027008 
    8250    463.24802    -7714.585    -7662.909   -387.60547    28476.325    3.4959311 
    8260    458.63705   -7714.2133   -7663.0517    -382.3452    28488.421    3.4922235 
    8270    450.91345   -7713.4256   -7663.1256   -320.15411    28499.011    3.4919151 
    8280    451.51823   -7713.4942   -7663.1267   -313.18848    28508.301    3.4928726 
    8290    452.76714   -7713.5621   -7663.0552   -222.55531    28516.372    3.4932013 
    8300    453.43295   -7713.4954   -7662.9143   -135.42322     28523.55    3.4921167 
    8310    463.33707   -7714.3951   -7662.7091   -104.84424    28530.179    3.4897716 
    8320     467.0044   -7714.5443   -7662.4492   -19.150599    28536.445    3.4869231 
    8330    466.63529   -7714.2042   -7662.1504     75.49807    28542.692    3.4822936 
    8340    472.66102    -7714.544    -7661.818    2.6727178     28549.23    3.4749906 
    8350    479.63509   -7714.9715   -7661.4675   -114.30203    28555.823    3.4666073 
    8360    478.96608   -7714.5516   -7661.1222   -149.23384    28562.025    3.4587036 
    8370    467.33138   -7712.9224   -7660.7909   -48.988168    28567.691    3.4510545 
    8380    464.02599   -7712.2275   -7660.4648    -31.36677    28573.172    3.4427691 
    8390    465.53799   -7712.0624   -7660.1309   -135.14881    28578.513    3.4350423 
    8400    464.74578   -7711.6382   -7659.7951   -153.34279    28583.371    3.4294466 
    8410     474.3814   -7712.3837   -7659.4657   -312.16658     28587.55    3.4247032 
    8420    481.66661    -7712.885   -7659.1544     -322.118      28590.5    3.4178674 
    8430    489.97344   -7713.5378   -7658.8805   -194.53771    28592.172    3.4069391 
    8440    508.10388   -7715.3364   -7658.6567   -147.41707    28593.004     3.392635 
    8450    508.70453   -7715.2466   -7658.4998    -76.48007    28593.244    3.3782466 
    8460     498.3905   -7714.0036   -7658.4074   -44.002948    28593.161    3.3660046 
    8470    496.82521   -7713.7748   -7658.3532   -58.591576    28592.884    3.3561677 
    8480    495.99413   -7713.6516   -7658.3227    11.991212    28592.407    3.3492029 
    8490    490.15608   -7712.9871   -7658.3095    80.905053    28591.996    3.3445529 
    8500    487.17513    -7712.648   -7658.3028   -39.598213     28591.87    3.3401322 
    8510    487.89968   -7712.7202   -7658.2943   -156.35319    28591.592    3.3349574 
    8520    490.96693   -7713.0544   -7658.2863   -123.14473    28590.721    3.3292635 
    8530    496.42873    -7713.663   -7658.2856   -165.29035    28589.285    3.3230299 
    8540    499.53096   -7714.0311   -7658.3076   -281.55531    28587.098    3.3163571 
    8550    487.39302   -7712.7206   -7658.3512   -248.71873    28583.771    3.3104304 
    8560    483.33276   -7712.3176   -7658.4011   -205.74439    28579.372    3.3072281 
    8570    486.62237   -7712.7327   -7658.4492   -128.11229    28574.112    3.3089127 
[...]
   22890    498.68067   -7716.7315   -7661.1029    89.630626    28765.263    6.4516185 
   22900    482.11334   -7715.0883   -7661.3079    30.123739    28756.347    6.4646398 
   22910    466.88463   -7713.5831   -7661.5015   -25.547637    28747.627    6.4722089 
   22920    476.58934   -7714.8315   -7661.6673   -191.13762    28738.813    6.4737924 
   22930    493.10531   -7716.8299   -7661.8233   -279.24526    28729.278    6.4737859 
   22940    504.84467   -7718.3187   -7662.0025   -153.25852    28718.705    6.4773138 
   22950     505.5393     -7718.62   -7662.2263    94.019741     28707.59    6.4851042 
   22960    494.36307   -7717.6318   -7662.4849    223.48658    28696.886     6.493845 
   22970    491.93615   -7717.6435   -7662.7673    109.14956    28687.085    6.4998049 
   22980    479.91275    -7716.588    -7663.053    15.729414    28677.825    6.5031038 
   22990    475.49458   -7716.3667   -7663.3245   -158.00173    28668.655     6.506166 
   23000    474.93714   -7716.5531   -7663.5731   -412.63899    28658.834    6.5116622 
   23010    468.68869   -7716.0724   -7663.7894   -518.65414    28647.384    6.5212905 
   23020    471.52092   -7716.5676   -7663.9688   -509.92496    28633.848     6.534075 
   23030    477.51222   -7717.3827   -7664.1155   -456.28488    28618.255    6.5466439 
   23040    477.10208   -7717.4615     -7664.24   -445.95017    28600.808    6.5566538 
   23050    469.12579   -7716.6728   -7664.3411   -510.48468    28581.543    6.5642288 
   23060    457.98398   -7715.4887   -7664.3999   -349.59236    28560.315    6.5676502 
   23070    457.63217   -7715.4428   -7664.3932   -2.4868527    28537.776    6.5629983 
   23080    474.22319   -7717.2212   -7664.3209    365.51464    28515.341    6.5490304 
   23090    487.06255   -7718.5385   -7664.2059     765.8977    28494.557    6.5296727 
   23100    492.47613   -7719.0144    -7664.078    1013.6176    28477.002    6.5110485 
   23110    498.52879   -7719.5666   -7663.9549    1048.4055    28463.668    6.4978102 
   23120    506.44065    -7720.347   -7663.8528    896.87934    28454.692    6.4915321 
   23130    505.71146   -7720.2022   -7663.7893    703.34726    28449.469    6.4919159 
   23140      495.882   -7719.0796   -7663.7632    738.08628    28447.301    6.4961843 
   23150    496.33869   -7719.1309   -7663.7635    756.85798    28448.195    6.5004763 
   23160    490.80555   -7718.5333   -7663.7832    781.02643     28452.24    6.5032817 
   23170    480.41306   -7717.4039   -7663.8131    730.87833    28459.508    6.5044652 
   23180     477.9285   -7717.1504   -7663.8368    604.43927    28469.792    6.5033044 
   23190    475.29269   -7716.8597   -7663.8401    494.46111    28482.588    6.4996401 
   23200    474.74241   -7716.7731   -7663.8149    440.95225    28497.457    6.4954141 
   23210    479.58441    -7717.253   -7663.7547    355.82176    28514.149    6.4945441 
   23220    485.13367   -7717.7773   -7663.6599      234.348    28532.298    6.4992798 
   23230    484.84081   -7717.6187    -7663.534     261.6746    28551.469    6.5075323 
   23240    493.63585    -7718.448   -7663.3822    259.45626    28571.692    6.5135817 
   23250    511.26677   -7720.2497   -7663.2172    188.62792    28592.958    6.5141439 
   23260    517.56515   -7720.8098   -7663.0746    181.74015    28615.024    6.5105364 
   23270    515.19177   -7720.4589   -7662.9885    241.41709    28637.872    6.5053204 
   23280    511.55994   -7720.0272   -7662.9619    224.81351    28661.708    6.5009094 
   23290    509.97611   -7719.8826    -7662.994    14.044098    28686.393    6.4998298 
   23300    502.00377   -7719.0774   -7663.0781   -24.182442    28711.218    6.5043303 
   23310    494.60101   -7718.3799   -7663.2064    -62.70607     28735.91    6.5152496 
   23320    488.91409   -7717.9019   -7663.3628   -210.04845    28760.275      6.53124 
   23330    480.47964   -7717.1285   -7663.5303   -290.16118    28783.751    6.5473616 
   23340    473.11004   -7716.4713   -7663.6952    -234.4638    28806.032     6.560507 
   23350    467.16209   -7715.9504   -7663.8378   -195.10563    28827.292    6.5723079 
   23360    474.08268   -7716.8378   -7663.9532   -272.11237    28847.648    6.5841941 
   23370    479.36418   -7717.5221   -7664.0483   -410.07466     28866.78    6.5974726 
   23380    478.48949   -7717.5055   -7664.1292   -455.75431    28884.171    6.6122631 
   23390    489.05214   -7718.7571   -7664.2026   -460.14806     28899.61     6.626933 
   23400    498.97254   -7719.9483   -7664.2872   -463.64763    28913.066    6.6408588 
   23410    495.84923   -7719.7148   -7664.4021   -462.40763    28924.526    6.6535474 
   23420    488.22682   -7719.0051   -7664.5427   -510.71114    28933.954    6.6618273 
   23430    488.86667   -7719.2333   -7664.6994   -566.48794    28941.176    6.6622808 
   23440    487.96659   -7719.3041   -7664.8707    -610.7379    28945.947    6.6571544 
   23450    481.65084   -7718.7829    -7665.054   -442.20137    28948.173    6.6518469 
   23460    474.76561   -7718.1954   -7665.2346    -246.9279    28948.501    6.6498006 
   23470    472.10284   -7718.0624   -7665.3986   -131.67185    28947.747    6.6508962 
   23480    469.54921   -7717.9153   -7665.5364   -136.80324    28946.372    6.6527486 
   23490    472.80903    -7718.389   -7665.6464   -212.75124    28944.398    6.6531354 
   23500    481.12171   -7719.4051   -7665.7353   -449.52658    28941.456     6.651291 
   23510    491.29554   -7720.6278    -7665.823     -782.868    28936.541    6.6489888 
   23520    491.06223   -7720.7055   -7665.9268    -863.7351    28928.352    6.6492667 
   23530    485.21578   -7720.1731   -7666.0466   -667.85964    28916.531    6.6530292 
   23540    482.12731   -7719.9519   -7666.1699   -417.34525    28901.839    6.6592699 
   23550    482.27379    -7720.088   -7666.2896   -206.75253    28885.317    6.6670807 
   23560    487.30892   -7720.7672   -7666.4072   -14.647256    28867.883    6.6761324 
   23570    495.03979   -7721.7595   -7666.5371    92.228328    28850.332      6.68587 
   23580    493.30418   -7721.7232   -7666.6943       157.75    28833.138    6.6946772 
   23590    483.15537   -7720.7725   -7666.8758    270.13973    28816.622    6.6994821 
   23600    473.61028   -7719.8931   -7667.0612    310.02181     28801.21    6.6975769 
   23610    475.97167   -7720.3355   -7667.2401    218.45298    28787.039    6.6896992 
   23620    478.09246   -7720.7442   -7667.4122    101.46301    28773.777    6.6786261 
   23630    478.00708   -7720.9061   -7667.5836   -95.615465    28760.885    6.6665166 
   23640    473.81719    -7720.607    -7667.752   -155.45129    28747.585    6.6554478 
   23650    468.94019   -7720.2158   -7667.9048    30.514325    28733.681    6.6468881 
   23660     468.0776   -7720.2466   -7668.0318    92.333613    28719.811    6.6425979 
   23670    471.87873   -7720.7698   -7668.1311    17.495256    28706.231    6.6456491 
   23680    475.67703   -7721.2726   -7668.2101    3.1285342    28692.688    6.6585527 
   23690    470.98058    -7720.807   -7668.2684    194.29023    28679.208    6.6802548 
   23700    471.67296   -7720.9191   -7668.3033    315.28938    28666.478    6.7055434 
   23710    465.32293   -7720.2118   -7668.3044    389.04817    28655.028    6.7283966 
   23720    452.24628   -7718.7045   -7668.2558    467.55613    28645.182    6.7447257 
   23730    450.57708   -7718.3906    -7668.128    486.42764    28637.261    6.7525358 
   23740    465.20015   -7719.7957    -7667.902    388.30073    28631.321    6.7531476 
   23750    474.87556   -7720.5581    -7667.585      319.126    28627.031    6.7518666 
   23760    467.46432   -7719.3479   -7667.2015    251.05865    28624.077    6.7525221 
   23770    464.72169   -7718.6036   -7666.7632    91.012539    28622.141    6.7548083 
   23780      471.414   -7718.8551   -7666.2681   -64.321456      28620.6    6.7576473 
   23790    474.26436   -7718.6494   -7665.7445   -58.167738     28618.86     6.760392 
   23800    482.43763   -7719.0451   -7665.2284   -45.768897    28616.855      6.76191 
   23810    482.16642   -7718.5344    -7664.748    136.92808    28614.718    6.7624259 
   23820    487.71358    -7718.729   -7664.3238    351.19628    28613.173    6.7620206 
   23830    503.70463   -7720.1498   -7663.9608    528.37408    28613.086    6.7617383 
   23840    507.66803   -7720.3083   -7663.6771    733.66911    28615.232    6.7636287 
   23850    512.34359    -7720.633   -7663.4803    702.93936    28620.354    6.7673609 
   23860    509.02741   -7720.1418   -7663.3591    668.37754    28628.432    6.7723868 
   23870    491.13962   -7718.0801   -7663.2928    605.72473    28639.303    6.7784276 
   23880     482.9067   -7717.1137   -7663.2447    417.26816    28652.632    6.7840808 
   23890    489.52742   -7717.8033   -7663.1957    277.81729    28667.692    6.7891478 
   23900    494.43179   -7718.3106    -7663.156    329.99432    28683.939    6.7958023 
   23910    488.45315   -7717.6202   -7663.1325     549.3219    28701.566    6.8061196 
   23920    490.90952   -7717.8823   -7663.1206    660.02111    28721.398    6.8185244 
   23930    502.16854   -7719.1422   -7663.1245    572.20286    28743.851    6.8309903 
   23940    498.08584   -7718.7182    -7663.156    526.14137    28768.645    6.8440161 
   23950    494.45186   -7718.3704   -7663.2135    456.87044    28795.556    6.8570645 
   23960    503.66068   -7719.4784   -7663.2943     290.9109    28824.258    6.8697633 
   23970    505.93856   -7719.8513   -7663.4131    108.18762    28854.054    6.8841954 
   23980    495.85388   -7718.8863   -7663.5731   -23.139997    28884.202     6.902061 
   23990    489.97163   -7718.4167   -7663.7597   -148.51894    28914.121    6.9221581 
   24000    488.17338   -7718.4163   -7663.9598    -231.4292    28943.257     6.941768 
   24010    484.12114   -7718.1721   -7664.1676   -207.58504    28971.276    6.9591525 
   24020     477.8311    -7717.673   -7664.3702   -204.92383    28998.262    6.9734317 
   24030    474.91634   -7717.5315   -7664.5539   -388.79639    29024.126    6.9842245 
   24040    479.36829   -7718.1915   -7664.7172   -618.97951    29048.134    6.9920438 
   24050    489.51727   -7719.4831   -7664.8767   -739.07326    29069.349    6.9980355 
   24060    495.63828   -7720.3415   -7665.0523   -762.33842    29087.244    7.0023169 
   24070    499.70917    -7721.006   -7665.2626   -833.47253    29101.696    7.0047893 
   24080    493.07285   -7720.5144   -7665.5114   -988.34451    29112.379    7.0058288 
   24090    478.65415   -7719.1742   -7665.7796   -1009.4877    29118.731    7.0043254 
   24100    467.12491   -7718.1452   -7666.0367   -931.48817    29120.654    6.9988504 
   24110     463.9386   -7718.0203   -7666.2673   -803.50602    29118.532    6.9886489 
   24120    463.47532   -7718.1651   -7666.4638   -827.33545    29112.883    6.9746815 
   24130     471.4728   -7719.2198   -7666.6263    -896.1474    29103.718    6.9594061 
   24140    481.25227   -7720.4528   -7666.7684   -921.46279    29090.814    6.9455143 
   24150    473.16852   -7719.6802   -7666.8975   -790.18312    29074.195    6.9341399 
   24160    464.84579   -7718.8511   -7666.9969   -632.07839    29054.459    6.9245022 
   24170    469.50648   -7719.4209   -7667.0468   -625.42879    29032.307    6.9136692 
   24180    477.51668   -7720.3196   -7667.0519   -567.48148    29007.941    6.8996594 
   24190    480.06998   -7720.5733   -7667.0208   -386.21459    28981.709    6.8827875 
   24200     476.9979   -7720.1601   -7666.9502   -97.729223    28954.516    6.8645556 
   24210    479.11467   -7720.2765   -7666.8306    59.020563    28927.542    6.8467616 
   24220    487.21697   -7721.0121   -7666.6623    190.34477    28901.519    6.8316701 
   24230    491.86367    -7721.325   -7666.4569    416.11188    28877.071     6.822422 
   24240     493.1491   -7721.2388   -7666.2273     652.6551    28855.091    6.8200631 
   24250    487.19908   -7720.3204   -7665.9726    877.84267    28836.523    6.8207836 
   24260    483.50257   -7719.6212   -7665.6857    981.47135    28822.176    6.8191632 
   24270    489.30084   -7719.9448   -7665.3625    953.25866    28812.347     6.812346 
   24280    490.21211   -7719.6916   -7665.0077    984.62283    28806.874    6.8011162 
   24290    484.82432    -7718.716   -7664.6331    948.53209    28805.698    6.7883698 
   24300    485.33509   -7718.3748    -7664.235    769.98111    28808.507    6.7773215 
   24310    500.02166   -7719.5976   -7663.8195    383.40537    28814.385    6.7691458 
   24320      509.797   -7720.2868   -7663.4182   -13.313298    28821.715    6.7637139 
   24330     504.3675   -7719.3331   -7663.0701   -260.16697    28828.823    6.7600864 
   24340    499.37684   -7718.4843   -7662.7781   -360.01369    28834.668    6.7561914 
   24350    500.11609   -7718.3169   -7662.5282   -335.78303    28838.873    6.7513696 
   24360    497.18683   -7717.7769    -7662.315   -182.16147    28841.592    6.7461833 
   24370    492.58343   -7717.0825   -7662.1341    13.340975    28843.462    6.7419978 
   24380    483.27905   -7715.8825    -7661.972    164.28713     28845.31    6.7401416 
   24390    478.91088   -7715.2338   -7661.8105    130.35857    28847.747    6.7396744 
   24400    480.85154   -7715.2747    -7661.635   -112.33755    28850.569    6.7380396 
   24410    486.53685   -7715.7187   -7661.4448   -253.41441    28852.893     6.732983 
   24420    504.24068   -7717.5053   -7661.2565   -410.08622    28854.075    6.7241528 
   24430    511.23491   -7718.1306   -7661.1016   -550.83838    28853.499     6.714321 
   24440    500.53703    -7716.835   -7660.9993   -626.30819    28850.636    6.7062876 
   24450    497.77085   -7716.4603   -7660.9332   -562.06394    28845.256    6.7000962 
   24460    506.07891   -7717.3466   -7660.8927   -399.65883    28837.669    6.6949717 
   24470    511.39361   -7717.9376   -7660.8908   -154.97238    28828.638    6.6895732 
   24480    507.96459   -7717.6075   -7660.9433    58.694551    28819.173    6.6817308 
   24490    494.29878   -7716.1767   -7661.0369    239.32986    28810.202    6.6719072 
   24500    490.27544   -7715.8454   -7661.1544    334.99084     28802.45    6.6623739 
   24510    484.71591   -7715.3498    -7661.279    488.82439    28796.338    6.6544811 
   24520    489.06242   -7715.9658   -7661.4101     604.4214    28792.439    6.6483423 
   24530    497.60597   -7717.0717    -7661.563    467.31437    28791.078    6.6448961 
   24540    497.04623   -7717.2012   -7661.7549    354.95525    28791.743    6.6446221 
   24550    501.35231   -7717.9237   -7661.9971    233.41766    28793.877    6.6457097 
   24560    503.86525   -7718.5123   -7662.3054    174.16334        28797     6.648032 
   24570    492.40885   -7717.6123   -7662.6833    48.457106    28800.758    6.6521518 
   24580    484.97726   -7717.2116   -7663.1116    -45.78712    28804.677     6.656488 
   24590     487.0768   -7717.9097   -7663.5755    -64.66749    28808.361    6.6606823 
   24600    489.77826   -7718.7048   -7664.0693    7.0744704    28811.738    6.6661068 
   24610    486.67184   -7718.8655   -7664.5765   -20.131718     28815.04    6.6734446 
   24620    476.63141   -7718.2297   -7665.0608   -103.60708    28818.189    6.6817965 
   24630    468.71642   -7717.7656   -7665.4796    -209.7464    28820.827    6.6879866 
   24640    468.20987   -7718.0431   -7665.8136   -199.63726     28822.59    6.6898233 
   24650    467.50349   -7718.2131   -7666.0624    -74.16613    28823.528    6.6891844 
   24660    461.85191   -7717.7497   -7666.2295    164.29876    28824.197    6.6889421 
   24670    455.15053   -7717.0896   -7666.3169    248.92634      28825.5    6.6904253 
   24680    460.22688   -7717.6717   -7666.3327    116.34762    28827.764    6.6949247 
   24690     471.1689   -7718.8557   -7666.2961   -79.859996    28830.472    6.7039619 
   24700    475.89365    -7719.315   -7666.2283     -374.823    28832.744    6.7164767 
   24710     489.7023    -7720.779   -7666.1519   -594.20366    28833.419    6.7280844 
   24720    498.76104   -7721.7244   -7666.0868   -598.89743    28831.643    6.7363659 
   24730    504.01769   -7722.2777   -7666.0538   -348.15864    28827.453    6.7403709 
   24740    503.17497    -7722.188   -7666.0581    -83.06975    28821.844    6.7421027 
   24750    490.97035   -7720.8588   -7666.0903    91.698371    28815.922    6.7457628 
   24760    486.82475   -7720.4375   -7666.1314    155.75934    28810.455    6.7527687 
   24770    488.92489   -7720.7104   -7666.1701    25.831032    28805.661    6.7621668 
   24780    486.20097   -7720.4415    -7666.205    13.074856    28801.096    6.7715463 
   24790    485.27495   -7720.3691    -7666.236    2.0587689    28796.655    6.7788101 
   24800    483.34334   -7720.1792   -7666.2615   -170.22029    28792.224    6.7858198 
   24810     474.5734   -7719.2129   -7666.2735   -232.71189    28787.169    6.7956271 
   24820    473.22839   -7719.0486   -7666.2592   -114.85982    28781.263    6.8083024 
   24830    478.06576    -7719.545    -7666.216    88.036997     28774.98    6.8224974 
   24840    473.11165   -7718.9208   -7666.1445    316.01561    28769.167     6.835939 
   24850    478.31665   -7719.4037   -7666.0468    341.69708    28764.679     6.845178 
   24860    488.88355   -7720.4624   -7665.9267    289.55398    28761.658      6.85009 
   24870    498.14938    -7721.378   -7665.8087    263.10894    28759.902    6.8547777 
   24880    494.83921   -7720.9075   -7665.7075    350.88557    28759.326    6.8644672 
   24890    488.61549   -7720.1259   -7665.6201    414.16978    28760.233    6.8811756 
   24900    493.43392   -7720.5794   -7665.5361    340.60375    28762.829    6.9018116 
   24910    495.09703   -7720.6858   -7665.4569    310.42688    28766.876    6.9218485 
   24920    490.84525   -7720.1413   -7665.3868    283.24441    28772.213    6.9391894 
   24930    491.67661   -7720.1679   -7665.3206    172.35266    28778.687    6.9549111 
   24940     487.3371   -7719.6157   -7665.2525    229.64416    28785.935    6.9715887 
   24950    484.88719   -7719.2661   -7665.1762    202.19187    28794.071    6.9905096 
   24960    490.77448    -7719.828   -7665.0813   -22.580799     28802.94    7.0106745 
   24970    503.24855   -7721.1155   -7664.9774   -212.52115    28811.664    7.0290987 
   24980    501.98063   -7720.8805   -7664.8838   -335.05297    28819.455       7.0428 
   24990    489.65687   -7719.4273   -7664.8054   -562.95004    28825.708    7.0503442 
   25000    477.98202   -7718.0388   -7664.7192   -809.51616    28829.504    7.0531449 
Loop time of 16278.4 on 16 procs for 20000 steps with 864 atoms

Performance: 0.106 ns/day, 226.088 hours/ns, 1.229 timesteps/s
96.5% CPU use with 16 MPI tasks x 1 OpenMP threads

MPI task timing breakdown:
Section |  min time  |  avg time  |  max time  |%varavg| %total
---------------------------------------------------------------
Pair    | 13203      | 14228      | 14887      | 451.8 | 87.40
Bond    | 0.0020609  | 0.00601    | 0.011399   |   3.2 |  0.00
Neigh   | 0.21884    | 0.24776    | 0.40828    |   8.8 |  0.00
Comm    | 360.51     | 1219.3     | 2285.4     |1501.5 |  7.49
Output  | 2.0501     | 2.2146     | 4.6714     |  42.6 |  0.01
Modify  | 632.41     | 828.76     | 1028.1     | 425.2 |  5.09
Other   |            | 0.1806     |            |       |  0.00

Nlocal:        54.0000 ave          63 max          50 min
Histogram: 3 2 3 5 0 0 1 1 0 1
Nghost:        395.875 ave         417 max         371 min
Histogram: 1 1 3 1 0 2 4 0 1 3
Neighs:         0.00000 ave           0 max           0 min
Histogram: 16 0 0 0 0 0 0 0 0 0
FullNghs:      1580.38 ave        1943 max        1385 min
Histogram: 3 1 2 6 1 0 1 1 0 1

Total # of neighbors = 25286
Ave neighs/atom = 29.266204
Ave special neighs/atom = 0.0000000
Neighbor list builds = 2000
Dangerous builds = 2000
Total wall time: 5:37:04
