LAMMPS (2 Aug 2023)
OMP_NUM_THREADS environment is not set. Defaulting to 1 thread. (src/comm.cpp:98)
  using 1 OpenMP thread(s) per MPI task
read_restart    ../structure.ready
Reading restart file ...
  restart file = 2 Aug 2023, LAMMPS = 2 Aug 2023
  restoring atom style full from restart
  orthogonal box = (-0.33623157 -0.341427 -13.879934) to (25.471202 25.476397 89.284846)
  1 by 1 by 1 MPI processor grid
  pair style chgnet/gpu stores no restart info
  1536 atoms
Finding 1-2 1-3 1-4 neighbors ...
  special bond factors lj:    0        0        0       
  special bond factors coul:  0        0        0       
     0 = max # of 1-2 neighbors
     0 = max # of 1-3 neighbors
     0 = max # of 1-4 neighbors
     1 = max # of special neighbors
  special bonds CPU = 0.002 seconds
  read_restart CPU = 0.055 seconds

pair_style      chgnet/gpu /ocean/projects/cts180021p/wuziqi/clease/lammps-ASC/potentials/CHGNET
pair_coeff      * * MPtrj-efsm Cl K

neighbor        0.3 bin
neigh_modify    delay 10

timestep	    0.001
compute	        msd all msd
Resetting peratom fix info from restart file:
  fix style: STORE/ATOM, fix ID: msd_COMPUTE_STORE
thermo_style	custom step temp pe etotal press vol c_msd[4]
thermo	        10
dump	        1 all custom 10 xyz-mix.dump type id x y z
dump	        2 all custom 10 force-mix.dump type id fx fy fz

fix             2 gLiquid npt temp 1500 600.0 $(100.0*dt) z 1.01325 1.01325 $(1000.0*dt) couple none
fix             2 gLiquid npt temp 1500 600.0 0.10000000000000000555 z 1.01325 1.01325 $(1000.0*dt) couple none
fix             2 gLiquid npt temp 1500 600.0 0.10000000000000000555 z 1.01325 1.01325 1 couple none
run             10000
All restart file peratom fix info was re-assigned
Neighbor list info ...
  update: every = 1 steps, delay = 10 steps, check = yes
  max neighbors/atom: 2000, page size: 100000
  master list distance cutoff = 6.3
  ghost atom cutoff = 6.3
  binsize = 3.15, bins = 9 9 33
  1 neighbor lists, perpetual/occasional/extra = 1 0 0
  (1) pair chgnet/gpu, perpetual
      attributes: full, newton on
      pair build: full/bin
      stencil: full/bin/3d
      bin: standard
Per MPI rank memory allocation (min/avg/max) = 6.512 | 6.512 | 6.512 Mbytes
   Step          Temp          PotEng         TotEng         Press          Volume        c_msd[4]   
     20000   1480.9672     -5265.4827     -4971.6376      1074.1679      68737.846      80.319031    
     20010   1474.547      -5264.1724     -4971.6011      1165.4897      68739.028      80.428916    
     20020   1471.0144     -5263.3594     -4971.4891      1238.85        68742.748      80.559208    
     20030   1460.1699     -5260.9874     -4971.2688      1216.7444      68749.016      80.706524    
     20040   1460.886      -5260.7842     -4970.9235      1036.6456      68757.407      80.864118    
     20050   1471.2015     -5262.3464     -4970.439       751.56332      68767.187      81.024362    
     20060   1474.8009     -5262.4545     -4969.8328      464.76792      68777.594      81.181667    
     20070   1485.597      -5263.8889     -4969.1252      136.50907      68787.91       81.332098    
     20080   1495.4233     -5265.0491     -4968.3357     -107.42213      68797.528      81.473293    
     20090   1500.5245     -5265.2281     -4967.5026     -173.68879      68806.299      81.606721    
     20100   1496.5003     -5263.5721     -4966.6451     -12.739822      68814.483      81.736902    
     20110   1480.0835     -5259.4226     -4965.7528      304.22967      68822.463      81.868537    
     20120   1468.6306     -5256.1703     -4964.7729      583.95083      68830.558      82.004659    
     20130   1476.3029     -5256.5837     -4963.6641      649.12488      68838.83       82.146443    
     20140   1497.0717     -5259.472      -4962.4316      649.05128      68847.064      82.293404    
     20150   1513.2701     -5261.4001     -4961.1457      649.83798      68855.201      82.444902    
     20160   1521.8946     -5261.8561     -4959.8904      647.49559      68863.53       82.601162    
     20170   1532.8345     -5262.8584     -4958.7221      592.39213      68872.388      82.763769    
     20180   1539.1496     -5263.084      -4957.6947      524.99862      68881.898      82.935251    
     20190   1546.3438     -5263.6703     -4956.8535      509.64681      68892.047      83.116601    
     20200   1550.287      -5263.8307     -4956.2316      564.10016      68902.765      83.30579     
     20210   1534.7373     -5260.3499     -4955.836       777.93495      68914.111      83.499515    
     20220   1526.2387     -5258.465      -4955.6373      974.25433      68926.352      83.694966    
     20230   1534.0706     -5259.9869     -4955.6054      1077.1181      68939.717      83.891893    
     20240   1543.2899     -5261.9967     -4955.7859      1185.7631      68954.38       84.09217     
     20250   1532.3946     -5260.2828     -4956.2338      1450.4929      68970.61       84.298704    
     20260   1509.6281     -5256.472      -4956.9402      1772.9917      68988.903      84.515574    
     20270   1496.5146     -5254.8248     -4957.8949      1921.8384      69009.777      84.746546    
     20280   1504.3286     -5257.6033     -4959.1229      1772.0388      69033.517      84.994942    
     20290   1520.8176     -5262.4926     -4960.7406      1482.8475      69059.939      85.261657    
     20300   1519.1714     -5264.2734     -4962.8481      1326.658       69088.721      85.54592     
     20310   1488.5358     -5260.7278     -4965.381       1438.3146      69119.854      85.847857    
     20320   1448.7276     -5255.4602     -4968.0119      1581.3702      69153.647      86.167818    
     20330   1443.783      -5256.8536     -4970.3864      1458.8587      69190.288      86.503511    
     20340   1460.1326     -5262.0597     -4972.3485      1183.7151      69229.488      86.852399    
     20350   1462.715      -5264.1002     -4973.8766      1046.1812      69270.687      87.213366    
     20360   1463.7091     -5265.4482     -4975.0274      944.10466      69313.494      87.584848    
     20370   1465.9078     -5266.7424     -4975.8853      836.80258      69357.618      87.964866    
     20380   1477.8899     -5269.7966     -4976.5621      684.47573      69402.826      88.353111    
     20390   1477.8207     -5270.3643     -4977.1435      575.58602      69449.002      88.75173     
     20400   1460.5783     -5267.4646     -4977.6649      617.38573      69496.227      89.163897    
     20410   1451.2941     -5266.0726     -4978.1151      595.52115      69544.793      89.592737    
     20420   1448.2002     -5265.8273     -4978.4836      493.6897       69594.888      90.039034    
     20430   1444.7793     -5265.4475     -4978.7826      363.74062      69646.632      90.50148     
     20440   1442.0138     -5265.1219     -4979.0058      254.79603      69699.809      90.97515     
     20450   1433.4819     -5263.5718     -4979.1484      266.62392      69753.94       91.453438    
     20460   1423.124      -5261.5569     -4979.1887      320.75442      69808.626      91.93214     
     20470   1425.0618     -5261.8612     -4979.1085      367.04906      69863.59       92.410362    
     20480   1440.289      -5264.6902     -4978.9162      307.79994      69918.528      92.887959    
     20490   1446.3403     -5265.6368     -4978.6622      364.4622       69973.194      93.363849    
     20500   1436.8932     -5263.4674     -4978.3672      609.01832      70027.772      93.839905    
     20510   1433.4144     -5262.4299     -4978.02        792.30966      70082.741      94.319748    
     20520   1445.7428     -5264.4591     -4977.603       839.35304      70138.357      94.804162    
     20530   1450.782      -5264.9967     -4977.1408      873.38401      70194.593      95.291762    
     20540   1436.3625     -5261.6437     -4976.6488      992.22606      70251.423      95.781763    
     20550   1424.9142     -5258.818      -4976.0946      1063.7342      70308.91       96.272976    
     20560   1444.0895     -5261.9762     -4975.4482      766.25875      70367.044      96.762011    
     20570   1470.9653     -5266.6069     -4974.7464      413.04875      70425.582      97.247344    
     20580   1474.2938     -5266.6007     -4974.0797      315.25641      70484.383      97.733503    
     20590   1462.0792     -5263.5853     -4973.4879      439.85433      70543.528      98.226695    
     20600   1466.3412     -5263.8867     -4972.9436      521.86481      70603.053      98.729618    
     20610   1490.7769     -5268.2465     -4972.455       396.28905      70662.786      99.24061     
     20620   1504.6777     -5270.6407     -4972.0911      311.91277      70722.371      99.756945    
     20630   1496.9659     -5268.9423     -4971.9228      376.98895      70781.515      100.27692    
     20640   1479.5094     -5265.5039     -4971.9481      426.62944      70840.164      100.80004    
     20650   1459.608      -5261.7217     -4972.1145      481.42544      70898.449      101.32668    
     20660   1442.2755     -5258.5331     -4972.365       455.65761      70956.535      101.85688    
     20670   1428.82       -5256.1348     -4972.6364      362.30898      71014.432      102.38925    
     20680   1417.9243     -5254.2195     -4972.883       226.94538      71071.979      102.9228     
     20690   1419.4029     -5254.7091     -4973.0792      11.445943      71128.948      103.4569     
     20700   1423.6315     -5255.6821     -4973.2133     -162.14015      71184.861      103.98842    
     20710   1418.6311     -5254.7791     -4973.3023     -253.48864      71239.041      104.51202    
     20720   1400.187      -5251.1393     -4973.3221     -123.89989      71290.971      105.0234     
     20730   1390.2417     -5249.0793     -4973.2355     -16.940326      71340.671      105.52314    
     20740   1392.675      -5249.324      -4972.9973     -54.861188      71388.471      106.01567    
     20750   1391.2678     -5248.63       -4972.5825     -47.400501      71434.774      106.50552    
     20760   1387.1886     -5247.2029     -4971.9648     -3.7535375      71480.116      106.99556    
     20770   1398.9443     -5248.6783     -4971.1078     -107.29559      71524.912      107.48593    
     20780   1423.7228     -5252.4924     -4970.0054     -293.58318      71569.077      107.97346    
     20790   1448.143      -5256.0579     -4968.7255     -457.64962      71612.172      108.45435    
     20800   1453.9599     -5255.8663     -4967.3799     -449.00045      71653.774      108.92584    
     20810   1448.6379     -5253.4794     -4966.0489     -339.37917      71693.714      109.38567    
     20820   1446.0796     -5251.6857     -4964.7628     -260.25501      71732.004      109.83217    
     20830   1442.6683     -5249.7865     -4963.5404     -147.85121      71768.796      110.26567    
     20840   1439.6324     -5248.0323     -4962.3887     -97.374105      71804.401      110.68843    
     20850   1444.01       -5247.8339     -4961.3216     -75.022331      71839.062      111.10173    
     20860   1442.538      -5246.5734     -4960.3532     -35.397642      71872.936      111.50532    
     20870   1444.7344     -5246.1383     -4959.4823     -63.122297      71906.121      111.89762    
     20880   1460.9008     -5248.597      -4958.7334     -243.73007      71938.665      112.27718    
     20890   1474.7168     -5250.743      -4958.1381     -418.68182      71970.442      112.6424     
     20900   1482.2481     -5251.8519     -4957.7527     -523.93676      72001.204      112.99307    
     20910   1476.7183     -5250.6013     -4957.5993     -455.72171      72030.654      113.33117    
     20920   1469.9236     -5249.3141     -4957.6602     -298.77303      72058.739      113.65993    
     20930   1471.5665     -5249.9004     -4957.9205     -197.00633      72085.701      113.98315    
     20940   1475.6804     -5251.1829     -4958.3867     -133.5214       72111.957      114.30663    
     20950   1477.6996     -5252.2716     -4959.0748     -120.22896      72137.896      114.63728    
     20960   1476.4654     -5252.9539     -4960.002      -115.47807      72163.679      114.97936    
     20970   1456.1001     -5250.0396     -4961.1284     -32.955329      72189.216      115.33211    
     20980   1435.5797     -5247.2172     -4962.3776      102.26553      72214.464      115.69264    
     20990   1430.0174     -5247.4003     -4963.6643      125.47432      72239.479      116.05822    
     21000   1418.2344     -5246.3229     -4964.9248      211.70892      72264.357      116.42645    
     21010   1407.8082     -5245.4235     -4966.0942      277.94501      72289.466      116.79689    
     21020   1414.0431     -5247.702      -4967.1356      149.65388      72315.145      117.16953    
     21030   1425.1099     -5250.8181     -4968.0559     -94.023155      72341.203      117.54137    
     21040   1437.2888     -5254.0734     -4968.8947     -366.80907      72367.148      117.90786    
     21050   1439.8657     -5255.3785     -4969.6886     -520.66972      72392.506      118.26566    
     21060   1425.502      -5253.2688     -4970.4288     -530.92087      72417.013      118.61521    
     21070   1412.872      -5251.4235     -4971.0894     -528.04893      72440.711      118.95965    
     21080   1408.6849     -5251.1565     -4971.6532     -608.64986      72463.786      119.30142    
     21090   1409.328      -5251.7633     -4972.1325     -714.35048      72486.289      119.64036    
     21100   1411.7938     -5252.6777     -4972.5576     -782.7439       72508.183      119.97526    
     21110   1402.8997     -5251.3092     -4972.9538     -672.76905      72529.635      120.30713    
     21120   1380.8599     -5247.2787     -4973.2963     -375.42664      72551.156      120.63971    
     21130   1368.9497     -5245.1715     -4973.5523     -208.82611      72573.404      120.97699    
     21140   1364.8105     -5244.4885     -4973.6906     -182.61726      72596.684      121.32072    
     21150   1365.0146     -5244.5449     -4973.7065     -294.02645      72620.885      121.67008    
     21160   1378.6565     -5247.1677     -4973.6225     -579.03819      72645.643      122.0216     
     21170   1397.5558     -5250.7727     -4973.4776     -946.55093      72670.204      122.36883    
     21180   1407.1348     -5252.5247     -4973.329      -1169.6956      72693.578      122.70437    
     21190   1408.4559     -5252.6814     -4973.2236     -1226.709       72715.102      123.02343    
     21200   1405.1184     -5251.9717     -4973.1761     -1169.187       72734.571      123.32396    
     21210   1398.131      -5250.5845     -4973.1753     -1036.2063      72751.987      123.60378    
     21220   1391.5297     -5249.3013     -4973.2018     -871.8821       72767.502      123.86106    
     21230   1388.3409     -5248.7084     -4973.2417     -762.9738       72781.441      124.0969     
     21240   1385.8362     -5248.2484     -4973.2787     -650.60943      72794.281      124.316      
     21250   1389.4113     -5248.9922     -4973.3131     -674.31172      72806.423      124.52381    
     21260   1396.1761     -5250.3856     -4973.3643     -749.69806      72817.922      124.72425    
     21270   1391.6668     -5249.5708     -4973.4442     -739.44575      72828.79       124.92174    
     21280   1386.5364     -5248.6681     -4973.5594     -671.04959      72839.311      125.12113    
     21290   1367.3805     -5244.9884     -4973.6805     -471.72138      72849.853      125.32535    
     21300   1342.5251     -5240.1218     -4973.7456     -224.80037      72860.783      125.5364     
     21310   1341.6622     -5239.8959     -4973.6909     -196.66219      72872.419      125.75666    
     21320   1356.2353     -5242.589      -4973.4925     -332.83913      72884.677      125.98527    
     21330   1369.8759     -5244.973      -4973.17       -478.47149      72897.287      126.21952    
     21340   1380.0118     -5246.5759     -4972.7618     -586.71963      72910.2        126.45842    
     21350   1386.2184     -5247.3384     -4972.2928     -683.03304      72923.4        126.69912    
     21360   1391.5891     -5247.8947     -4971.7834     -732.43343      72936.636      126.93608    
     21370   1392.0694     -5247.4556     -4971.2491     -742.33854      72949.722      127.16707    
     21380   1378.5326     -5244.2084     -4970.6878     -614.3334       72962.608      127.39159    
     21390   1374.1777     -5242.7227     -4970.0661     -580.21999      72975.448      127.61076    
     21400   1394.9343     -5246.1434     -4969.3685     -732.46329      72988.273      127.82652    
     21410   1412.8616     -5248.9677     -4968.6357     -968.7758       73000.752      128.0398     
     21420   1408.7403     -5247.457      -4967.9428     -964.4647       73012.61       128.25263    
     21430   1404.3655     -5245.9607     -4967.3145     -916.98602      73023.769      128.46726    
     21440   1407.3087     -5245.975      -4966.7448     -898.36911      73034.101      128.68328    
     21450   1411.4111     -5246.2947     -4966.2505     -947.9043       73043.576      128.8985     
     21460   1416.3512     -5246.8854     -4965.861      -951.92142      73052.123      129.11015    
     21470   1419.4383     -5247.2483     -4965.6114     -937.06511      73059.638      129.31612    
     21480   1421.8056     -5247.6387     -4965.5321     -881.52623      73066.214      129.51726    
     21490   1426.8201     -5248.764      -4965.6625     -837.76076      73072.02       129.71622    
     21500   1408.3414     -5245.4594     -4966.0242     -644.95874      73076.992      129.912      
     21510   1382.4926     -5240.8839     -4966.5776     -474.37036      73081.085      130.1011     
     21520   1378.6732     -5240.814      -4967.2655     -480.67538      73084.36       130.28041    
     21530   1388.812      -5243.6499     -4968.0897     -649.8336       73086.937      130.44913    
     21540   1394.0492     -5245.6849     -4969.0856     -771.56779      73088.938      130.60818    
     21550   1390.6683     -5246.2017     -4970.2732     -839.88885      73090.44       130.76002    
     21560   1380.3833     -5245.5048     -4971.6169     -846.48567      73091.413      130.90706    
     21570   1366.7218     -5244.2223     -4973.0451     -863.08895      73091.847      131.04974    
     21580   1365.3178     -5245.3813     -4974.4827     -956.63306      73091.814      131.18658    
     21590   1375.6312     -5248.8428     -4975.8978     -1152.899       73091.341      131.31613    
     21600   1379.3532     -5250.9723     -4977.2889     -1299.7561      73090.243      131.43671    
     21610   1369.2783     -5250.301      -4978.6166     -1272.966       73088.182      131.5454     
     21620   1368.9989     -5251.47       -4979.841      -1284.1868      73084.871      131.63867    
     21630   1378.1891     -5254.4227     -4980.9703     -1352.9694      73080.007      131.71444    
     21640   1385.1244     -5256.8635     -4982.035      -1392.0556      73073.138      131.77233    
     21650   1389.3505     -5258.7407     -4983.0737     -1331.8259      73063.918      131.81341    
     21660   1377.7726     -5257.4509     -4984.0811     -1199.696       73052.491      131.84044    
     21670   1360.7989     -5255.0244     -4985.0224     -1019.243       73039.245      131.85534    
     21680   1360.0168     -5255.7242     -4985.8774     -963.3273       73024.563      131.86022    
     21690   1358.0242     -5256.1117     -4986.6602     -929.79844      73008.83       131.85861    
     21700   1336.1549     -5252.48       -4987.3677     -760.42114      72992.415      131.85388    
     21710   1313.739      -5248.6194     -4987.9547     -610.69754      72975.694      131.84764    
     21720   1302.8962     -5246.8901     -4988.3769     -527.52239      72959.048      131.84143    
     21730   1300.4288     -5246.6525     -4988.6288     -517.34112      72942.923      131.8395     
     21740   1305.0531     -5247.668      -4988.7267     -628.65856      72927.596      131.84695    
     21750   1313.9158     -5249.395      -4988.6953     -781.1141       72912.918      131.86412    
     21760   1322.4341     -5250.9639     -4988.574      -893.3532       72898.515      131.88708    
     21770   1329.4191     -5252.1636     -4988.3878     -956.71729      72884.092      131.91168    
     21780   1335.8778     -5253.2216     -4988.1643     -1016.1028      72869.554      131.93543    
     21790   1335.0997     -5252.8279     -4987.925      -981.23354      72854.936      131.95676    
     21800   1338.8082     -5253.3083     -4987.6696     -1037.978       72840.278      131.97388    
     21810   1359.0846     -5257.0851     -4987.4232     -1239.4657      72825.305      131.98354    
     21820   1374.608      -5259.9884     -4987.2465     -1427.0441      72809.668      131.98424    
     21830   1379.6589     -5260.9435     -4987.1994     -1482.6194      72793.255      131.97793    
     21840   1365.0024     -5258.1372     -4987.3012     -1309.366       72776.191      131.96869    
     21850   1333.8056     -5252.157      -4987.5108     -949.87911      72758.732      131.9601     
     21860   1298.8481     -5245.4344     -4987.7244     -579.32131      72741.14       131.9532     
     21870   1281.262      -5242.0613     -4987.8405     -438.55347      72723.44       131.94546    
     21880   1288.538      -5243.465      -4987.8006     -602.53899      72705.286      131.93192    
     21890   1310.6501     -5247.668      -4987.6162     -988.46722      72686.225      131.90873    
     21900   1334.9601     -5252.2163     -4987.3411     -1451.1757      72665.819      131.87322    
     21910   1350.7039     -5255.0504     -4987.0514     -1732.7784      72643.668      131.82335    
     21920   1354.1412     -5255.4822     -4986.8012     -1782.114       72619.639      131.75931    
     21930   1343.6346     -5253.2018     -4986.6054     -1583.5844      72594.071      131.68562    
     21940   1327.1425     -5249.7612     -4986.4371     -1252.617       72567.716      131.61001    
     21950   1321.3779     -5248.4308     -4986.2505     -986.42151      72541.337      131.54014    
     21960   1323.9538     -5248.7087     -4986.0173     -892.73992      72515.448      131.48056    
     21970   1331.6461     -5249.9659     -4985.7483     -782.44561      72490.307      131.43189    
     21980   1328.8969     -5249.1299     -4985.4577     -580.84887      72466.185      131.39494    
     21990   1314.2254     -5245.8999     -4985.1388     -263.44991      72443.382      131.37021    
     22000   1313.761      -5245.4224     -4984.7534     -105.73497      72422.393      131.35941    
     22010   1335.9921     -5249.3672     -4984.2872     -181.0198       72403.636      131.36416    
     22020   1360.6367     -5253.7786     -4983.8088     -374.38624      72387.256      131.38365    
     22030   1372.0491     -5255.6451     -4983.411      -482.57776      72373.045      131.41394    
     22040   1373.1297     -5255.6213     -4983.1727     -530.59863      72360.663      131.44928    
     22050   1363.3012     -5253.6178     -4983.1193     -476.19039      72349.763      131.48564    
     22060   1361.2686     -5253.3428     -4983.2476     -487.78655      72340.012      131.52212    
     22070   1368.9737     -5255.2009     -4983.5769     -605.82388      72330.98       131.55797    
     22080   1367.6986     -5255.5225     -4984.1515     -721.19173      72322.288      131.59249    
     22090   1356.8181     -5254.1906     -4984.9784     -758.35913      72313.75       131.62546    
     22100   1342.8683     -5252.4745     -4986.0302     -703.60348      72305.253      131.65657    
     22110   1335.2906     -5252.1958     -4987.255      -670.02017      72296.677      131.68432    
     22120   1328.0049     -5252.09       -4988.5948     -576.3882       72287.926      131.70499    
     22130   1319.3328     -5251.7651     -4989.9906     -471.94513      72279.058      131.71628    
     22140   1315.8142     -5252.4507     -4991.3743     -369.59614      72270.234      131.72028    
     22150   1321.0452     -5254.8241     -4992.7098     -378.6015       72261.692      131.72269    
     22160   1326.7673     -5257.2404     -4993.9907     -361.8347       72253.557      131.72809    
     22170   1328.9673     -5258.9136     -4995.2274     -409.54998      72245.933      131.73952    
     22180   1321.6635     -5258.6356     -4996.3987     -455.57557      72238.777      131.75603    
     22190   1315.1674     -5258.4265     -4997.4785     -628.2146       72231.906      131.77324    
     22200   1326.18       -5261.6133     -4998.4802     -977.45206      72224.97       131.78435    
     22210   1340.5125     -5265.4255     -4999.4487     -1334.6359      72217.415      131.7825     
     22220   1342.1535     -5266.7406     -5000.4381     -1651.5315      72208.777      131.76473    
     22230   1331.5828     -5265.6478     -5001.4427     -1726.6572      72198.803      131.73185    
     22240   1318.3881     -5264.0193     -5002.4322     -1714.9465      72187.482      131.68647    
     22250   1317.0178     -5264.6906     -5003.3753     -1685.9754      72174.834      131.62948    
     22260   1319.2488     -5266.0441     -5004.2862     -1657.4873      72160.851      131.55974    
     22270   1305.1385     -5264.1317     -5005.1735     -1424.3974      72145.48       131.47683    
     22280   1281.7037     -5260.2942     -5005.9858     -1139.0767      72128.768      131.38353    
     22290   1270.2688     -5258.7177     -5006.6781     -971.98037      72110.915      131.28377    
     22300   1273.9233     -5260.0096     -5007.245      -972.01873      72092.078      131.18011    
     22310   1271.6219     -5260.0181     -5007.7101     -1047.9022      72072.096      131.07177    
     22320   1264.675      -5259.0121     -5008.0825     -1090.4788      72050.577      130.95549    
     22330   1268.2557     -5260.0023     -5008.3622     -1228.3429      72027.167      130.82658    
     22340   1275.0828     -5261.5576     -5008.5629     -1389.2829      72001.702      130.68291    
     22350   1283.4869     -5263.3806     -5008.7184     -1445.3113      71974.102      130.52388    
     22360   1290.9163     -5264.9949     -5008.8586     -1419.5686      71944.408      130.3492     
     22370   1300.4338     -5267.0361     -5009.0114     -1314.3043      71912.789      130.15933    
     22380   1298.2417     -5266.8062     -5009.2164     -1100.9418      71879.36       129.95497    
     22390   1281.8724     -5263.7922     -5009.4504     -726.32488      71844.297      129.73695    
     22400   1284.3829     -5264.5232     -5009.6832     -525.56532      71808.048      129.50633    
     22410   1297.3544     -5267.3386     -5009.9249     -477.4469       71770.997      129.26276    
     22420   1303.9278     -5268.9445     -5010.2265     -469.68323      71733.345      129.00516    
     22430   1307.0641     -5269.9581     -5010.6179     -537.19872      71695.169      128.73351    
     22440   1305.2551     -5270.1083     -5011.127      -644.75614      71656.41       128.45122    
     22450   1291.9295     -5268.0883     -5011.7509     -663.90456      71616.949      128.16274    
     22460   1277.5781     -5265.9316     -5012.4419     -720.34588      71576.829      127.87066    
     22470   1272.776      -5265.7094     -5013.1724     -849.42222      71536.233      127.5764     
     22480   1262.8458     -5264.4913     -5013.9246     -983.36475      71495.221      127.27887    
     22490   1247.6958     -5262.2157     -5014.655      -1072.6706      71453.702      126.97564    
     22500   1246.524      -5262.6658     -5015.3376     -1169.9895      71411.517      126.66579    
     22510   1253.7125     -5264.733      -5015.9785     -1296.8746      71368.34       126.34896    
     22520   1253.5648     -5265.3197     -5016.5945     -1320.0481      71323.674      126.02346    
     22530   1248.1758     -5264.8348     -5017.1789     -1174.0378      71277.253      125.68763    
     22540   1244.9824     -5264.7363     -5017.714      -1021.4387      71229.259      125.34169    
     22550   1249.9721     -5266.203      -5018.1906     -938.75679      71180.093      124.98711    
     22560   1262.7926     -5269.1949     -5018.6388     -966.62163      71130.244      124.6276     
     22570   1280.1243     -5273.1116     -5019.1166     -1067.3013      71080.031      124.26742    
     22580   1291.1085     -5275.8618     -5019.6874     -1123.5361      71029.492      123.90935    
     22590   1301.7111     -5278.7036     -5020.4255     -1207.8638      70978.711      123.55608    
     22600   1307.3031     -5280.7848     -5021.3971     -1234.0946      70927.757      123.20851    
     22610   1294.5984     -5279.5093     -5022.6424     -1152.306       70876.632      122.86614    
     22620   1266.1465     -5275.3092     -5024.0876     -939.72784      70825.416      122.52835    
     22630   1245.2024     -5272.6827     -5025.6167     -785.28058      70774.256      122.19296    
     22640   1229.8474     -5271.1267     -5027.1074     -730.03066      70723.099      121.8569     
     22650   1211.0418     -5268.735      -5028.4469     -667.10168      70671.924      121.52052    
     22660   1198.8761     -5267.4071     -5029.5329     -637.34114      70620.998      121.18729    
     22670   1203.3385     -5269.099      -5030.3394     -739.99192      70570.802      120.85993    
     22680   1215.3674     -5272.0485     -5030.9022     -844.77081      70521.788      120.53942    
     22690   1224.3192     -5274.1952     -5031.2727     -860.1559       70474.368      120.22777    
     22700   1233.3797     -5276.2211     -5031.5009     -858.52244      70428.733      119.92861    
     22710   1247.6715     -5279.205      -5031.6491     -833.42792      70384.628      119.64466    
     22720   1262.1148     -5282.1888     -5031.7672     -768.04993      70341.514      119.37659    
     22730   1268.3249     -5283.5559     -5031.9021     -666.02227      70298.915      119.1235     
     22740   1276.7191     -5285.4027     -5032.0834     -633.50943      70256.567      118.8826     
     22750   1286.3685     -5287.5667     -5032.3327     -623.2821       70214.317      118.6499     
     22760   1294.012      -5289.4351     -5032.6845     -636.04767      70172.022      118.4222     
     22770   1295.3169     -5290.1656     -5033.1562     -682.34222      70129.572      118.19672    
     22780   1291.0213     -5289.8958     -5033.7386     -802.16937      70086.901      117.9701     
     22790   1291.1676     -5290.6022     -5034.416      -912.56582      70043.972      117.73884    
     22800   1296.7091     -5292.4662     -5035.1805     -1109.3823      70000.725      117.5002     
     22810   1302.0726     -5294.3994     -5036.0496     -1325.3462      69956.849      117.25056    
     22820   1299.014      -5294.7565     -5037.0135     -1384.9497      69911.873      116.98596    
     22830   1280.0855     -5292.0007     -5038.0134     -1183.4098      69865.587      116.70516    
     22840   1258.3038     -5288.6221     -5038.9566     -933.31378      69818.158      116.41122    
     22850   1248.6306     -5287.5337     -5039.7875     -757.1826       69769.871      116.10935    
     22860   1240.6071     -5286.6453     -5040.4911     -612.07302      69720.989      115.80392    
     22870   1223.1239     -5283.7368     -5041.0515     -416.58926      69671.787      115.49698    
     22880   1213.6859     -5282.2734     -5041.4608     -305.27866      69622.506      115.1888     
     22890   1223.2559     -5284.4484     -5041.7369     -394.13114      69573.296      114.87923    
     22900   1238.6149     -5287.686      -5041.9271     -531.22618      69524.227      114.56821    
     22910   1252.1949     -5290.5608     -5042.1074     -665.15875      69475.321      114.25657    
     22920   1258.3789     -5291.9967     -5042.3163     -689.08213      69426.517      113.94669    
     22930   1245.85       -5289.7738     -5042.5793     -521.22513      69377.752      113.64194    
     22940   1221.6331     -5285.2317     -5042.8422     -274.88115      69329.141      113.3451     
     22950   1213.2943     -5283.7797     -5043.0447     -167.22045      69280.867      113.05606    
     22960   1223.211      -5285.8839     -5043.1813     -243.83569      69233.005      112.7715     
     22970   1236.3574     -5288.595      -5043.284      -397.95473      69185.509      112.48738    
     22980   1245.6927     -5290.5582     -5043.395      -433.69535      69138.313      112.20185    
     22990   1249.5199     -5291.4785     -5043.5559     -406.67271      69091.394      111.91592    
     23000   1241.7589     -5290.1528     -5043.7701     -224.02329      69044.788      111.63209    
     23010   1229.763      -5288.0248     -5044.0222     -77.87366       68998.608      111.35267    
     23020   1231.9318     -5288.7169     -5044.284      -95.204929      68952.923      111.07944    
     23030   1248.6414     -5292.3212     -5044.5728     -319.28325      68907.723      110.81493    
     23040   1261.9928     -5295.3512     -5044.9537     -499.02301      68862.883      110.56054    
     23050   1258.5609     -5295.1908     -5045.4743     -475.39326      68818.314      110.31582    
     23060   1234.3609     -5291.0325     -5046.1176     -285.46811      68774.02       110.07857    
     23070   1204.7592     -5285.8455     -5046.804      -96.946178      68730.07       109.84495    
     23080   1191.6859     -5283.8947     -5047.4471      23.765441      68686.565      109.61225    
     23090   1195.74       -5285.2639     -5048.012      -38.953393      68643.715      109.3834     
     23100   1210.4265     -5288.6847     -5048.5187     -222.15207      68601.72       109.16408    
     23110   1229.9008     -5293.0635     -5049.0335     -454.35832      68560.553      108.95699    
     23120   1241.9269     -5296.0411     -5049.6251     -561.71477      68519.913      108.75986    
     23130   1245.9649     -5297.5591     -5050.3418     -609.08814      68479.545      108.56936    
     23140   1246.8534     -5298.6064     -5051.2129     -658.78098      68439.332      108.38355    
     23150   1244.7889     -5299.24       -5052.256      -664.16789      68399.149      108.20065    
     23160   1233.8412     -5298.264      -5053.4523     -567.33637      68358.944      108.01875    
     23170   1211.843      -5295.1685     -5054.7215     -476.00003      68318.803      107.83728    
     23180   1194.6758     -5293.0188     -5055.978      -418.62124      68278.784      107.65632    
     23190   1186.7515     -5292.6021     -5057.1336     -503.40881      68238.882      107.47576    
     23200   1188.3291     -5293.9336     -5058.1521     -674.03045      68198.926      107.29437    
     23210   1196.0909     -5296.3568     -5059.0352     -891.34893      68158.572      107.11016    
     23220   1205.1837     -5298.9375     -5059.8118     -1013.4387      68117.369      106.92149    
     23230   1214.4944     -5301.4775     -5060.5045     -1094.9086      68074.986      106.72845    
     23240   1220.7588     -5303.3558     -5061.1398     -1110.1782      68031.406      106.53291    
     23250   1229.5891     -5305.7065     -5061.7384     -1079.3812      67986.939      106.33769    
     23260   1237.4979     -5307.8668     -5062.3295     -984.18001      67941.861      106.14388    
     23270   1241.6696     -5309.3071     -5062.9421     -857.57463      67896.284      105.94972    
     23280   1239.2347     -5309.4525     -5063.5706     -683.30481      67850.355      105.7527     
     23290   1230.6055     -5308.3649     -5064.1951     -515.01532      67804.362      105.55227    
     23300   1230.6889     -5308.9915     -5064.8052     -447.57759      67758.652      105.35035    
     23310   1236.6626     -5310.7756     -5065.4041     -486.62392      67713.473      105.15012    
     23320   1235.1012     -5311.0887     -5066.027      -473.82739      67668.781      104.95285    
     23330   1211.3078     -5306.9905     -5066.6497     -323.709        67624.397      104.75913    
     23340   1177.7604     -5300.8832     -5067.1986     -131.75042      67580.312      104.57007    
     23350   1164.9658     -5298.7595     -5067.6136     -135.93331      67536.494      104.38545    
     23360   1175.1707     -5301.0667     -5067.896      -388.37296      67492.642      104.20502    
     23370   1184.3124     -5303.0819     -5068.0974     -564.09063      67448.23       104.02839    
     23380   1182.255      -5302.8248     -5068.2485     -576.66995      67402.828      103.85232    
     23390   1180.0128     -5302.4813     -5068.3499     -510.58736      67356.32       103.67271    
     23400   1182.3665     -5302.9991     -5068.4007     -460.95816      67308.872      103.48834    
     23410   1196.7241     -5305.8589     -5068.4117     -444.87102      67260.765      103.30037    
     23420   1219.4231     -5310.39       -5068.439      -485.30305      67212.173      103.10985    
     23430   1229.0888     -5312.4247     -5068.5559     -470.52054      67163.174      102.91786    
     23440   1230.9098     -5313.03       -5068.7999     -350.80618      67113.936      102.72565    
     23450   1223.6306     -5311.9636     -5069.1778     -191.27878      67064.699      102.53299    
     23460   1206.8555     -5309.1262     -5069.6688      1.2175671      67015.656      102.33837    
     23470   1197.5514     -5307.8361     -5070.2247      83.278587      66966.918      102.14143    
     23480   1196.7474     -5308.2704     -5070.8186      84.338813      66918.602      101.94248    
     23490   1203.4508     -5310.2439     -5071.462      -45.484131      66870.805      101.74196    
     23500   1216.7805     -5313.6178     -5072.1911     -307.80116      66823.438      101.54073    
     23510   1228.8705     -5316.8811     -5073.0556     -606.10607      66776.218      101.34091    
     23520   1232.8885     -5318.7202     -5074.0975     -809.64093      66728.825      101.14355    
     23530   1229.9868     -5319.3578     -5075.3108     -953.14845      66681.045      100.94654    
     23540   1215.0699     -5317.7256     -5076.6383     -936.33906      66632.693      100.74615    
     23550   1193.2489     -5314.7303     -5077.9727     -790.63086      66583.708      100.54051    
     23560   1178.9951     -5313.1271     -5079.1976     -680.47974      66534.209      100.33044    
     23570   1178.5737     -5314.1067     -5080.2608     -678.24433      66484.314      100.11722    
     23580   1183.4426     -5315.9923     -5081.1803     -695.94405      66433.971      99.901757    
     23590   1189.4474     -5317.9772     -5081.9738     -668.99141      66383.128      99.686044    
     23600   1199.5492     -5320.693      -5082.6853     -646.30999      66331.926      99.471326    
     23610   1205.9834     -5322.6372     -5083.3528     -608.02878      66280.7        99.257299    
     23620   1212.2257     -5324.5382     -5084.0153     -519.01477      66229.878      99.043802    
     23630   1211.784      -5325.137      -5084.7017     -350.25637      66179.809      98.829677    
     23640   1205.1726     -5324.5331     -5085.4096     -140.07464      66130.68       98.61297     
     23650   1198.9833     -5324.0288     -5086.1333      52.149816      66082.465      98.394004    
     23660   1189.6334     -5322.899      -5086.8587      218.05187      66035.025      98.175079    
     23670   1180.915      -5321.8762     -5087.5658      389.25908      65988.326      97.957886    
     23680   1168.8158     -5320.1338     -5088.224       569.33714      65942.542      97.74468     
     23690   1158.9126     -5318.7572     -5088.8123      675.82638      65897.878      97.538258    
     23700   1149.3834     -5317.3813     -5089.3272      728.29504      65854.309      97.340729    
     23710   1137.2826     -5315.3928     -5089.7397      787.62993      65811.724      97.154053    
     23720   1137.0243     -5315.6382     -5090.0363      718.36079      65770.158      96.980054    
     23730   1147.3898     -5317.8995     -5090.241       518.7868       65729.597      96.81922     
     23740   1158.0548     -5320.1605     -5090.3859      277.83243      65689.798      96.670089    
     23750   1165.3578     -5321.7418     -5090.5181      114.52006      65650.413      96.529232    
     23760   1159.972      -5320.8065     -5090.6515      139.16511      65611.326      96.392836    
     23770   1147.1143     -5318.3734     -5090.7695      261.08977      65572.71       96.25851     
     23780   1141.719      -5317.3766     -5090.8432      307.16256      65534.784      96.12572     
     23790   1151.6432     -5319.3721     -5090.8696      235.56799      65497.488      95.993624    
     23800   1157.8581     -5320.6117     -5090.8761      204.12847      65460.413      95.859403    
     23810   1157.4469     -5320.5304     -5090.8764      180.15018      65423.257      95.721532    
     23820   1165.586      -5322.1553     -5090.8863      27.833798      65385.902      95.581056    
     23830   1172.9712     -5323.6663     -5090.932      -114.50853      65348.135      95.438609    
     23840   1171.2522     -5323.4341     -5091.0409     -188.0523       65309.722      95.294413    
     23850   1164.3946     -5322.2457     -5091.2132     -188.10053      65270.621      95.150622    
     23860   1156.8502     -5320.9673     -5091.4316     -193.07599      65230.899      95.01092     
     23870   1162.3177     -5322.3113     -5091.6908     -373.61709      65190.56       94.877053    
     23880   1180.4569     -5326.2521     -5092.0325     -538.98972      65149.304      94.746023    
     23890   1192.0264     -5329.0411     -5092.526      -615.17651      65106.727      94.611716    
     23900   1182.9987     -5327.948      -5093.2241     -414.1122       65062.592      94.467437    
     23910   1163.4528     -5324.9476     -5094.1019     -110.53261      65017.068      94.309361    
     23920   1152.9156     -5323.8647     -5095.1098      131.7374       64970.509      94.137481    
     23930   1153.3318     -5325.0505     -5096.213       281.64008      64923.281      93.95625     
     23940   1153.478      -5326.2719     -5097.4053      365.38399      64875.718      93.770949    
     23950   1143.3421     -5325.498      -5098.6426      453.20735      64828.131      93.58548     
     23960   1133.3905     -5324.7404     -5099.8595      550.54149      64780.771      93.401865    
     23970   1136.5607     -5326.5143     -5101.0044      516.27787      64733.777      93.220403    
     23980   1151.6102     -5330.5803     -5102.0844      394.69156      64687.084      93.041006    
     23990   1156.7631     -5332.6406     -5103.1223      321.61597      64640.46       92.863369    
     24000   1148.4065     -5331.9587     -5104.0984      492.38649      64593.699      92.685204    
     24010   1144.8114     -5332.125      -5104.978       644.40929      64546.859      92.505351    
     24020   1151.4026     -5334.2194     -5105.7646      699.59555      64500.105      92.327369    
     24030   1164.6545     -5337.5771     -5106.493       641.88225      64453.527      92.157669    
     24040   1175.0399     -5340.3607     -5107.216       572.92006      64407.142      92.000592    
     24050   1171.0913     -5340.3149     -5107.9537      551.33287      64361.029      91.857072    
     24060   1159.9183     -5338.8322     -5108.6878      590.25849      64315.364      91.72646     
     24070   1158.6874     -5339.2994     -5109.3993      533.4155       64270.311      91.607179    
     24080   1157.3157     -5339.7206     -5110.0926      494.06428      64225.957      91.496789    
     24090   1147.3676     -5338.4158     -5110.7616      555.19966      64182.408      91.392174    
     24100   1141.3063     -5337.843      -5111.3915      568.62317      64139.818      91.290116    
     24110   1150.6456     -5340.2981     -5111.9935      445.49843      64098.141      91.188214    
     24120   1158.1147     -5342.399      -5112.6125      344.80391      64057.06       91.084178    
     24130   1156.3584     -5342.7151     -5113.277       320.1055       64016.108      90.974482    
     24140   1156.7277     -5343.5002     -5113.9889      312.34636      63974.775      90.856014    
     24150   1164.2323     -5345.7594     -5114.759       298.56345      63932.643      90.729495    
     24160   1172.4794     -5348.2438     -5115.6071      305.45048      63889.634      90.599431    
     24170   1172.1905     -5349.1212     -5116.5418      394.21485      63846.026      90.469686    
     24180   1163.2304     -5348.3448     -5117.5433      602.97386      63802.278      90.341576    
     24190   1149.6046     -5346.6588     -5118.5608      823.60769      63758.995      90.216252    
     24200   1135.9435     -5344.9219     -5119.5344      983.86923      63716.874      90.095841    
     24210   1125.3902     -5343.7211     -5120.4275      1048.3665      63676.54       89.981996    
     24220   1120.8583     -5343.6222     -5121.2279      1001.0115      63638.256      89.875617    
     24230   1126.7749     -5345.5173     -5121.949       779.6885       63601.85       89.777438    
     24240   1140.9783     -5349.0231     -5122.6366      475.46493      63566.871      89.686434    
     24250   1153.6183     -5352.2443     -5123.3499      177.65533      63532.712      89.598638    
     24260   1157.2055     -5353.7395     -5124.1334      39.766982      63498.714      89.508205    
     24270   1145.535      -5352.2662     -5124.9757      138.31185      63464.51       89.409863    
     24280   1128.8355     -5349.7998     -5125.8227      209.16857      63430.105      89.29924     
     24290   1131.2896     -5351.1149     -5126.6508      193.29686      63395.508      89.173272    
     24300   1135.6437     -5352.7976     -5127.4696      112.99468      63360.646      89.032116    
     24310   1125.6283     -5351.625      -5128.2842      121.71931      63325.405      88.878435    
     24320   1106.5098     -5348.6118     -5129.0644      262.68796      63289.683      88.716062    
     24330   1084.5559     -5344.9398     -5129.7484      415.03448      63253.401      88.548675    
     24340   1074.2673     -5343.4457     -5130.2957      492.70059      63216.362      88.378109    
     24350   1081.8773     -5345.3712     -5130.7113      466.08184      63178.222      88.20451     
     24360   1095.2799     -5348.3544     -5131.0352      349.42657      63138.683      88.028125    
     24370   1110.3313     -5351.618      -5131.3124      269.11903      63097.593      87.849913    
     24380   1119.0168     -5353.6285     -5131.5996      225.64241      63054.989      87.671702    
     24390   1119.2358     -5353.994      -5131.9216      313.93885      63011.008      87.495439    
     24400   1112.2381     -5352.9624     -5132.2784      462.59135      62965.924      87.322594    
     24410   1106.0448     -5352.1062     -5132.6511      576.9135       62920.099      87.154003    
     24420   1108.0084     -5352.8734     -5133.0287      652.08661      62873.885      86.989894    
     24430   1106.8235     -5353.0302     -5133.4205      733.07475      62827.589      86.830724    
     24440   1101.4278     -5352.3578     -5133.8187      809.82769      62781.57       86.678922    
     24450   1106.3873     -5353.7428     -5134.2197      810.25452      62736.25       86.538352    
     24460   1113.6606     -5355.6171     -5134.6509      779.12778      62691.936      86.410644    
     24470   1114.4913     -5356.2697     -5135.1386      777.2607       62648.761      86.292401    
     24480   1115.0412     -5356.9387     -5135.6986      761.54961      62606.667      86.176545    
     24490   1118.0726     -5358.1882     -5136.3466      751.32413      62565.452      86.056415    
     24500   1112.5251     -5357.825      -5137.084       790.71222      62524.898      85.928679    
     24510   1106.9391     -5357.5269     -5137.8943      788.9019       62484.818      85.792106    
     24520   1107.6463     -5358.5332     -5138.7603      772.92003      62445.055      85.64741     
     24530   1106.0552     -5359.1309     -5139.6737      823.62467      62405.48       85.497107    
     24540   1100.5138     -5358.9716     -5140.6139      940.65166      62366.043      85.3444      
     24550   1092.9615     -5358.4003     -5141.541       1068.257       62326.768      85.191681    
     24560   1095.247      -5359.7421     -5142.4294      1166.2355      62287.708      85.040836    
     24570   1104.5782     -5362.4414     -5143.2773      1220.1104      62248.855      84.894357    
     24580   1106.8991     -5363.7268     -5144.1022      1319.076       62210.121      84.753753    
     24590   1101.5697     -5363.4573     -5144.8901      1454.2295      62171.473      84.618156    
     24600   1094.7004     -5362.8193     -5145.6151      1531.4966      62133.027      84.485837    
     24610   1098.1086     -5364.1443     -5146.2638      1421.8018      62094.874      84.355951    
     24620   1113.4292     -5367.7947     -5146.8744      1186.8594      62056.867      84.228689    
     24630   1111.5683     -5368.0338     -5147.4827      1142.9566      62018.72       84.103952    
     24640   1089.5523     -5364.2417     -5148.0589      1368.2271      61980.42       83.981767    
     24650   1065.3349     -5359.9237     -5148.546       1664.8985      61942.242      83.862053    
     24660   1053.2404     -5357.8788     -5148.9008      1811.7074      61904.472      83.744417    
     24670   1049.8375     -5357.424      -5149.1212      1776.0657      61867.265      83.629552    
     24680   1053.6331     -5358.2834     -5149.2276      1662.1572      61830.627      83.518631    
     24690   1069.55       -5361.4706     -5149.2565      1445.6806      61794.381      83.411437    
     24700   1088.486      -5365.24       -5149.2688      1225.2477      61758.146      83.306207    
     24710   1097.3546     -5367.0516     -5149.3208      1146.3523      61721.642      83.201082    
     24720   1091.4656     -5365.9973     -5149.4349      1264.9831      61684.867      83.094239    
     24730   1076.5573     -5363.1921     -5149.5878      1506.6918      61648.061      82.983753    
     24740   1073.2651     -5362.6963     -5149.7451      1660.6232      61611.52       82.868112    
     24750   1078.7209     -5363.9344     -5149.9008      1676.7796      61575.359      82.746717    
     24760   1077.796      -5363.9183     -5150.0682      1671.661       61539.498      82.619773    
     24770   1083.4907     -5365.2477     -5150.2676      1533.4095      61503.777      82.489338    
     24780   1096.437      -5368.0657     -5150.5169      1301.8927      61467.998      82.359105    
     24790   1101.7488     -5369.4653     -5150.8626      1151.7244      61431.979      82.233016    
     24800   1097.5958     -5369.1057     -5151.327       1115.5497      61395.569      82.11302     
     24810   1093.9454     -5368.9581     -5151.9037      1124.1982      61358.669      81.997677    
     24820   1098.8803     -5370.624      -5152.5904      1095.6501      61321.26       81.883713    
     24830   1102.6129     -5372.1746     -5153.4004      1092.2125      61283.372      81.768557    
     24840   1098.7554     -5372.3529     -5154.3441      1149.2139      61245.092      81.651686    
     24850   1083.6026     -5370.3816     -5155.3793      1241.143       61206.481      81.534125    
     24860   1060.1511     -5366.7704     -5156.4212      1408.5668      61167.629      81.417124    
     24870   1039.5106     -5363.6158     -5157.362       1622.3983      61128.796      81.300743    
     24880   1027.1793     -5361.9412     -5158.1341      1826.5413      61090.412      81.183811    
     24890   1029.3411     -5362.9556     -5158.7195      1876.6532      61052.974      81.065487    
     24900   1039.8426     -5365.4714     -5159.1518      1804.6427      61016.75       80.946138    
     24910   1051.2501     -5368.0726     -5159.4896      1743.863       60981.659      80.828079    
     24920   1051.2572     -5368.3535     -5159.769       1804.5182      60947.447      80.714799    
     24930   1042.1813     -5366.7806     -5159.9969      1974.3848      60913.934      80.609368    
     24940   1038.4408     -5366.2028     -5160.1612      2044.717       60881.067      80.512708    
     24950   1045.0822     -5367.6237     -5160.2644      2056.4338      60848.747      80.423638    
     24960   1060.7862     -5370.8141     -5160.3389      1996.4112      60816.827      80.340373    
     24970   1069.4632     -5372.6268     -5160.43        2077.0823      60785.2        80.261376    
     24980   1060.0974     -5370.8958     -5160.5572      2322.4189      60754.049      80.186321    
     24990   1049.3385     -5368.8907     -5160.687       2467.0612      60723.749      80.11478     
     25000   1060.3086     -5371.1931     -5160.8127      2444.8772      60694.549      80.045244    
     25010   1077.1116     -5374.686      -5160.9717      2334.1442      60666.467      79.975622    
     25020   1077.6921     -5375.0354     -5161.2059      2346.8428      60639.397      79.903887    
     25030   1068.3857     -5373.5013     -5161.5183      2428.0676      60613.383      79.83044     
     25040   1068.2604     -5373.8401     -5161.8819      2427.4156      60588.572      79.758081    
     25050   1075.721      -5375.7437     -5162.3052      2291.7902      60564.969      79.689931    
     25060   1079.0216     -5376.9027     -5162.8094      2124.1585      60542.421      79.629158    
     25070   1079.2231     -5377.5315     -5163.3982      1989.0764      60520.658      79.579089    
     25080   1085.4596     -5379.4526     -5164.0819      1887.6882      60499.362      79.540823    
     25090   1088.1285     -5380.7604     -5164.8601      1874.3558      60478.147      79.509919    
     25100   1081.0525     -5380.2118     -5165.7155      2009.6062      60456.702      79.480627    
     25110   1067.5311     -5378.4067     -5166.5933      2165.1829      60434.915      79.449814    
     25120   1051.2827     -5376.0073     -5167.4178      2360.9906      60412.833      79.416943    
     25130   1041.3534     -5374.7538     -5168.1344      2518.9682      60390.643      79.382849    
     25140   1046.0022     -5376.2732     -5168.7314      2501.1364      60368.646      79.349399    
     25150   1057.837      -5379.1406     -5169.2506      2442.694       60347.061      79.317454    
     25160   1061.605      -5380.3777     -5169.7401      2380.0409      60325.913      79.287082    
     25170   1063.3259     -5381.2053     -5170.2262      2313.3759      60305.069      79.257841    
     25180   1065.104      -5382.0571     -5170.7252      2212.2149      60284.467      79.229506    
     25190   1062.2588     -5382.0154     -5171.248       2163.2007      60264.073      79.201637    
     25200   1054.5308     -5381.02       -5171.786       2163.1545      60243.908      79.172669    
     25210   1046.9887     -5380.0616     -5172.3241      2204.4183      60224.061      79.140465    
     25220   1046.408      -5380.4751     -5172.8528      2217.1071      60204.666      79.104909    
     25230   1051.9804     -5382.1157     -5173.3877      2183.1888      60185.907      79.06948     
     25240   1053.5039     -5382.9767     -5173.9464      2155.1347      60167.945      79.039109    
     25250   1046.7175     -5382.2223     -5174.5385      2198.9026      60150.886      79.018095    
     25260   1038.1667     -5381.1313     -5175.1442      2214.3097      60134.874      79.010197    
     25270   1037.6422     -5381.6323     -5175.7493      2132.5316      60119.952      79.017593    
     25280   1040.2298     -5382.754      -5176.3575      2017.3807      60105.877      79.038542    
     25290   1043.0686     -5383.9453     -5176.9856      1915.9169      60092.194      79.068164    
     25300   1042.4129     -5384.473      -5177.6434      1876.7279      60078.487      79.100935    
     25310   1037.438      -5384.1628     -5178.3203      1874.1096      60064.575      79.132036    
     25320   1033.3953     -5384.0453     -5179.0049      1877.2337      60050.448      79.156741    
     25330   1026.847      -5383.4249     -5179.6838      1916.1161      60036.098      79.169969    
     25340   1018.0963     -5382.3376     -5180.3328      1942.6468      60021.538      79.16815     
     25350   1014.0032     -5382.1249     -5180.9321      1936.043       60006.85       79.151281    
     25360   1014.9036     -5382.8478     -5181.4764      1843.049       59992.121      79.122805    
     25370   1018.8742     -5384.1427     -5181.9835      1721.5703      59977.291      79.086893    
     25380   1019.3709     -5384.7294     -5182.4716      1573.4424      59962.185      79.047595    
     25390   1018.418      -5385.0092     -5182.9404      1523.3937      59946.691      79.00885     
     25400   1014.4729     -5384.6869     -5183.4009      1531.4337      59930.768      78.974453    
     25410   1001.7093     -5382.5856     -5183.8321      1666.6418      59914.351      78.947164    
     25420   997.93128     -5382.2102     -5184.2063      1806.7873      59897.481      78.92858     
     25430   1008.8829     -5384.7085     -5184.5317      1808.4066      59880.288      78.918298    
     25440   1018.2129     -5386.8651     -5184.8371      1800.8933      59862.836      78.914461    
     25450   1020.4745     -5387.6367     -5185.16        1857.3404      59845.11       78.914701    
     25460   1021.0334     -5388.1025     -5185.5149      1934.1494      59827.057      78.915399    
     25470   1022.7128     -5388.8284     -5185.9075      2043.0132      59808.658      78.910367    
     25480   1031.074      -5390.9319     -5186.352       2003.5732      59789.943      78.89287     
     25490   1036.4681     -5392.5267     -5186.8766      2011.1188      59770.92       78.862135    
     25500   1031.1678     -5392.0869     -5187.4884      2136.1361      59751.754      78.821462    
     25510   1018.3535     -5390.2255     -5188.1695      2341.517       59732.745      78.774171    
     25520   1008.3575     -5388.9434     -5188.8708      2563.7813      59714.089      78.722539    
     25530   1007.1797     -5389.4037     -5189.5648      2666.0984      59695.858      78.667512    
     25540   1006.1777     -5389.8772     -5190.2371      2751.1572      59678.109      78.609594    
     25550   1007.2749     -5390.74       -5190.8822      2744.2148      59660.99       78.549225    
     25560   1012.4993     -5392.3989     -5191.5046      2619.1303      59644.555      78.487192    
     25570   1017.2707     -5393.9619     -5192.1208      2431.519       59628.632      78.425918    
     25580   1019.8318     -5395.0884     -5192.7391      2322.9767      59612.906      78.368624    
     25590   1022.6227     -5396.2614     -5193.3584      2193.731       59597.185      78.317709    
     25600   1028.724      -5398.1019     -5193.9884      2018.4417      59581.299      78.273427    
     25610   1030.9597     -5399.1925     -5194.6353      1936.2302      59564.99       78.233337    
     25620   1022.2791     -5398.1257     -5195.2909      2035.0465      59548.057      78.19403     
     25630   1003.6041     -5395.0378     -5195.9084      2210.9697      59530.491      78.153323    
     25640   990.01521     -5392.8739     -5196.4407      2336.6445      59512.372      78.109871    
     25650   989.01009     -5393.1119     -5196.8782      2292.9728      59493.687      78.061647    
     25660   988.6626      -5393.3983     -5197.2335      2215.3505      59474.342      78.005871    
     25670   992.76161     -5394.5164     -5197.5382      2141.6166      59454.181      77.940599    
     25680   997.14281     -5395.6663     -5197.8188      2161.3924      59432.959      77.866986    
     25690   994.48163     -5395.4139     -5198.0945      2216.9304      59410.466      77.789419    
     25700   990.54476     -5394.9034     -5198.3652      2361.3543      59386.667      77.713564    
     25710   987.61031     -5394.5775     -5198.6215      2557.5347      59361.768      77.644205    
     25720   982.60419     -5393.8228     -5198.86        2719.4094      59336.152      77.583773    
     25730   980.50094     -5393.6158     -5199.0704      2799.7087      59310.207      77.531778    
     25740   982.26299     -5394.1549     -5199.2599      2792.7858      59284.288      77.485731    
     25750   985.96727     -5395.0653     -5199.4353      2680.0178      59258.66       77.442909    
     25760   989.14249     -5395.8776     -5199.6175      2619.7285      59233.454      77.401816    
     25770   989.18982     -5396.0922     -5199.8227      2587.0347      59208.66       77.361034    
     25780   987.51074     -5395.9955     -5200.0592      2557.8837      59184.13       77.318457    
     25790   986.62637     -5396.0808     -5200.32        2471.2688      59159.67       77.272786    
     25800   985.87826     -5396.2269     -5200.6146      2412.8211      59135.108      77.223716    
     25810   982.04601     -5395.7897     -5200.9377      2335.2114      59110.297      77.171077    
     25820   978.26905     -5395.3901     -5201.2875      2175.1899      59085.031      77.114504    
     25830   983.63039     -5396.8268     -5201.6604      1950.4173      59059.066      77.053206    
     25840   995.0586      -5399.5162     -5202.0824      1724.3195      59032.194      76.986462    
     25850   1001.3002     -5401.2638     -5202.5915      1640.8299      59004.362      76.916162    
     25860   1000.6793     -5401.7567     -5203.2076      1697.5871      58975.769      76.846281    
     25870   994.62356     -5401.2744     -5203.9269      1951.3583      58946.798      76.779469    
     25880   986.0931      -5400.3779     -5204.7229      2266.0951      58917.995      76.716082    
     25890   977.62187     -5399.5309     -5205.5567      2576.8366      58889.922      76.655407    
     25900   975.78726     -5400.004      -5206.3939      2797.8171      58862.989      76.597106    
     25910   981.73996     -5402.0215     -5207.2302      2917.8829      58837.329      76.540477    
     25920   982.27375     -5402.9575     -5208.0603      3053.7656      58812.848      76.484362    
     25930   973.67389     -5402.0471     -5208.8563      3219.0123      58789.415      76.428291    
     25940   965.31795     -5401.1173     -5209.5844      3394.604       58767.04       76.372474    
     25950   955.21729     -5399.7323     -5210.2035      3574.0749      58745.886      76.317808    
     25960   950.81393     -5399.35       -5210.6949      3704.7114      58726.135      76.26636     
     25970   960.31153     -5401.6219     -5211.0824      3652.0144      58707.86       76.220531    
     25980   973.81993     -5404.6296     -5211.4098      3481.8273      58690.949      76.181267    
     25990   980.63378     -5406.2959     -5211.7241      3352.3304      58675.236      76.147991    
     26000   979.87876     -5406.4709     -5212.049       3306.6385      58660.706      76.120274    
     26010   976.67634     -5406.1718     -5212.3852      3251.5662      58647.407      76.09822     
     26020   977.65763     -5406.7148     -5212.7336      3099.2422      58635.283      76.081859    
     26030   982.37492     -5408.0204     -5213.1031      2872.6566      58624.11       76.07194     
     26040   988.71054     -5409.691      -5213.5167      2617.4301      58613.497      76.069379    
     26050   990.41663     -5410.5059     -5213.993       2482.4914      58602.957      76.073436    
     26060   982.41407     -5409.4541     -5214.5291      2395.8401      58592.214      76.081374    
     26070   970.25873     -5407.6077     -5215.0944      2396.5057      58581.258      76.090878    
     26080   961.28062     -5406.3816     -5215.6497      2362.9759      58570.266      76.102114    
     26090   957.53374     -5406.1699     -5216.1815      2278.5228      58559.348      76.116479    
     26100   953.17357     -5405.8048     -5216.6815      2187.1854      58548.422      76.133843    
     26110   947.69827     -5405.1797     -5217.1428      2138.2547      58537.316      76.150981    
     26120   950.415       -5406.1395     -5217.5636      2135.2511      58525.795      76.162411    
     26130   955.93479     -5407.6359     -5217.9647      2173.779       58513.584      76.163122    
     26140   957.0088      -5408.246      -5218.3617      2280.5907      58500.468      76.148991    
     26150   960.19859     -5409.2878     -5218.7707      2406.5982      58486.429      76.1171      
     26160   966.06712     -5410.886      -5219.2044      2471.3052      58471.568      76.067917    
     26170   972.63133     -5412.6687     -5219.6847      2490.3209      58455.994      76.005301    
     26180   979.58378     -5414.5979     -5220.2344      2532.1716      58439.803      75.933584    
     26190   987.46563     -5416.8062     -5220.8788      2508.8292      58423.165      75.856143    
     26200   987.36853     -5417.5415     -5221.6334      2588.178       58406.323      75.777045    
     26210   970.01941     -5414.9279     -5222.4621      2800.2436      58389.618      75.702732    
     26220   940.72404     -5409.9272     -5223.2741      3150.0832      58373.575      75.639694    
     26230   919.14364     -5406.3402     -5223.9689      3342.7735      58358.812      75.59125     
     26240   921.38727     -5407.3345     -5224.518       3212.2333      58345.618      75.557503    
     26250   942.43364     -5411.9597     -5224.9674      2831.457       58333.716      75.537858    
     26260   963.57112     -5416.5758     -5225.3895      2440.4965      58322.507      75.532223    
     26270   975.99155     -5419.5084     -5225.8577      2137.2177      58311.419      75.539586    
     26280   978.95805     -5420.6477     -5226.4084      2017.6255      58299.985      75.556701    
     26290   971.99073     -5419.8948     -5227.0379      2043.8384      58287.868      75.577954    
     26300   957.24464     -5417.6396     -5227.7086      2206.8206      58274.853      75.595807    
     26310   941.39154     -5415.152      -5228.3664      2383.7592      58260.912      75.603009    
     26320   930.98325     -5413.6886     -5228.9682      2452.2012      58246.096      75.595716    
     26330   930.48473     -5414.12       -5229.4985      2376.6225      58230.412      75.574045    
     26340   938.69601     -5416.2316     -5229.9808      2204.6177      58213.712      75.54        
     26350   945.93678     -5418.1362     -5230.4488      2083.9449      58195.731      75.495471    
     26360   947.97262     -5419.0243     -5230.9329      2050.8352      58176.365      75.441796    
     26370   942.60648     -5418.46       -5231.4333      2138.8815      58155.805      75.380683    
     26380   929.39949     -5416.3337     -5231.9276      2383.2891      58134.501      75.315152    
     26390   911.86312     -5413.3059     -5232.3792      2624.5673      58113.037      75.249004    
     26400   903.20672     -5411.9539     -5232.7447      2704.0142      58091.893      75.185473    
     26410   921.16311     -5415.8064     -5233.0344      2522.3685      58071.251      75.125975    
     26420   942.85829     -5420.3877     -5233.3111      2270.5181      58051.016      75.071605    
     26430   950.30433     -5422.1949     -5233.641       2070.1615      58030.954      75.021417    
     26440   948.16679     -5422.188      -5234.0581      2037.3526      58010.74       74.971835    
     26450   935.25373     -5420.1145     -5234.5468      2159.1059      57990.05       74.920206    
     26460   917.31288     -5417.0651     -5235.057       2342.1306      57968.715      74.866512    
     26470   907.88323     -5415.6746     -5235.5375      2445.7086      57946.712      74.811711    
     26480   910.32847     -5416.5952     -5235.973       2392.2501      57924.026      74.75651     
     26490   922.96671     -5419.511      -5236.3812      2253.9652      57900.589      74.701633    
     26500   939.57854     -5423.2361     -5236.8102      2056.726       57876.341      74.647233    
     26510   945.35068     -5424.8763     -5237.3052      1972.9785      57851.302      74.591813    
     26520   938.60111     -5424.1132     -5237.8813      2076.8841      57825.592      74.533532    
     26530   925.76679     -5422.1895     -5238.5041      2294.1318      57799.424      74.472557    
     26540   916.20229     -5420.9169     -5239.1292      2449.3217      57773.028      74.411198    
     26550   909.35837     -5420.1544     -5239.7247      2644.3564      57746.541      74.351816    
     26560   900.95544     -5419.0269     -5240.2644      2830.0291      57720.078      74.296008    
     26570   898.46274     -5419.0012     -5240.7333      2929.4737      57693.789      74.245113    
     26580   900.53009     -5419.8098     -5241.1317      2966.0952      57667.778      74.199075    
     26590   898.95568     -5419.8365     -5241.4709      2979.0191      57642.093      74.156909    
     26600   893.66434     -5419.0682     -5241.7524      3006.3344      57616.844      74.116822    
     26610   892.51228     -5419.0562     -5241.9689      2982.3314      57592.211      74.076076    
     26620   896.35283     -5419.9786     -5242.1294      2942.1641      57568.316      74.032017    
     26630   902.04114     -5421.2322     -5242.2543      2862.7067      57545.162      73.983939    
     26640   910.02336     -5422.9336     -5242.3719      2788.9784      57522.6        73.932475    
     26650   917.33233     -5424.5219     -5242.51        2722.9639      57500.459      73.878519    
     26660   920.72165     -5425.3726     -5242.6882      2674.3185      57478.63       73.824274    
     26670   911.80114     -5423.8231     -5242.9087      2748.7134      57457.153      73.774008    
     26680   894.09011     -5420.5404     -5243.1401      2896.5135      57436.232      73.73152     
     26690   882.9456      -5418.531      -5243.342       2972.1041      57416.1        73.69814     
     26700   886.08967     -5419.2986     -5243.4857      2925.14        57396.867      73.672392    
     26710   895.79213     -5421.3281     -5243.5901      2862.0293      57378.507      73.651399    
     26720   904.12418     -5423.079      -5243.6878      2776.7341      57361.026      73.6343      
     26730   910.75219     -5424.5149     -5243.8086      2786.7209      57344.408      73.622553    
     26740   915.85294     -5425.6948     -5243.9765      2835.8039      57328.608      73.617872    
     26750   921.03801     -5426.9572     -5244.21        2877.9602      57313.563      73.619907    
     26760   927.1417      -5428.4857     -5244.5275      2873.9486      57299.189      73.625559    
     26770   928.26899     -5429.1255     -5244.9436      2893.1767      57285.305      73.630711    
     26780   924.42685     -5428.8761     -5245.4566      2950.1161      57271.733      73.632737    
     26790   916.75133     -5427.9309     -5246.0343      3061.0597      57258.468      73.63095     
     26800   907.98963     -5426.7924     -5246.6342      3207.3424      57245.783      73.625653    
     26810   903.66439     -5426.5243     -5247.2243      3331.4976      57234.12       73.617496    
     26820   906.59956     -5427.6632     -5247.7809      3340.1378      57223.825      73.607611    
     26830   912.96467     -5429.4576     -5248.3124      3321.1613      57214.921      73.596348    
     26840   916.68797     -5430.7167     -5248.8327      3337.5954      57207.246      73.583069    
     26850   915.39206     -5430.9701     -5249.3432      3361.9633      57200.594      73.56705     
     26860   911.08844     -5430.6149     -5249.8419      3376.0775      57194.675      73.54802     
     26870   907.98853     -5430.472      -5250.3141      3329.2013      57189.168      73.526822    
     26880   909.69786     -5431.2686     -5250.7715      3200.7048      57183.769      73.505249    
     26890   917.33705     -5433.256      -5251.2432      2968.0626      57178.202      73.484678    
     26900   925.97614     -5435.4822     -5251.7552      2737.6751      57172.244      73.464989    
     26910   925.55147     -5435.9861     -5252.3434      2656.9866      57165.816      73.444372    
     26920   910.2762      -5433.6035     -5252.9917      2791.9169      57159.043      73.420798    
     26930   891.22283     -5430.4757     -5253.6443      3001.2995      57152.241      73.393781    
     26940   887.04975     -5430.2699     -5254.2665      3039.504       57145.722      73.364655    
     26950   894.0181      -5432.2504     -5254.8644      2912.4335      57139.594      73.335128    
     26960   899.06905     -5433.8624     -5255.4743      2737.1095      57133.845      73.306284    
     26970   897.78569     -5434.2382     -5256.1046      2659.5469      57128.458      73.279252    
     26980   892.77004     -5433.9016     -5256.7632      2684.9869      57123.442      73.255221    
     26990   888.16478     -5433.6519     -5257.4272      2717.4693      57118.78       73.234998    
     27000   884.876       -5433.6628     -5258.0908      2784.4153      57114.393      73.218384    
     27010   881.56496     -5433.6599     -5258.7448      2863.6291      57110.178      73.204321    
     27020   880.03665     -5433.9932     -5259.3813      2936.9996      57106.02       73.19234     
     27030   880.07193     -5434.6263     -5260.0075      3013.5105      57101.843      73.183794    
     27040   879.59831     -5435.1493     -5260.6244      3075.7305      57097.61       73.181149    
     27050   877.80009     -5435.4023     -5261.2342      3102.6772      57093.315      73.185882    
     27060   877.62524     -5435.9696     -5261.8362      3109.9487      57088.965      73.196945    
     27070   878.79113     -5436.8002     -5262.4354      3057.8153      57084.666      73.21174     
     27080   874.92172     -5436.6324     -5263.0354      3073.2944      57080.602      73.227481    
     27090   860.82481     -5434.4209     -5263.6209      3156.2513      57077.086      73.242031    
     27100   845.0116      -5431.8036     -5264.1412      3258.9604      57074.45       73.253797    
     27110   840.58572     -5431.363      -5264.5788      3274.2742      57072.913      73.261617    
     27120   852.48311     -5434.0829     -5264.938       3125.9891      57072.405      73.265496    
     27130   870.91908     -5438.0713     -5265.2685      2951.9984      57072.545      73.266749    
     27140   879.57279     -5440.1499     -5265.6301      2946.4276      57072.928      73.267896    
     27150   873.87763     -5439.4303     -5266.0405      3120.8397      57073.401      73.271133    
     27160   864.61737     -5438.0394     -5266.487       3367.737       57074          73.276806    
     27170   857.80167     -5437.1477     -5266.9476      3533.5991      57074.737      73.284046    
     27180   850.93131     -5436.2325     -5267.3956      3615.8624      57075.517      73.292181    
     27190   848.69311     -5436.2113     -5267.8184      3557.9826      57076.287      73.300925    
     27200   856.06538     -5438.0771     -5268.2215      3359.3349      57077.023      73.311362    
     27210   870.19066     -5441.2914     -5268.6331      3055.2609      57077.688      73.325265    
     27220   883.75364     -5444.4543     -5269.105       2722.1267      57078.135      73.343223    
     27230   886.3559      -5445.5405     -5269.6748      2481.8973      57078.148      73.364925    
     27240   876.30493     -5444.2072     -5270.3357      2369.0919      57077.607      73.390049    
     27250   862.0754      -5442.0868     -5271.0387      2275.2495      57076.488      73.417626    
     27260   850.88475     -5440.5564     -5271.7287      2189.6476      57074.706      73.44585     
     27270   841.25097     -5439.2834     -5272.3672      2132.2536      57072.132      73.47266     
     27280   832.64803     -5438.131      -5272.9217      2161.8151      57068.707      73.496738    
     27290   829.9752      -5438.0603     -5273.3813      2207.4068      57064.469      73.517785    
     27300   832.37891     -5438.9092     -5273.7533      2247.7689      57059.436      73.536243    
     27310   838.24397     -5440.3799     -5274.0603      2278.5798      57053.534      73.552223    
     27320   844.23366     -5441.8403     -5274.3323      2330.0333      57046.621      73.565625    
     27330   845.64141     -5442.3779     -5274.5906      2435.4917      57038.597      73.57689     
     27340   843.12724     -5442.1322     -5274.8437      2561.7881      57029.452      73.587106    
     27350   841.89132     -5442.1333     -5275.09        2633.021       57019.257      73.596826    
     27360   840.76175     -5442.1476     -5275.3284      2648.1244      57008.18       73.605613    
     27370   838.86537     -5442.0055     -5275.5626      2672.9568      56996.422      73.613011    
     27380   836.1522      -5441.6938     -5275.7893      2662.5394      56984.179      73.618472    
     27390   832.63517     -5441.2083     -5276.0015      2649.0388      56971.595      73.620498    
     27400   832.51571     -5441.3829     -5276.1999      2599.3543      56958.777      73.617315    
     27410   839.16827     -5442.8914     -5276.3884      2482.8069      56945.768      73.608914    
     27420   850.19741     -5445.2908     -5276.5994      2299.857       56932.503      73.598196    
     27430   858.16436     -5447.1383     -5276.8662      2189.8725      56918.837      73.589843    
     27440   857.89705     -5447.4335     -5277.2144      2187.0324      56904.652      73.586628    
     27450   850.01461     -5446.2993     -5277.6442      2296.1012      56889.905      73.587853    
     27460   839.99286     -5444.7898     -5278.1232      2471.6298      56874.692      73.590926    
     27470   830.753       -5443.4517     -5278.6184      2634.3298      56859.199      73.59271     
     27480   823.21042     -5442.4387     -5279.102       2769.4457      56843.558      73.590192    
     27490   819.6961      -5442.1897     -5279.5502      2871.5921      56827.842      73.581104    
     27500   823.75996     -5443.4092     -5279.9634      2881.9239      56812.106      73.564299    
     27510   831.86788     -5445.4146     -5280.36        2814.5728      56796.311      73.539762    
     27520   839.96093     -5447.4188     -5280.7585      2690.3857      56780.349      73.508302    
     27530   849.92322     -5449.8278     -5281.1908      2542.8079      56764.107      73.471642    
     27540   858.09907     -5451.9426     -5281.6835      2420.7007      56747.495      73.432406    
     27550   857.18786     -5452.329      -5282.2506      2415.0912      56730.453      73.393507    
     27560   846.87678     -5450.8931     -5282.8606      2513.2329      56713.036      73.356935    
     27570   834.90113     -5449.1122     -5283.4558      2660.1861      56695.383      73.323226    
     27580   828.26762     -5448.3376     -5283.9975      2684.8406      56677.645      73.292544    
     27590   828.67658     -5448.891      -5284.4697      2636.6176      56659.84       73.266107    
     27600   831.34746     -5449.8413     -5284.8901      2544.7182      56641.904      73.246422    
[...]
     48200   576.99232     -5541.4424     -5426.9588      583.50488      55503.232      91.25126     
     48210   581.21628     -5542.0565     -5426.7349      508.33839      55494.047      91.225035    
     48220   586.19499     -5542.7303     -5426.4209      413.33793      55488.457      91.206817    
     48230   590.66994     -5543.2313     -5426.0339      349.84119      55485.84       91.197623    
     48240   594.54279     -5543.551      -5425.5852      318.78263      55485.77       91.197958    
     48250   599.05458     -5543.9484     -5425.0874      289.00366      55488.029      91.20766     
     48260   604.59994     -5544.52       -5424.5587      254.84731      55492.41       91.225965    
     48270   610.24008     -5545.1049     -5424.0245      200.09142      55498.7        91.251685    
     48280   614.80792     -5545.5026     -5423.5159      150.31158      55506.559      91.282943    
     48290   617.52699     -5545.578      -5423.0518      110.61445      55515.632      91.317787    
     48300   618.08479     -5545.2916     -5422.6548      72.990317      55525.646      91.354641    
     48310   617.43171     -5544.8309     -5422.3236      18.272885      55536.326      91.392389    
     48320   617.73494     -5544.6266     -5422.0591     -83.773986      55547.253      91.430145    
     48330   619.55971     -5544.7925     -5421.863      -217.76226      55557.705      91.467277    
     48340   620.69003     -5544.8914     -5421.7376     -340.94869      55566.733      91.50328     
     48350   619.40221     -5544.5903     -5421.6921     -428.61802      55573.418      91.537498    
     48360   615.48298     -5543.8447     -5421.7241     -426.43207      55577.127      91.569369    
     48370   610.06841     -5542.8724     -5421.8261     -380.35396      55577.796      91.598897    
     48380   604.79031     -5541.9818     -5421.9828     -275.78023      55575.731      91.626243    
     48390   601.61622     -5541.5548     -5422.1855     -169.57408      55571.604      91.651567    
     48400   601.83502     -5541.8478     -5422.4351     -93.988049      55566.144      91.674624    
     48410   603.99348     -5542.5923     -5422.7513     -25.403874      55559.913      91.695291    
     48420   605.67276     -5543.347      -5423.1729      37.359521      55553.396      91.714072    
     48430   606.08416     -5543.9854     -5423.7296      76.391782      55547.036      91.731847    
     48440   606.78507     -5544.8518     -5424.457       55.224535      55541.102      91.74921     
     48450   608.94458     -5546.1866     -5425.3633     -33.192938      55535.434      91.766247    
     48460   611.08358     -5547.6771     -5426.4294     -130.45917      55529.431      91.782826    
     48470   610.66924     -5548.7446     -5427.5791     -195.4606       55522.394      91.799108    
     48480   607.52813     -5549.2489     -5428.7066     -195.20049      55513.847      91.815166    
     48490   603.49807     -5549.4554     -5429.7128     -165.39919      55503.727      91.831222    
     48500   599.94172     -5549.5847     -5430.5477     -121.42553      55492.236      91.847588    
     48510   597.23127     -5549.7129     -5431.2137     -90.530933      55479.629      91.864456    
     48520   595.44163     -5549.8792     -5431.735      -73.536076      55466.11       91.881719    
     48530   593.81998     -5549.9663     -5432.1439     -72.766908      55451.792      91.899217    
     48540   591.30948     -5549.7909     -5432.4666     -89.50323       55436.642      91.916581    
     48550   587.61074     -5549.3031     -5432.7127     -98.357107      55420.554      91.933022    
     48560   583.72368     -5548.7069     -5432.8878     -66.21          55403.477      91.947577    
     48570   581.28209     -5548.3195     -5432.9848     -32.301998      55385.56       91.959347    
     48580   581.17842     -5548.3228     -5433.0086     -2.3483124      55367.034      91.967519    
     48590   583.33452     -5548.7014     -5432.9595      38.119003      55348.127      91.971322    
     48600   587.04363     -5549.3269     -5432.849       106.98566      55329.133      91.970224    
     48610   590.89813     -5549.9315     -5432.6889      182.96141      55310.506      91.964693    
     48620   593.74523     -5550.2981     -5432.4905      277.64691      55292.842      91.956119    
     48630   595.44361     -5550.408      -5432.2634      360.2214       55276.816      91.946124    
     48640   596.13587     -5550.2974     -5432.0155      441.64317      55263.079      91.936219    
     48650   596.45662     -5550.0938     -5431.7482      483.71389      55252.262      91.928338    
     48660   597.82661     -5550.0813     -5431.4639      459.38826      55244.715      91.924513    
     48670   600.62167     -5550.3351     -5431.1631      394.49515      55240.342      91.926173    
     48680   604.01865     -5550.7083     -5430.8623      304.52618      55238.735      91.933709    
     48690   606.92344     -5550.991      -5430.5687      237.51773      55239.335      91.946391    
     48700   608.19006     -5550.9712     -5430.2976      216.83618      55241.711      91.962952    
     48710   607.47573     -5550.5841     -5430.0522      241.4876       55245.761      91.982332    
     48720   605.74005     -5550.0198     -5429.8323      288.94558      55251.683      92.004096    
     48730   603.86402     -5549.4463     -5429.631       350.22417      55259.862      92.028581    
     48740   602.46906     -5548.9739     -5429.4354      420.24567      55270.793      92.056474    
     48750   602.54803     -5548.8014     -5429.2472      448.50141      55284.992      92.088272    
     48760   604.41061     -5548.9856     -5429.0619      402.66216      55302.714      92.12353     
     48770   607.91319     -5549.5049     -5428.8862      319.87169      55323.755      92.161055    
     48780   611.76012     -5550.1121     -5428.7301      200.73011      55347.577      92.199777    
     48790   613.67501     -5550.3732     -5428.6113      87.280802      55373.409      92.238843    
     48800   612.02742     -5549.9718     -5428.5368      15.73684       55400.476      92.277219    
     48810   606.65307     -5548.8761     -5428.5074     -9.9956211      55428.296      92.313985    
     48820   599.62325     -5547.4768     -5428.503      -8.9325144      55456.685      92.348698    
     48830   594.66302     -5546.4858     -5428.4962     -30.680223      55485.631      92.381555    
     48840   592.65799     -5546.0618     -5428.4699     -109.61076      55514.953      92.412566    
     48850   592.23844     -5545.9167     -5428.4082     -204.66773      55544.096      92.441225    
     48860   591.71261     -5545.7102     -5428.3059     -278.43324      55572.39       92.466834    
     48870   590.93516     -5545.4041     -5428.1541     -323.87343      55599.297      92.48849     
     48880   590.07108     -5545.0232     -5427.9446     -378.85583      55624.397      92.505275    
     48890   589.2748      -5544.5834     -5427.6628     -395.77538      55647.271      92.516313    
     48900   588.72726     -5544.1095     -5427.2976     -422.004        55667.696      92.521387    
     48910   589.07296     -5543.7184     -5426.8379     -447.3993       55685.448      92.520635    
     48920   590.11615     -5543.3683     -5426.2808     -464.97588      55700.276      92.514391    
     48930   590.83203     -5542.8574     -5425.6279     -453.14567      55711.998      92.503726    
     48940   592.63345     -5542.4846     -5424.8977     -436.51682      55720.609      92.49077     
     48950   597.69647     -5542.7087     -5424.1172     -461.1544       55726.143      92.477588    
     48960   606.30553     -5543.6298     -5423.3301     -530.26121      55728.378      92.464887    
     48970   617.01104     -5545.0269     -5422.603      -628.53691      55726.718      92.451493    
     48980   625.07248     -5546.0142     -5421.9908     -661.16853      55720.451      92.435308    
     48990   625.92568     -5545.7245     -5421.5319     -577.35239      55709.266      92.414858    
     49000   620.43058     -5544.3226     -5421.2203     -407.53808      55693.664      92.390551    
     49010   613.44788     -5542.7351     -5421.0183     -242.68445      55674.747      92.364361    
     49020   608.20481     -5541.5684     -5420.8918     -107.15648      55653.664      92.339099    
     49030   605.26136     -5540.8934     -5420.8009     -16.322415      55631.378      92.317366    
     49040   605.2551      -5540.8275     -5420.7362      24.724801      55608.543      92.30065     
     49050   608.35122     -5541.401      -5420.6954      20.888523      55585.449      92.288744    
     49060   611.37461     -5541.9943     -5420.6888      36.689533      55562.111      92.280215    
     49070   611.04429     -5541.9642     -5420.7243      103.33185      55538.668      92.273623    
     49080   607.85171     -5541.408      -5420.8015      200.62661      55515.611      92.268279    
     49090   603.82069     -5540.7136     -5420.9069      294.56658      55493.628      92.264028    
     49100   599.79298     -5540.0303     -5421.0228      367.50666      55473.402      92.260645    
     49110   596.77403     -5539.5454     -5421.1369      434.43829      55455.504      92.257977    
     49120   597.15        -5539.7245     -5421.2414      443.40956      55440.442      92.255878    
     49130   601.19137     -5540.6228     -5421.3378      389.56331      55428.323      92.253809    
     49140   606.85744     -5541.8547     -5421.4455      302.26061      55418.828      92.250927    
     49150   612.53182     -5543.1196     -5421.5845      221.49254      55411.392      92.246675    
     49160   616.97873     -5544.2043     -5421.7869      148.49212      55405.436      92.241368    
     49170   619.25724     -5544.9404     -5422.0709      123.50364      55400.504      92.235912    
     49180   618.47178     -5545.1719     -5422.4582      151.41026      55396.407      92.231304    
     49190   614.56373     -5544.887      -5422.9487      214.08855      55393.354      92.228428    
     49200   608.29957     -5544.226      -5423.5306      313.02207      55391.847      92.227907    
     49210   601.03458     -5543.4349     -5424.1811      406.72639      55392.596      92.230362    
     49220   595.37886     -5542.9874     -5424.8557      468.43498      55396.306      92.236585    
     49230   592.16664     -5543.0251     -5425.5308      507.07249      55403.488      92.247353    
     49240   591.37667     -5543.5111     -5426.1735      519.2716       55414.498      92.263222    
     49250   593.2601      -5544.4812     -5426.7699      459.62514      55429.465      92.284548    
     49260   596.9797      -5545.7633     -5427.314       341.97787      55448.011      92.310813    
     49270   601.11515     -5547.0809     -5427.8111      209.96657      55469.345      92.341141    
     49280   603.32017     -5547.9719     -5428.2646      75.778575      55492.552      92.375002    
     49290   603.60239     -5548.4418     -5428.6784     -48.673099      55516.7        92.412438    
     49300   603.66545     -5548.8201     -5429.0442     -158.00192      55540.886      92.453506    
     49310   604.47615     -5549.298      -5429.3612     -276.92745      55564.281      92.497596    
     49320   605.49729     -5549.7759     -5429.6365     -379.66071      55586.019      92.543073    
     49330   605.81964     -5550.0776     -5429.8743     -452.32183      55605.316      92.587943    
     49340   604.21121     -5549.9645     -5430.0803     -496.01766      55621.603      92.630433    
     49350   600.6222      -5549.4254     -5430.2534     -471.45062      55634.536      92.669424    
     49360   596.86854     -5548.8182     -5430.391      -445.70602      55644.168      92.704576    
     49370   594.36596     -5548.4216     -5430.4909     -417.77501      55650.695      92.735756    
     49380   593.09037     -5548.2312     -5430.5536     -409.8857       55654.241      92.762982    
     49390   592.74569     -5548.1902     -5430.581      -409.60157      55654.83       92.786271    
     49400   593.49802     -5548.3367     -5430.5782     -439.51124      55652.405      92.805713    
     49410   594.6567      -5548.5439     -5430.5555     -469.17298      55646.739      92.821303    
     49420   595.87416     -5548.7443     -5430.5143     -514.51002      55637.563      92.833152    
     49430   597.96005     -5549.1028     -5430.4589     -559.54629      55624.504      92.841356    
     49440   600.93728     -5549.6367     -5430.4022     -599.21469      55607.185      92.845576    
     49450   602.77846     -5549.9539     -5430.354      -615.87144      55585.264      92.845061    
     49460   601.84543     -5549.7345     -5430.3197     -548.50453      55558.622      92.838965    
     49470   598.91077     -5549.1259     -5430.2934     -412.68808      55527.676      92.827087    
     49480   596.20869     -5548.5604     -5430.2641     -267.2126       55493.314      92.810008    
     49490   594.99581     -5548.2784     -5430.2228     -129.23533      55456.567      92.788955    
     49500   595.08637     -5548.2308     -5430.1572      4.6802981      55418.43       92.765641    
     49510   595.35885     -5548.1982     -5430.0705      118.02049      55379.844      92.741772    
     49520   595.2239      -5548.0624     -5429.9614      225.89769      55341.645      92.71836     
     49530   594.33818     -5547.7537     -5429.8285      323.823        55304.612      92.696007    
     49540   593.77324     -5547.475      -5429.6619      445.7178       55269.523      92.675233    
     49550   594.58507     -5547.4343     -5429.4601      549.48804      55237.262      92.656628    
     49560   597.64208     -5547.7998     -5429.2191      635.29184      55208.631      92.640789    
     49570   603.43618     -5548.6824     -5428.952       680.14192      55184.276      92.628114    
     49580   611.20857     -5549.9451     -5428.6725      698.58058      55164.577      92.618904    
     49590   618.66143     -5551.1631     -5428.4118      691.79745      55149.702      92.613348    
     49600   623.7026      -5551.9526     -5428.2011      682.15436      55139.668      92.611578    
     49610   625.84939     -5552.2441     -5428.0667      681.41147      55134.455      92.613821    
     49620   626.11605     -5552.2614     -5428.031       657.41599      55134.066      92.620233    
     49630   625.44879     -5552.2057     -5428.1077      582.67652      55138.341      92.630487    
     49640   623.4157      -5552.005      -5428.3104      501.59434      55146.849      92.643682    
     49650   619.16498     -5551.4956     -5428.6444      381.12303      55159.007      92.65878     
     49660   612.61874     -5550.6577     -5429.1054      309.48807      55174.038      92.674749    
     49670   604.89914     -5549.7001     -5429.6794      244.5169       55191.38       92.691494    
     49680   598.81034     -5549.1409     -5430.3283      168.28855      55210.587      92.709704    
     49690   596.89468     -5549.4606     -5431.0281      54.486761      55231.084      92.730051    
     49700   597.69006     -5550.3402     -5431.7499     -63.878773      55252.052      92.752787    
     49710   597.2997      -5550.9858     -5432.473      -133.17819      55272.656      92.777697    
     49720   594.76771     -5551.1814     -5433.171      -173.23232      55292.359      92.804901    
     49730   591.3767      -5551.147      -5433.8094     -182.03526      55310.884      92.834838    
     49740   588.06749     -5551.0433     -5434.3623     -201.30877      55328.113      92.867938    
     49750   585.88265     -5551.062      -5434.8145     -185.63623      55343.943      92.903949    
     49760   584.98591     -5551.2396     -5435.17       -182.72003      55358.436      92.942205    
     49770   584.88989     -5551.481      -5435.4304     -182.70483      55371.628      92.981601    
     49780   585.22159     -5551.7274     -5435.6111     -207.32812      55383.477      93.020145    
     49790   585.6124      -5551.9131     -5435.7192     -189.03817      55393.849      93.05493     
     49800   586.57623     -5552.1581     -5435.773      -179.94693      55402.833      93.083392    
     49810   589.00069     -5552.6422     -5435.776      -197.44791      55410.499      93.104017    
     49820   592.49721     -5553.3007     -5435.7407     -233.47141      55416.72       93.116279    
     49830   594.78365     -5553.6976     -5435.684      -239.3603       55421.279      93.120278    
     49840   595.15905     -5553.7028     -5435.6147     -191.84191      55424.155      93.116754    
     49850   594.5062      -5553.4896     -5435.5311     -171.20723      55425.615      93.106754    
     49860   593.89612     -5553.2699     -5435.4324     -151.28284      55425.842      93.091358    
     49870   593.48874     -5553.0751     -5435.3184     -137.64672      55424.974      93.07221     
     49880   593.35319     -5552.911      -5435.1812     -131.04405      55423.114      93.051527    
     49890   593.89153     -5552.8616     -5435.025      -139.3169       55420.29       93.031581    
     49900   595.20296     -5552.9443     -5434.8475     -136.59976      55416.457      93.0144      
     49910   596.88934     -5553.089      -5434.6576     -130.46651      55411.635      93.001824    
     49920   599.45684     -5553.397      -5434.4561     -147.70652      55405.839      92.995259    
     49930   604.01065     -5554.0964     -5434.2521     -197.37849      55398.928      92.99556     
     49940   609.04955     -5554.9091     -5434.0649     -275.51002      55390.531      93.002989    
     49950   612.21181     -5555.3807     -5433.9091     -320.41673      55380.144      93.016936    
     49960   612.03245     -5555.2379     -5433.8019     -287.29214      55367.481      93.03619     
     49970   609.69918     -5554.7106     -5433.7375     -209.03658      55352.729      93.059567    
     49980   607.30012     -5554.21       -5433.7129     -88.780557      55336.455      93.086155    
     49990   604.45273     -5553.6467     -5433.7146      44.069622      55319.506      93.115352    
     50000   600.43968     -5552.8737     -5433.7378      185.26301      55302.857      93.146648    
Loop time of 5163.32 on 1 procs for 20000 steps with 1536 atoms

Performance: 0.335 ns/day, 71.713 hours/ns, 3.873 timesteps/s, 5.950 katom-step/s
137.4% CPU use with 1 MPI tasks x 1 OpenMP threads

MPI task timing breakdown:
Section |  min time  |  avg time  |  max time  |%varavg| %total
---------------------------------------------------------------
Pair    | 5129.4     | 5129.4     | 5129.4     |   0.0 | 99.34
Bond    | 0.007347   | 0.007347   | 0.007347   |   0.0 |  0.00
Neigh   | 4.4016     | 4.4016     | 4.4016     |   0.0 |  0.09
Comm    | 0.58913    | 0.58913    | 0.58913    |   0.0 |  0.01
Output  | 27.296     | 27.296     | 27.296     |   0.0 |  0.53
Modify  | 1.5266     | 1.5266     | 1.5266     |   0.0 |  0.03
Other   |            | 0.1363     |            |       |  0.00

Nlocal:           1536 ave        1536 max        1536 min
Histogram: 1 0 0 0 0 0 0 0 0 0
Nghost:           2463 ave        2463 max        2463 min
Histogram: 1 0 0 0 0 0 0 0 0 0
Neighs:              0 ave           0 max           0 min
Histogram: 1 0 0 0 0 0 0 0 0 0
FullNghs:        40828 ave       40828 max       40828 min
Histogram: 1 0 0 0 0 0 0 0 0 0

Total # of neighbors = 40828
Ave neighs/atom = 26.580729
Ave special neighs/atom = 0
Neighbor list builds = 1993
Dangerous builds = 1927
unfix           3

write_data      structure.end.data
System init for write_data ...
write_restart   structure.end
System init for write_restart ...
                    
Total wall time: 2:08:46
