LAMMPS (2 Aug 2023)
OMP_NUM_THREADS environment is not set. Defaulting to 1 thread. (src/comm.cpp:98)
  using 1 OpenMP thread(s) per MPI task
Reading restart file ...
  restart file = 2 Aug 2023, LAMMPS = 2 Aug 2023
  restoring atom style full from restart
  orthogonal box = (-0.38706367 -0.34859865 -23.970409) to (20.724042 20.685577 84.981345)
  1 by 1 by 1 MPI processor grid
  pair style chgnet/gpu stores no restart info
  1536 atoms
Finding 1-2 1-3 1-4 neighbors ...
  special bond factors lj:    0        0        0       
  special bond factors coul:  0        0        0       
     0 = max # of 1-2 neighbors
     0 = max # of 1-3 neighbors
     0 = max # of 1-4 neighbors
     1 = max # of special neighbors
  special bonds CPU = 0.001 seconds
  read_restart CPU = 0.089 seconds
Resetting peratom fix info from restart file:
  fix style: STORE/ATOM, fix ID: msd_COMPUTE_STORE
All restart file peratom fix info was re-assigned
Neighbor list info ...
  update: every = 1 steps, delay = 10 steps, check = yes
  max neighbors/atom: 2000, page size: 100000
  master list distance cutoff = 6.3
  ghost atom cutoff = 6.3
  binsize = 3.15, bins = 7 7 35
  1 neighbor lists, perpetual/occasional/extra = 1 0 0
  (1) pair chgnet/gpu, perpetual
      attributes: full, newton on
      pair build: full/bin
      stencil: full/bin/3d
      bin: standard
Setting up Verlet run ...
  Unit style    : metal
  Current step  : 20000
  Time step     : 0.001
Per MPI rank memory allocation (min/avg/max) = 6.575 | 6.575 | 6.575 Mbytes
   Step          Temp          PotEng         TotEng         Press          Volume        c_msd[4]   
     20000   1521.5156     -5661.2351     -5359.3446     -7767.4172      48380.541      223.43501    
     20010   1539.1864     -5664.8119     -5359.4153     -7909.2375      48380.82       223.68597    
     20020   1530.7985     -5663.3331     -5359.6008     -7978.3709      48381.535      223.94994    
     20030   1522.42       -5661.9727     -5359.9027     -7872.7462      48382.571      224.22608    
     20040   1502.742      -5658.4497     -5360.2842     -7566.923       48384.128      224.5177     
     20050   1477.6204     -5653.886      -5360.7049     -7575.884       48386.606      224.83231    
     20060   1494.1135     -5657.5679     -5361.1144     -8287.271       48390.145      225.17367    
     20070   1491.1929     -5657.4027     -5361.5287     -8566.0931      48394.179      225.55315    
     20080   1468.3814     -5653.2847     -5361.9368     -7973.412       48398.399      225.93111    
     20090   1484.6445     -5656.8922     -5362.3175     -7686.3448      48403.211      226.28219    
     20100   1508.8807     -5662.1038     -5362.7202     -8112.7636      48408.762      226.60323    
     20110   1506.7112     -5662.1719     -5363.2188     -8555.2706      48414.931      226.92206    
     20120   1531.6496     -5667.776      -5363.8748     -8769.7548      48421.555      227.25456    
     20130   1527.1993     -5667.7844     -5364.7662     -8406.0401      48428.708      227.61298    
     20140   1508.4452     -5665.2367     -5365.9396     -7942.9138      48436.695      228.00889    
     20150   1501.2369     -5665.207      -5367.3401     -7610.4376      48445.558      228.43632    
     20160   1484.651      -5663.5272     -5368.9512     -7462.7708      48455.04       228.88257    
     20170   1482.899      -5664.9192     -5370.6908     -7776.1101      48465.003      229.32545    
     20180   1501.8109     -5670.5321     -5372.5513     -8548.3629      48475.502      229.74261    
     20190   1491.6083     -5670.4343     -5374.4779     -8743.4419      48486.442      230.1421     
     20200   1493.991      -5672.8037     -5376.3745     -8749.4628      48497.767      230.55658    
     20210   1466.9827     -5669.1409     -5378.0705     -8386.5378      48509.246      230.97829    
     20220   1446.8709     -5666.5419     -5379.462      -8207.6651      48520.522      231.43436    
     20230   1469.0411     -5672.0625     -5380.5837     -8467.5352      48531.383      231.92385    
     20240   1455.0905     -5670.1527     -5381.4419     -8867.3136      48542.121      232.37935    
     20250   1442.5546     -5668.3015     -5382.078      -9360.2269      48552.989      232.76973    
     20260   1458.9648     -5671.9918     -5382.5123     -10014.2        48563.709      233.1362     
     20270   1443.1434     -5669.1251     -5382.7848     -10073.507      48573.827      233.48266    
     20280   1430.8001     -5666.8224     -5382.9312     -9663.1933      48583.277      233.79947    
     20290   1418.2472     -5664.3087     -5382.9081     -9202.69        48592.125      234.12103    
     20300   1422.8066     -5665.0126     -5382.7074     -8872.5124      48600.301      234.43759    
     20310   1451.1701     -5670.2992     -5382.3663     -8710.1064      48607.916      234.74852    
     20320   1452.6033     -5670.1915     -5381.9742     -8117.2977      48615.056      235.08602    
     20330   1442.8386     -5667.8163     -5381.5365     -7890.8105      48622.075      235.43939    
     20340   1444.9824     -5667.7357     -5381.0305     -8185.7977      48629.457      235.79053    
     20350   1441.639      -5666.5133     -5380.4715     -8321.3525      48637.644      236.14221    
     20360   1460.9239     -5669.7074     -5379.8392     -8829.8487      48646.804      236.51955    
     20370   1476.4238     -5672.1273     -5379.1837     -9269.6792      48656.351      236.92772    
     20380   1452.8816     -5666.8553     -5378.5828     -8946.8045      48665.7        237.34812    
     20390   1453.0359     -5666.2617     -5377.9586     -8806.1867      48675.009      237.75779    
     20400   1446.1484     -5664.2406     -5377.304      -8563.031       48684.553      238.14153    
     20410   1455.7415     -5665.452      -5376.6121     -8679.636       48694.524      238.50112    
     20420   1450.4598     -5663.6565     -5375.8645     -8828.8586      48704.87       238.83939    
     20430   1465.4653     -5665.9211     -5375.1518     -9165.4194      48715.658      239.15855    
     20440   1469.3059     -5665.9541     -5374.4228     -8855.1857      48726.974      239.45056    
     20450   1459.7972     -5663.3635     -5373.7189     -8094.2171      48738.823      239.7172     
     20460   1474.1198     -5665.5238     -5373.0373     -8061.9609      48751.578      240.00711    
     20470   1490.5187     -5668.1733     -5372.4331     -8584.8019      48765.31       240.34354    
     20480   1484.4633     -5666.4664     -5371.9276     -9048.2568      48779.343      240.72109    
     20490   1473.6392     -5663.8971     -5371.506      -9187.9651      48793.161      241.14054    
     20500   1491.6856     -5667.1501     -5371.1784     -9700.6764      48806.792      241.59242    
     20510   1461.6643     -5660.9601     -5370.9449     -9595.7791      48820.295      242.04437    
     20520   1448.0794     -5658.0824     -5370.7627     -9572.4381      48833.745      242.4622     
     20530   1429.9919     -5654.2694     -5370.5385     -9348.6228      48847.038      242.8507     
     20540   1439.5749     -5655.8562     -5370.2239     -9216.5045      48860.061      243.24178    
     20550   1465.0446     -5660.5269     -5369.841      -9171.3817      48872.674      243.62875    
     20560   1467.6216     -5660.6785     -5369.4813     -8826.144       48884.797      244.02447    
     20570   1475.6775     -5661.9309     -5369.1354     -8288.968       48896.638      244.44336    
     20580   1498.959      -5666.2837     -5368.8688     -7931.057       48908.318      244.85583    
     20590   1512.7406     -5668.9072     -5368.7578     -7760.1504      48920.075      245.24521    
     20600   1512.4651     -5668.9731     -5368.8784     -7907.9026      48932.454      245.61835    
     20610   1510.0943     -5668.9545     -5369.3301     -8217.3512      48945.746      245.98125    
     20620   1470.729      -5661.8914     -5370.0777     -8266.5028      48959.483      246.34588    
     20630   1493.1202     -5667.4662     -5371.2097     -8438.5298      48973.105      246.71552    
     20640   1480.7632     -5666.5448     -5372.7402     -8252.0262      48986.367      247.10831    
     20650   1469.484      -5666.2899     -5374.7232     -7818.4273      48999.649      247.51823    
     20660   1443.4497     -5663.3533     -5376.9522     -7414.8067      49014.01       247.93242    
     20670   1424.9793     -5661.9624     -5379.2261     -7620.8668      49030.525      248.36283    
     20680   1424.5009     -5663.9601     -5381.3187     -8307.7609      49049.058      248.80391    
     20690   1401.9642     -5661.252      -5383.0822     -8287.1507      49068.686      249.25322    
     20700   1406.4868     -5663.577      -5384.5099     -7960.7427      49089.095      249.742      
     20710   1440.6182     -5671.4791     -5385.6398     -8085.9671      49110.139      250.27941    
     20720   1427.7148     -5669.8704     -5386.5913     -7838.9661      49131.731      250.81636    
     20730   1436.3699     -5672.3994     -5387.403      -8144.2453      49154.222      251.3229     
     20740   1440.0572     -5673.8287     -5388.1008     -8789.7598      49177.314      251.8123     
     20750   1427.9303     -5672.05       -5388.7282     -9175.2676      49199.946      252.28662    
     20760   1403.1524     -5667.6661     -5389.2606     -9049.0733      49221.399      252.75926    
     20770   1371.0371     -5661.6775     -5389.6441     -8814.3504      49241.66       253.2468     
     20780   1374.2027     -5662.4788     -5389.8173     -9291.2804      49260.848      253.73887    
     20790   1386.5297     -5664.8979     -5389.7906     -9864.8587      49278.683      254.23019    
     20800   1374.6017     -5662.3564     -5389.6158     -9651.6562      49294.778      254.72463    
     20810   1359.3227     -5658.9529     -5389.2438     -9237.3559      49309.159      255.23024    
     20820   1392.485      -5664.9932     -5388.7042     -9352.4887      49322.15       255.7134     
     20830   1379.529      -5661.7024     -5387.9841     -9262.6548      49333.767      256.12808    
     20840   1398.6845     -5664.6804     -5387.1614     -9685.056       49343.901      256.47525    
     20850   1400.043      -5664.0249     -5386.2363     -9920.0972      49352.621      256.7815     
     20860   1390.1614     -5661.0784     -5385.2504     -9754.8868      49360.39       257.06718    
     20870   1386.6616     -5659.2935     -5384.1599     -9356.8491      49367.514      257.34363    
     20880   1402.4274     -5661.2732     -5383.0115     -9138.8792      49374.32       257.63962    
     20890   1408.2757     -5661.2223     -5381.8002     -8970.9388      49380.731      257.93182    
     20900   1415.618      -5661.5123     -5380.6334     -8637.8559      49386.624      258.18589    
     20910   1441.0333     -5665.4436     -5379.522      -8415.4492      49392.259      258.43025    
     20920   1460.6086     -5668.3711     -5378.5654     -8396.4025      49398.076      258.7042     
     20930   1447.6287     -5665.0591     -5377.8288     -8630.5522      49404.483      259.0152     
     20940   1440.4839     -5663.0903     -5377.2777     -9139.912       49411.688      259.331      
     20950   1408.9891     -5656.3975     -5376.8338     -9295.2521      49419.677      259.62615    
     20960   1385.7862     -5651.3654     -5376.4055     -9027.3355      49428.082      259.88423    
     20970   1404.8911     -5654.6843     -5375.9338     -9028.623       49436.668      260.11838    
     20980   1411.7219     -5655.5599     -5375.4541     -8596.4504      49445.432      260.33189    
     20990   1415.4631     -5655.8621     -5375.0139     -8172.0092      49454.875      260.56678    
     21000   1424.0221     -5657.1573     -5374.611      -8055.238       49465.367      260.89087    
     21010   1433.2385     -5658.6522     -5374.2772     -8211.696       49476.925      261.29164    
     21020   1421.115      -5655.9796     -5374.01       -8554.5063      49489.47       261.70804    
     21030   1454.3589     -5662.4022     -5373.8366     -9377.1068      49502.692      262.12114    
     21040   1430.1823     -5657.5309     -5373.7622     -9401.6097      49516.002      262.54911    
     21050   1385.4637     -5648.6821     -5373.7863     -8950.3718      49528.924      262.99097    
     21060   1398.2315     -5651.2317     -5373.8025     -9003.6589      49541.407      263.41344    
     21070   1404.0235     -5652.323      -5373.7446     -9037.8566      49553.608      263.82371    
     21080   1421.6561     -5655.7972     -5373.7203     -9152.9398      49565.421      264.24851    
     21090   1408.3718     -5653.1818     -5373.7406     -8761.0493      49576.767      264.69627    
     21100   1410.3731     -5653.6091     -5373.7709     -8584.3804      49587.522      265.10615    
     21110   1452.4844     -5662.0862     -5373.8925     -9198.9899      49597.284      265.41233    
     21120   1471.8204     -5666.2306     -5374.2003     -9639.2169      49605.602      265.64935    
     21130   1465.1526     -5665.53       -5374.8228     -9698.7708      49612.452      265.86926    
     21140   1460.2018     -5665.5132     -5375.7882     -9837.5113      49617.688      266.05252    
     21150   1429.8796     -5660.8033     -5377.0947     -9796.5134      49621.082      266.18798    
     21160   1407.879      -5658.0212     -5378.6779     -9894.8137      49622.617      266.30026    
     21170   1410.742      -5660.3767     -5380.4653     -10030.155      49622.035      266.38969    
     21180   1400.5899     -5660.2991     -5382.402      -9667.4098      49618.954      266.47497    
     21190   1399.4546     -5662.0583     -5384.3865     -9166.6456      49613.394      266.55964    
     21200   1386.9256     -5661.434      -5386.2481     -8280.9687      49605.902      266.59194    
     21210   1384.8475     -5662.6351     -5387.8615     -7997.2855      49597.326      266.56143    
     21220   1400.0197     -5666.9681     -5389.1842     -8048.7462      49588.113      266.50685    
     21230   1392.8326     -5666.5961     -5390.2381     -8143.0672      49578.736      266.46019    
     21240   1415.344      -5671.9153     -5391.0908     -8662.4779      49569.103      266.40636    
     21250   1409.4069     -5671.4875     -5391.841      -8849.0313      49558.658      266.3456     
     21260   1372.2924     -5664.7529     -5392.4705     -8809.365       49547.269      266.32322    
     21270   1361.9676     -5663.1731     -5392.9392     -8844.7261      49535.249      266.35564    
     21280   1358.0842     -5662.7065     -5393.2432     -8778.9671      49522.745      266.42054    
     21290   1344.4557     -5660.1727     -5393.4135     -8674.2776      49510.021      266.49755    
     21300   1344.9537     -5660.2822     -5393.4241     -9003.537       49497.547      266.56154    
     21310   1364.0846     -5663.974      -5393.3201     -9463.9833      49484.948      266.58824    
     21320   1380.7962     -5667.1337     -5393.1639     -9543.3032      49471.806      266.55781    
     21330   1413.5869     -5673.5266     -5393.0507     -9403.7568      49457.93       266.46519    
     21340   1426.3487     -5676.0348     -5393.0268     -9050.5343      49443.014      266.34612    
     21350   1417.0959     -5674.3484     -5393.1763     -8772.7921      49426.945      266.20552    
     21360   1420.1682     -5675.2515     -5393.4698     -8986.9459      49409.873      266.01936    
     21370   1410.6336     -5673.7874     -5393.8974     -9428.4643      49392.025      265.77579    
     21380   1397.1108     -5671.6718     -5394.465      -9821.6716      49373.33       265.48017    
     21390   1388.1714     -5670.5486     -5395.1155     -10217.204      49353.753      265.17473    
     21400   1383.6556     -5670.3812     -5395.8441     -10385.804      49333.036      264.89291    
     21410   1359.7462     -5666.3771     -5396.5839     -9974.3937      49310.896      264.61892    
     21420   1355.9        -5666.3126     -5397.2827     -9293.2301      49287.551      264.36909    
     21430   1374.8036     -5670.7284     -5397.9477     -9120.0767      49263.591      264.17256    
     21440   1397.5376     -5675.926      -5398.6345     -9119.0484      49239.318      264.00736    
     21450   1401.3939     -5677.4956     -5399.439      -8693.0538      49214.871      263.84504    
     21460   1382.4817     -5674.6187     -5400.3145     -7942.6434      49190.621      263.68645    
     21470   1391.6233     -5677.3817     -5401.2637     -7744.1372      49167.521      263.54586    
     21480   1391.8122     -5678.417      -5402.2615     -8034.6343      49146.245      263.46275    
     21490   1405.6023     -5682.3025     -5403.4109     -8622.7806      49126.668      263.44306    
     21500   1383.0121     -5679.0619     -5404.6525     -8806.6272      49107.63       263.44167    
     21510   1361.0456     -5675.918      -5405.867      -9075.9718      49088.241      263.41675    
     21520   1359.63       -5676.7789     -5407.0089     -9382.5987      49068.625      263.37367    
     21530   1347.3317     -5675.369      -5408.0391     -9215.9164      49048.823      263.30849    
     21540   1335.5696     -5673.9133     -5408.9172     -9117.9772      49028.87       263.23213    
     21550   1349.5888     -5677.4388     -5409.6611     -9410.123       49009.008      263.12214    
     21560   1341.7626     -5676.4863     -5410.2614     -9594.5087      48989.166      262.94213    
     21570   1317.9869     -5672.2603     -5410.7528     -9382.371       48969.219      262.71009    
     21580   1323.2781     -5673.646      -5411.0887     -9359.0929      48949.073      262.44295    
     21590   1336.9374     -5676.5292     -5411.2616     -9411.4456      48928.541      262.13728    
     21600   1351.1829     -5679.4695     -5411.3754     -9288.3508      48907.648      261.84528    
     21610   1348.7988     -5679.0688     -5411.4478     -9120.8204      48886.659      261.61176    
     21620   1351.9936     -5679.7551     -5411.5002     -9118.3868      48865.663      261.41757    
     21630   1345.1747     -5678.4463     -5411.5444     -9213.1513      48844.47       261.23906    
     21640   1347.669      -5678.9736     -5411.5768     -9579.6069      48822.889      261.11348    
     21650   1344.1964     -5678.3075     -5411.5997     -9914.5568      48800.644      261.04694    
     21660   1333.0331     -5676.0593     -5411.5665     -10031.037      48777.652      260.96744    
     21670   1357.5745     -5680.8658     -5411.5036     -10395.222      48754.18       260.81108    
     21680   1362.4183     -5681.7751     -5411.4518     -10325.236      48730.319      260.57129    
     21690   1361.32       -5681.5704     -5411.465      -9896.1502      48705.931      260.26713    
     21700   1342.0362     -5677.7882     -5411.509      -9278.7257      48680.919      259.93832    
     21710   1318.9456     -5673.2351     -5411.5374     -8871.5603      48655.375      259.60376    
     21720   1323.9408     -5674.1887     -5411.4999     -9117.2755      48629.149      259.26026    
     21730   1324.268      -5674.1184     -5411.3647     -9691.295       48602.202      258.90418    
     21740   1314.8736     -5672.0314     -5411.1416     -9992.8354      48574.45       258.51683    
     21750   1329.3146     -5674.5736     -5410.8186     -10143.987      48545.567      258.07958    
     21760   1324.8919     -5673.2853     -5410.4077     -9509.071       48515.165      257.62087    
     21770   1308.1055     -5669.4346     -5409.8877     -8656.297       48483.44       257.21309    
     21780   1322.3127     -5671.5315     -5409.1657     -8379.1534      48451.379      256.89639    
     21790   1288.8653     -5663.9033     -5408.174      -8028.8656      48419.987      256.67389    
     21800   1324.8992     -5669.8132     -5406.9343     -8454.665       48389.609      256.49874    
     21810   1337.2325     -5670.6628     -5405.3368     -8318.1105      48359.909      256.28102    
     21820   1379.2447     -5677.2382     -5403.5762     -8118.0795      48330.891      255.96028    
     21830   1404.0594     -5680.3319     -5401.7464     -8054.4999      48302.758      255.57839    
     21840   1406.8214     -5679.2098     -5400.0763     -8033.4907      48275.662      255.22732    
     21850   1403.9105     -5677.2495     -5398.6936     -8080.5538      48249.779      254.95043    
     21860   1437.0815     -5682.8097     -5397.6721     -8759.3472      48224.686      254.70517    
     21870   1417.6209     -5678.3221     -5397.0458     -8794.2573      48199.539      254.44426    
     21880   1399.238      -5674.4319     -5396.803      -8493.42        48173.906      254.14831    
     21890   1386.7422     -5671.9435     -5396.794      -8530.8756      48147.838      253.8444     
     21900   1379.523      -5670.739      -5397.0219     -8848.0043      48121.409      253.56203    
     21910   1375.5889     -5670.3424     -5397.4059     -9050.2673      48094.658      253.28792    
     21920   1387.522      -5673.2567     -5397.9525     -9374.2801      48067.744      253.00304    
     21930   1391.4198     -5674.7758     -5398.6981     -9437.6548      48040.431      252.70285    
     21940   1384.2627     -5674.2773     -5399.6198     -9328.4754      48012.587      252.35561    
     21950   1369.8067     -5672.4401     -5400.6508     -9010.4936      47984.509      251.94388    
     21960   1390.3821     -5677.6425     -5401.7707     -9291.5556      47956.402      251.49874    
     21970   1383.1879     -5677.3781     -5402.9338     -9663.7245      47928.322      251.07036    
     21980   1388.1745     -5679.561      -5404.1273     -9966.228       47900.246      250.65058    
     21990   1377.7406     -5678.6356     -5405.2721     -9594.5663      47871.999      250.2048     
     22000   1377.6291     -5679.6907     -5406.3493     -9329.814       47843.85       249.73739    
     22010   1367.2755     -5678.5895     -5407.3024     -9271.1414      47816.478      249.28718    
     22020   1348.8268     -5675.7887     -5408.1621     -9227.2887      47790.194      248.84587    
     22030   1343.9133     -5675.5906     -5408.9389     -9267.2808      47764.995      248.34531    
     22040   1312.6936     -5670.0688     -5409.6116     -9111.3565      47740.719      247.8253     
     22050   1316.0322     -5671.2935     -5410.1738     -9106.47        47717.231      247.35473    
     22060   1344.5958     -5677.4799     -5410.6928     -9307.235       47694.467      246.95333    
     22070   1369.9306     -5683.1008     -5411.287      -9495.0584      47672.182      246.58504    
     22080   1375.8858     -5685.0476     -5412.0522     -9764.0959      47649.917      246.23226    
     22090   1369.1641     -5684.6426     -5412.9808     -9756.8441      47627.309      245.92084    
     22100   1381.7725     -5688.256      -5414.0925     -9893.896       47604.487      245.68342    
     22110   1376.4008     -5688.5094     -5415.4118     -9497.159       47581.369      245.50179    
     22120   1346.6229     -5684.0457     -5416.8564     -8936.0726      47558.182      245.32472    
     22130   1309.2373     -5678.0314     -5418.2599     -8538.3461      47535.254      245.10721    
     22140   1308.7502     -5679.193      -5419.5182     -8801.3349      47512.853      244.85492    
     22150   1338.5241     -5686.3271     -5420.7448     -8966.9554      47490.971      244.6221     
     22160   1314.4012     -5682.7167     -5421.9207     -8395.8546      47469.672      244.45981    
     22170   1312.1637     -5683.3682     -5423.0161     -8087.949       47449.419      244.33769    
     22180   1313.9832     -5684.748      -5424.035      -7983.6711      47430.289      244.18864    
     22190   1337.9876     -5690.5173     -5425.0414     -8164.6054      47412.086      243.95527    
     22200   1324.2749     -5688.8203     -5426.0652     -8098.7553      47394.574      243.64221    
     22210   1305.683      -5686.1506     -5427.0844     -8365.4463      47377.584      243.31431    
     22220   1314.4565     -5688.8859     -5428.0789     -9002.3657      47361.126      242.99708    
     22230   1309.1833     -5688.7954     -5429.0347     -9416.0966      47345.032      242.65944    
     22240   1315.3817     -5690.9619     -5429.9713     -9792.0294      47328.744      242.35004    
     22250   1301.5869     -5689.1594     -5430.9059     -9345.5351      47312.026      242.11144    
     22260   1292.4348     -5688.2076     -5431.7701     -8705.8798      47295.34       241.88663    
     22270   1314.3738     -5693.395      -5432.6044     -8621.9963      47279.221      241.64477    
     22280   1316.9221     -5694.7559     -5433.4596     -8742.4896      47263.965      241.42899    
     22290   1313.1999     -5694.8994     -5434.3417     -8950.7553      47249.645      241.26125    
     22300   1302.8458     -5693.7535     -5435.2503     -9207.4725      47236.01       241.1162     
     22310   1272.0191     -5688.4856     -5436.0988     -9349.7151      47222.775      240.97155    
     22320   1281.4315     -5691.1326     -5436.8782     -9640.3997      47209.759      240.8147     
     22330   1297.7379     -5695.0789     -5437.5891     -9731.9169      47196.753      240.68021    
     22340   1301.6816     -5696.5701     -5438.2978     -9356.7135      47183.747      240.6142     
     22350   1308.1351     -5698.593      -5439.0403     -9080.6306      47170.842      240.60343    
     22360   1304.9528     -5698.7095     -5439.7881     -8914.5121      47158.142      240.59812    
     22370   1305.707      -5699.6565     -5440.5855     -8801.6598      47145.894      240.58308    
     22380   1294.819      -5698.3312     -5441.4206     -8868.188       47134.213      240.53034    
     22390   1289.0736     -5697.9935     -5442.2229     -9414.835       47122.828      240.42496    
     22400   1314.6619     -5703.9111     -5443.0634     -10147.684      47111.347      240.28586    
     22410   1280.3113     -5697.9529     -5443.9208     -10266.802      47099.601      240.11995    
     22420   1272.7772     -5697.2886     -5444.7513     -10676.142      47087.534      239.90998    
     22430   1273.5568     -5698.2074     -5445.5155     -10879.108      47074.819      239.67942    
     22440   1244.2945     -5693.0713     -5446.1854     -10184.013      47061.287      239.45309    
     22450   1247.2841     -5694.1893     -5446.7103     -9702.6884      47047.109      239.24609    
     22460   1268.6251     -5698.8285     -5447.1151     -9519.3962      47032.62       239.06021    
     22470   1270.3624     -5699.5287     -5447.4706     -9558.8032      47018.028      238.90644    
     22480   1253.2395     -5696.4155     -5447.7549     -9724.573       47003.567      238.78529    
     22490   1274.2924     -5700.8236     -5447.9858     -10175.205      46989.117      238.65236    
     22500   1274.5124     -5701.0748     -5448.1933     -10200.786      46974.332      238.52877    
     22510   1273.0531     -5701.0038     -5448.4118     -9962.9583      46959.122      238.46324    
     22520   1269.9095     -5700.5819     -5448.6137     -9877.3368      46943.775      238.43887    
     22530   1263.4696     -5699.5104     -5448.8199     -9887.6753      46928.604      238.40066    
     22540   1258.2158     -5698.6289     -5448.9809     -9599.2718      46913.611      238.33151    
     22550   1291.3315     -5705.3591     -5449.1405     -9480.2923      46898.676      238.26244    
     22560   1287.2316     -5704.7498     -5449.3446     -9128.3095      46883.697      238.19576    
     22570   1275.2883     -5702.6433     -5449.6078     -9051.4646      46868.867      238.12524    
     22580   1287.9204     -5705.5177     -5449.9758     -9499.4533      46854.215      238.06637    
     22590   1268.0977     -5702.0013     -5450.3926     -9715.8758      46839.258      238.00791    
     22600   1269.5218     -5702.7854     -5450.8941     -9964.0144      46823.807      237.94785    
     22610   1265.2986     -5702.521      -5451.4676     -9683.0641      46808.036      237.88344    
     22620   1263.0225     -5702.7004     -5452.0987     -9101.7207      46792.563      237.80482    
     22630   1259.3535     -5702.7206     -5452.8468     -8766.6318      46777.903      237.69859    
     22640   1220.3931     -5695.7926     -5453.6491     -8516.2434      46763.8        237.56583    
     22650   1219.7709     -5696.469      -5454.449      -8759.8474      46750.114      237.42327    
     22660   1238.4388     -5700.9631     -5455.2391     -9100.8172      46736.927      237.30269    
     22670   1239.8739     -5702.0786     -5456.0699     -9295.0912      46724.149      237.20225    
     22680   1250.8572     -5705.183      -5456.995      -9704.9789      46711.748      237.12387    
     22690   1217.7668     -5699.6195     -5457.9971     -9606.452       46699.411      237.04344    
     22700   1191.8214     -5695.4403     -5458.9659     -9466.7797      46686.915      236.94912    
     22710   1202.4734     -5698.4147     -5459.8267     -9375.6004      46674.328      236.8809     
     22720   1228.3558     -5704.3315     -5460.6082     -9246.6098      46661.878      236.84924    
     22730   1224.2719     -5704.262      -5461.3489     -8901.4885      46650.005      236.83296    
     22740   1209.4645     -5702.0083     -5462.0332     -8784.0538      46639.073      236.83129    
     22750   1228.4487     -5706.401      -5462.6592     -9132.9396      46628.736      236.8643     
     22760   1233.4125     -5707.9805     -5463.2538     -9622.0559      46618.234      236.91068    
     22770   1225.7172     -5707.0507     -5463.8508     -10089.731      46607.186      236.93457    
     22780   1207.6716     -5703.9888     -5464.3694     -10304.309      46595.597      236.93831    
     22790   1207.6215     -5704.407      -5464.7976     -10397.065      46583.463      236.96033    
     22800   1223.3607     -5707.8933     -5465.161      -10418.771      46570.555      237.01221    
     22810   1206.8137     -5704.8816     -5465.4325     -10110.043      46556.667      237.07349    
     22820   1205.8381     -5704.8666     -5465.611      -9884.7332      46542.081      237.13555    
     22830   1208.9737     -5705.5148     -5465.6371     -9912.5285      46527.182      237.18986    
     22840   1216.3556     -5706.8979     -5465.5556     -10064.203      46512.14       237.19181    
     22850   1188.5384     -5701.1547     -5465.3316     -9985.8371      46496.672      237.11279    
     22860   1176.0737     -5698.2631     -5464.9132     -9813.3429      46480.522      236.9919     
     22870   1203.7936     -5703.0491     -5464.1992     -9808.5072      46463.531      236.88995    
     22880   1193.1254     -5699.9264     -5463.1932     -9344.6317      46445.813      236.80689    
     22890   1211.9101     -5702.387      -5461.9266     -9335.3202      46427.96       236.74479    
     22900   1223.8269     -5703.2673     -5460.4425     -9291.4451      46410.235      236.68183    
     22910   1236.0547     -5704.1118     -5458.8609     -9434.2904      46392.541      236.58839    
     22920   1236.1843     -5702.5723     -5457.2956     -9255.4221      46374.859      236.48204    
     22930   1251.2284     -5704.1096     -5455.848      -9053.2794      46357.496      236.37544    
     22940   1259.9116     -5704.5721     -5454.5876     -8972.117       46340.561      236.23196    
     22950   1288.1072     -5709.1432     -5453.5643     -9142.0167      46323.953      236.03245    
     22960   1300.141      -5710.804      -5452.8374     -9041.0034      46307.466      235.80378    
     22970   1307.7745     -5711.929      -5452.4478     -8884.6946      46291.439      235.6036     
     22980   1294.4847     -5709.1835     -5452.3392     -8756.1817      46276.648      235.4823     
     22990   1285.2858     -5707.489      -5452.4699     -8821.5093      46263.247      235.46411    
     23000   1286.7845     -5708.1196     -5452.8032     -9158.6115      46250.789      235.52302    
     23010   1284.6511     -5708.187      -5453.2938     -9152.5358      46238.636      235.62321    
     23020   1295.9634     -5711.0977     -5453.96       -9103.6811      46226.787      235.71768    
     23030   1299.8056     -5712.746      -5454.8459     -9211.436       46215.424      235.80959    
     23040   1261.4177     -5706.1501     -5455.8668     -9173.1039      46204.607      235.8951     
     23050   1262.0585     -5707.3671     -5456.9566     -9654.8177      46194.386      235.9575     
     23060   1262.1668     -5708.4895     -5458.0575     -10068.362      46184.306      235.99714    
     23070   1268.2072     -5710.8351     -5459.2046     -10240.682      46173.882      236.00963    
     23080   1252.6965     -5708.9026     -5460.3497     -9789.1122      46163.057      236.00468    
     23090   1229.4322     -5705.3646     -5461.4277     -9112.073       46151.91       236.00168    
     23100   1229.6271     -5706.3761     -5462.4005     -9072.0077      46140.655      235.98974    
     23110   1216.44       -5704.6058     -5463.2467     -9052.3489      46129.628      235.97308    
     23120   1182.4442     -5698.5458     -5463.9319     -9091.6276      46118.886      235.99274    
     23130   1195.6693     -5701.6754     -5464.4375     -9432.2973      46108.422      236.08454    
     23140   1209.8854     -5704.8893     -5464.8307     -9772.7418      46097.963      236.21938    
     23150   1203.5747     -5703.9672     -5465.1607     -9515.2856      46087.246      236.36027    
     23160   1204.2288     -5704.3348     -5465.3986     -9013.4978      46076.776      236.48436    
     23170   1218.619      -5707.3986     -5465.6071     -9071.4137      46066.943      236.55491    
     23180   1226.4326     -5709.1538     -5465.812      -9770.2511      46057.276      236.55977    
     23190   1234.6496     -5711.0405     -5466.0684     -10512.623      46047.038      236.51983    
     23200   1214.4084     -5707.325      -5466.3689     -10707.259      46035.706      236.43619    
     23210   1233.1374     -5711.3954     -5466.7233     -10363.629      46023.193      236.28581    
     23220   1227.8818     -5710.7311     -5467.1017     -9267.3009      46009.869      236.08798    
     23230   1232.8801     -5712.1967     -5467.5756     -8515.2268      45996.437      235.88612    
     23240   1232.7825     -5712.7167     -5468.115      -8497.0457      45983.377      235.72749    
     23250   1214.9331     -5709.7804     -5468.7203     -8504.8148      45970.647      235.6388     
     23260   1189.2726     -5705.2987     -5469.33       -8588.6493      45958.274      235.61542    
     23270   1225.3789     -5713.0876     -5469.9549     -9346.8838      45946.213      235.62969    
     23280   1229.3697     -5714.551      -5470.6265     -9285.358       45933.91       235.59418    
     23290   1223.9527     -5714.2529     -5471.4032     -8775.2755      45921.305      235.49818    
     23300   1185.2025     -5707.3436     -5472.1825     -8214.7732      45908.981      235.40617    
     23310   1186.8019     -5708.4053     -5472.9268     -8301.1925      45897.676      235.35982    
     23320   1215.4159     -5714.7766     -5473.6207     -9007.0735      45887.306      235.33523    
     23330   1210.2485     -5714.4833     -5474.3526     -9380.6733      45877.342      235.28179    
     23340   1167.1429     -5706.6475     -5475.0696     -9482.6525      45867.445      235.17761    
     23350   1169.2964     -5707.6904     -5475.6853     -9619.5993      45857.293      235.02431    
     23360   1168.0253     -5707.9336     -5476.1806     -9481.9565      45846.518      234.84686    
     23370   1189.394      -5712.5687     -5476.5759     -9678.0086      45835.221      234.67335    
     23380   1222.4124     -5719.4923     -5476.9482     -10146.049      45823.709      234.52289    
     23390   1227.9766     -5721.052      -5477.4039     -10236.561      45812.185      234.41356    
     23400   1214.3385     -5718.9188     -5477.9767     -9952.0822      45800.341      234.33782    
     23410   1182.9618     -5713.2931     -5478.5765     -9745.1219      45787.751      234.25505    
     23420   1187.3001     -5714.7374     -5479.1601     -10030.848      45774.526      234.16955    
     23430   1166.7756     -5711.1757     -5479.6707     -10059.475      45760.806      234.12101    
     23440   1167.2371     -5711.7228     -5480.1262     -9904.8438      45746.578      234.08678    
     23450   1173.4468     -5713.3077     -5480.4791     -9947.0274      45732.143      234.01296    
     23460   1182.6004     -5715.4347     -5480.7898     -10046.294      45717.648      233.86929    
     23470   1185.5274     -5716.2964     -5481.0708     -9917.7748      45702.86       233.65493    
     23480   1212.7396     -5721.9998     -5481.3749     -10163.14       45687.525      233.36586    
     23490   1224.502      -5724.7496     -5481.7909     -10271.355      45671.39       233.04214    
     23500   1208.0171     -5722.0115     -5482.3236     -10052.663      45654.524      232.69458    
     23510   1202.0509     -5721.4655     -5482.9613     -9927.3975      45637.22       232.34241    
     23520   1190.258      -5719.849      -5483.6848     -9853.9545      45619.743      232.01792    
     23530   1167.7739     -5716.177      -5484.4739     -9982.2661      45602.032      231.71683    
     23540   1165.1203     -5716.4396     -5485.263      -10357.901      45583.745      231.501      
     23550   1151.778      -5714.5924     -5486.0632     -10367.574      45564.847      231.37295    
     23560   1132.3062     -5711.4716     -5486.8058     -9654.4208      45545.572      231.25762    
     23570   1142.1124     -5714.0955     -5487.484      -9020.0391      45526.265      231.13207    
     23580   1160.5668     -5718.42       -5488.147      -8923.8374      45506.983      230.98489    
     23590   1182.1889     -5723.4569     -5488.8937     -9167.8856      45487.586      230.84061    
     23600   1179.6762     -5723.9077     -5489.8431     -8921.029       45467.907      230.73114    
     23610   1181.0993     -5725.4363     -5491.0893     -8449.5451      45448.15       230.62431    
     23620   1178.6539     -5726.5573     -5492.6954     -8185.0326      45428.515      230.49699    
     23630   1141.7944     -5721.1315     -5494.5831     -8032.1508      45409.172      230.31571    
     23640   1144.1374     -5723.6243     -5496.611      -8716.7389      45390.437      230.11758    
     23650   1146.4941     -5726.0446     -5498.5637     -9593.9475      45372.274      229.95122    
     23660   1142.6269     -5726.9949     -5500.2813     -10155.455      45354.38       229.77357    
     23670   1130.3925     -5725.9233     -5501.6373     -10078.162      45336.48       229.55295    
     23680   1125.2259     -5725.8743     -5502.6133     -10024.897      45318.406      229.31017    
     23690   1134.5414     -5728.385      -5503.2757     -10018.348      45300.05       229.06403    
     23700   1140.3419     -5729.9681     -5503.708      -10050.531      45281.434      228.82247    
     23710   1137.6065     -5729.7059     -5503.9885     -10010.763      45262.343      228.58651    
     23720   1123.8982     -5727.134      -5504.1365     -10136.819      45242.587      228.36471    
     23730   1096.6375     -5721.7126     -5504.1241     -10062.972      45222.363      228.15551    
     23740   1104.9209     -5723.1566     -5503.9245     -10406.656      45201.837      227.95188    
     23750   1133.2322     -5728.4019     -5503.5524     -10685.033      45180.97       227.76371    
     23760   1129.3557     -5727.1729     -5503.0925     -10249.882      45159.751      227.57654    
     23770   1135.8233     -5727.9364     -5502.5728     -9785.8464      45138.126      227.38418    
     23780   1148.567      -5729.8799     -5501.9877     -9400.7767      45116.046      227.19386    
     23790   1150.2537     -5729.5975     -5501.3707     -9000.2254      45093.683      227.0113     
     23800   1171.1861     -5733.1403     -5500.7602     -9212.99        45071.233      226.82779    
     23810   1183.3266     -5734.979      -5500.1901     -9676.2313      45048.881      226.64591    
     23820   1156.3842     -5729.161      -5499.7178     -9583.8277      45026.744      226.45472    
     23830   1149.5163     -5727.3567     -5499.2762     -9782.3839      45004.74       226.25092    
     23840   1161.4366     -5729.2943     -5498.8487     -9862.7409      44982.544      226.04314    
     23850   1156.6341     -5727.9042     -5498.4114     -9533.4666      44960.232      225.84667    
     23860   1196.1858     -5735.376      -5498.0356     -9509.4102      44938.186      225.67608    
     23870   1185.9024     -5733.0399     -5497.7399     -9057.0411      44916.528      225.51824    
     23880   1176.6023     -5731.0499     -5497.5952     -8718.7566      44895.602      225.33661    
     23890   1167.9636     -5729.2903     -5497.5496     -8774.8359      44875.481      225.14246    
     23900   1157.8584     -5727.2831     -5497.5474     -9120.3132      44856.017      224.98677    
     23910   1161.1669     -5728.0005     -5497.6083     -9513.6409      44837.024      224.85686    
     23920   1136.4137     -5723.1398     -5497.659      -9373.2591      44818.566      224.72054    
     23930   1160.1324     -5727.9177     -5497.7308     -9573.5716      44800.839      224.58403    
     23940   1145.8542     -5725.1704     -5497.8165     -9458.2313      44783.584      224.47861    
     23950   1144.3837     -5725.0118     -5497.9497     -9229.4349      44766.693      224.4019     
     23960   1156.7574     -5727.6035     -5498.0863     -9068.2864      44750.292      224.32774    
     23970   1159.9712     -5728.426      -5498.2711     -8822.6444      44734.423      224.24841    
     23980   1166.948      -5730.0916     -5498.5524     -8975.3063      44719.185      224.1765     
     23990   1164.355      -5729.97       -5498.9453     -9380.8674      44704.615      224.10119    
     24000   1157.5339     -5729.1804     -5499.5091     -9896.7809      44690.315      223.98071    
     24010   1134.3934     -5725.2631     -5500.1832     -9911.1226      44675.614      223.79977    
     24020   1126.5046     -5724.4438     -5500.9292     -9529.8557      44660.43       223.58392    
     24030   1144.6996     -5728.8582     -5501.7334     -9100.2344      44645.201      223.35753    
     24040   1154.9236     -5731.8201     -5502.6667     -8952.9374      44630.181      223.15676    
     24050   1145.2054     -5730.9521     -5503.727      -8835.0866      44615.453      223.00182    
     24060   1162.9191     -5735.6759     -5504.9361     -9393.1419      44601.36       222.91198    
     24070   1168.7495     -5738.2009     -5506.3043     -9716.3927      44587.789      222.89237    
     24080   1149.0229     -5735.7491     -5507.7665     -9421.025       44574.617      222.91086    
     24090   1139.3116     -5735.2471     -5509.1913     -9183.6159      44561.747      222.91304    
     24100   1147.4474     -5738.1914     -5510.5214     -9185.8902      44549.114      222.90765    
     24110   1140.8037     -5738.0603     -5511.7085     -9105.7198      44536.442      222.89511    
     24120   1138.5879     -5738.6521     -5512.74       -8943.3423      44523.512      222.87489    
     24130   1131.8621     -5738.1863     -5513.6086     -8525.1476      44510.446      222.84899    
     24140   1137.6705     -5740.0587     -5514.3286     -8326.3527      44497.919      222.81324    
     24150   1133.3126     -5739.8196     -5514.9541     -8304.4167      44486.506      222.74132    
     24160   1112.1306     -5736.1366     -5515.474      -8324.3502      44476.059      222.59558    
     24170   1127.2995     -5739.5757     -5515.9033     -8821.0275      44466.142      222.39992    
     24180   1141.2128     -5742.7244     -5516.2914     -9367.0513      44456.378      222.22601    
     24190   1111.9382     -5737.3037     -5516.6792     -9034.2576      44446.557      222.08934    
     24200   1099.3713     -5735.1346     -5517.0036     -8642.5678      44436.623      221.98094    
     24210   1113.8834     -5738.25       -5517.2396     -8969.9191      44426.627      221.87548    
     24220   1110.1379     -5737.6934     -5517.4261     -9241.2313      44416.762      221.75969    
     24230   1103.4728     -5736.5013     -5517.5565     -9244.5881      44407.295      221.66202    
     24240   1118.1475     -5739.5171     -5517.6606     -9297.6663      44398.189      221.59614    
     24250   1113.9197     -5738.7609     -5517.7432     -9011.936       44389.26       221.52583    
     24260   1104.0975     -5736.8815     -5517.8127     -8768.1348      44380.385      221.42845    
     24270   1111.0891     -5738.3159     -5517.8599     -8538.6443      44371.602      221.30966    
     24280   1112.2478     -5738.5529     -5517.867      -8269.3026      44363.071      221.17266    
     24290   1121.5154     -5740.4081     -5517.8834     -8344.6256      44355.053      221.04791    
     24300   1111.4486     -5738.4353     -5517.908      -8455.1197      44347.606      220.96226    
     24310   1117.3157     -5739.6317     -5517.9403     -9032.3815      44340.76       220.94958    
     24320   1123.423      -5740.901      -5517.9978     -9506.5587      44334.169      220.98695    
     24330   1109.3246     -5738.2053     -5518.0994     -9351.1334      44327.187      221.02893    
     24340   1122.2047     -5740.8772     -5518.2157     -8979.2609      44319.827      221.05536    
     24350   1114.766      -5739.5508     -5518.3652     -8326.3305      44312.703      221.04084    
     24360   1114.0964     -5739.613      -5518.5604     -8064.5435      44306.536      220.98221    
     24370   1102.4497     -5737.5256     -5518.7838     -8199.285       44301.456      220.927      
     24380   1070.9248     -5731.4916     -5519.0048     -8173.2125      44297.078      220.88496    
     24390   1079.3641     -5733.312      -5519.1507     -8650.1256      44293.345      220.81804    
     24400   1072.9857     -5732.0984     -5519.2027     -8936.9346      44290.133      220.73005    
     24410   1077.6712     -5732.9894     -5519.164      -9422.2635      44287.476      220.6504     
     24420   1090.7644     -5735.4496     -5519.0263     -9936.106       44285.152      220.60762    
     24430   1108.6808     -5738.8158     -5518.8376     -10336.616      44282.671      220.59354    
     24440   1112.644      -5739.3962     -5518.6317     -10158.612      44279.695      220.58894    
     24450   1115.3112     -5739.7207     -5518.427      -9834.0649      44276.028      220.58347    
     24460   1143.0536     -5745.1003     -5518.3021     -9960.7159      44271.757      220.57842    
     24470   1124.8794     -5741.4668     -5518.2746     -9960.3945      44267.031      220.5455     
     24480   1118.1283     -5740.2166     -5518.3639     -10092.036      44262.122      220.46062    
     24490   1114.9291     -5739.7672     -5518.5493     -9936.9801      44257.123      220.35215    
     24500   1111.1431     -5739.2886     -5518.8219     -9300.873       44252.262      220.26606    
     24510   1125.8313     -5742.594      -5519.2129     -8715.5579      44248.09       220.22853    
     24520   1111.0233     -5740.1722     -5519.7293     -8010.4755      44244.952      220.26724    
     24530   1119.8529     -5742.6211     -5520.4262     -8088.7823      44242.894      220.38114    
     24540   1097.5351     -5739.0125     -5521.2458     -8375.3127      44241.484      220.47697    
     24550   1074.1645     -5735.2632     -5522.1336     -8647.1297      44240.336      220.49536    
     24560   1065.2502     -5734.3597     -5522.9989     -8856.0442      44239.291      220.4889     
     24570   1076.6769     -5737.467      -5523.8389     -9028.7993      44238.309      220.5325     
     24580   1068.5463     -5736.6328     -5524.6179     -9068.6526      44237.084      220.61966    
     24590   1092.0555     -5742.0604     -5525.381      -9487.6694      44235.354      220.69426    
     24600   1103.2861     -5745.0527     -5526.145      -9760.9289      44233.072      220.74902    
     24610   1102.8286     -5745.8024     -5526.9854     -9901.5511      44230.257      220.81785    
     24620   1085.5856     -5743.2184     -5527.8227     -9737.7264      44227.013      220.87822    
     24630   1105.638      -5748.0392     -5528.6648     -10038.739      44223.564      220.8869     
     24640   1093.5753     -5746.5044     -5529.5234     -10195.31       44219.833      220.86397    
     24650   1070.2127     -5742.6987     -5530.3532     -10397.673      44215.69       220.85183    
     24660   1070.745      -5743.556      -5531.1049     -10718.816      44210.981      220.88626    
     24670   1065.2112     -5743.1206     -5531.7674     -10616.685      44205.505      220.92416    
     24680   1054.6453     -5741.5554     -5532.2987     -10325.342      44199.271      220.92873    
     24690   1070.3599     -5745.111      -5532.7362     -10449.489      44192.366      220.9004     
     24700   1068.091      -5745.0315     -5533.1069     -10377.952      44184.614      220.81271    
     24710   1073.0525     -5746.3594     -5533.4504     -10304.066      44175.853      220.6881     
     24720   1065.0763     -5745.0458     -5533.7194     -9892.5044      44166.193      220.5646     
     24730   1077.9389     -5747.8638     -5533.9853     -9853.2358      44156.169      220.46416    
     24740   1068.7667     -5746.2693     -5534.2107     -9777.2061      44146.272      220.37652    
     24750   1070.9111     -5746.9248     -5534.4407     -9916.1676      44136.551      220.26953    
     24760   1077.4108     -5748.4263     -5534.6525     -10262.697      44126.662      220.1457     
     24770   1076.7153     -5748.5123     -5534.8766     -10363.254      44116.26       220.00679    
     24780   1057.8542     -5744.9908     -5535.0974     -9967.6921      44105.107      219.86628    
     24790   1084.8362     -5750.566      -5535.319      -10225.656      44093.17       219.77688    
     24800   1091.2266     -5752.1067     -5535.5917     -10332.939      44080.196      219.74469    
     24810   1063.4189     -5746.9065     -5535.9089     -10178.478      44066.269      219.70085    
     24820   1080.0903     -5750.547      -5536.2416     -10594.108      44051.559      219.63758    
     24830   1071.5352     -5749.2294     -5536.6214     -10627.025      44035.737      219.56841    
     24840   1043.0025     -5743.9614     -5537.0148     -10253.544      44018.648      219.47029    
     24850   1047.8225     -5745.2563     -5537.3533     -10197.784      44000.649      219.33544    
     24860   1059.1496     -5747.796      -5537.6456     -9953.2166      43982.232      219.14365    
     24870   1058.4193     -5747.9268     -5537.9212     -9471.0335      43963.928      218.91614    
     24880   1059.4893     -5748.4222     -5538.2044     -9138.7285      43946.022      218.69433    
     24890   1051.9969     -5747.2203     -5538.4891     -9042.2764      43928.448      218.47587    
     24900   1064.3281     -5750.0057     -5538.8278     -9311.5593      43911.17       218.30073    
     24910   1058.687      -5749.2477     -5539.189      -9535.2956      43894.03       218.18548    
     24920   1067.7416     -5751.4944     -5539.6392     -9837.8621      43877.024      218.07829    
     24930   1068.0029     -5752.1257     -5540.2187     -9735.1415      43860.275      217.96172    
     24940   1046.4453     -5748.542      -5540.9123     -9400.6016      43844.094      217.86472    
     24950   1048.4376     -5749.7897     -5541.7646     -9545.5634      43828.582      217.81418    
     24960   1056.4485     -5752.4033     -5542.7888     -9861.6049      43813.341      217.78836    
     24970   1060.863      -5754.5156     -5544.0252     -10093.117      43798.084      217.76812    
     24980   1043.9297     -5752.5659     -5545.4353     -9965.3559      43782.909      217.74131    
     24990   1039.6067     -5753.194      -5546.9211     -9981.3371      43767.948      217.69057    
     25000   1024.0226     -5751.5153     -5548.3345     -9619.4768      43753.125      217.60962    
     25010   1019.0591     -5751.7767     -5549.5808     -9317.1605      43738.397      217.50142    
     25020   1036.5496     -5756.2808     -5550.6145     -9365.6229      43723.776      217.36959    
     25030   1040.1781     -5757.8807     -5551.4945     -9216.3941      43709.126      217.24683    
     25040   1025.6661     -5755.7084     -5552.2015     -8659.3816      43694.314      217.17541    
     25050   1052.1304     -5761.5183     -5552.7606     -8807.409       43679.597      217.15806    
     25060   1070.8277     -5765.7228     -5553.2552     -9398.3952      43665.089      217.19515    
     25070   1063.9498     -5764.8885     -5553.7857     -9604.6159      43650.571      217.25599    
     25080   1035.7211     -5759.7883     -5554.2864     -9668.0236      43635.864      217.29188    
     25090   1034.1297     -5759.9019     -5554.7157     -10010.105      43620.964      217.28218    
     25100   1029.9663     -5759.4371     -5555.0771     -10219.986      43605.916      217.22262    
     25110   1013.5497     -5756.4452     -5555.3424     -9999.0292      43590.87       217.11893    
     25120   1012.7541     -5756.4631     -5555.5182     -9972.6577      43576.042      217.01656    
     25130   1010.37       -5756.0676     -5555.5958     -10045.221      43561.401      216.93642    
     25140   1000.7899     -5754.1469     -5555.5758     -10059.937      43546.668      216.8868     
     25150   1000.5827     -5753.9777     -5555.4477     -10165.333      43531.729      216.8835     
     25160   999.84826     -5753.5811     -5555.1968     -9741.6126      43516.629      216.91495    
     25170   1003.5802     -5753.9337     -5554.809      -9217.3544      43501.684      216.93835    
     25180   1032.7385     -5759.2603     -5554.3501     -9127.36        43487.382      216.96322    
     25190   1053.0402     -5762.8176     -5553.8794     -9301.3773      43473.981      217.03819    
     25200   1048.3508     -5761.4718     -5553.464      -9612.6539      43461.263      217.12205    
     25210   1032.8218     -5758.0422     -5553.1156     -9840.7094      43448.884      217.14994    
     25220   1017.558      -5754.6866     -5552.7886     -9778.6336      43436.603      217.10232    
     25230   1015.9018     -5753.9879     -5552.4185     -9654.2215      43424.411      216.97153    
     25240   1014.981      -5753.3789     -5551.9921     -9596.1664      43412.175      216.78393    
     25250   1031.3498     -5756.1793     -5551.5448     -9958.4683      43399.457      216.58701    
     25260   1047.4205     -5758.9105     -5551.0873     -10206.401      43385.865      216.41201    
     25270   1061.9758     -5761.4092     -5550.698      -9970.0923      43371.542      216.28206    
     25280   1047.3046     -5758.1927     -5550.3925     -8778.5162      43356.911      216.21129    
     25290   1053.697      -5759.2474     -5550.1789     -8159.3034      43342.545      216.19764    
     25300   1062.3862     -5760.8416     -5550.0489     -8323.6738      43328.728      216.19881    
     25310   1071.3121     -5762.6239     -5550.0602     -9100.2325      43315.384      216.16344    
     25320   1068.9173     -5762.3481     -5550.2596     -9795.8974      43302.18       216.07862    
     25330   1063.3817     -5761.6406     -5550.6505     -10074.933      43288.698      215.98219    
     25340   1048.8347     -5759.3492     -5551.2454     -9692.5411      43274.799      215.88548    
     25350   1025.8768     -5755.5388     -5551.9902     -9082.169       43260.891      215.78928    
     25360   1021.3555     -5755.4875     -5552.836      -8959.0121      43247.37       215.722      
     25370   1016.1927     -5755.396      -5553.7688     -9464.8121      43234.006      215.69774    
     25380   1037.9026     -5760.7551     -5554.8204     -10262.976      43220.293      215.68348    
     25390   1050.1302     -5764.4048     -5556.0439     -10462.279      43206.065      215.64847    
     25400   1030.1986     -5761.8051     -5557.3989     -9911.8409      43191.22       215.59821    
     25410   1022.1935     -5761.5776     -5558.7598     -9364.4427      43175.727      215.52794    
     25420   1019.4493     -5762.295      -5560.0217     -9251.165       43159.734      215.44701    
     25430   1020.9293     -5763.6936     -5561.1266     -9606.8978      43143.439      215.3765     
     25440   1023.5641     -5765.1522     -5562.0624     -10072.362      43126.604      215.30109    
     25450   999.36342     -5761.1104     -5562.8223     -9972.1967      43109.013      215.17171    
     25460   984.81341     -5758.7479     -5563.3468     -9892.7252      43091.177      215.01505    
     25470   1010.5944     -5764.2378     -5563.7214     -10486.175      43073.355      214.88171    
     25480   1017.7184     -5765.9663     -5564.0364     -10530.435      43055.045      214.77273    
     25490   1011.3224     -5764.9966     -5564.3357     -9906.3521      43035.944      214.66181    
     25500   988.50883     -5760.713      -5564.5787     -9203.2533      43016.51       214.51176    
     25510   996.89888     -5762.5565     -5564.7575     -9349.8157      42997.326      214.32552    
     25520   1021.5782     -5767.6069     -5564.9112     -9899.4937      42978.359      214.1515     
     25530   1020.0699     -5767.4934     -5565.0969     -10066.503      42959.33       213.99754    
     25540   1008.6524     -5765.4741     -5565.343      -9952.2441      42940.042      213.86182    
     25550   988.99443     -5761.8391     -5565.6085     -9658.1882      42920.501      213.72389    
     25560   978.22668     -5759.9117     -5565.8176     -9415.3483      42900.958      213.5458     
     25570   970.67727     -5758.5179     -5565.9217     -9288.4498      42881.735      213.36572    
     25580   1000.4716     -5764.4927     -5565.9848     -9271.766       42862.941      213.21004    
     25590   1006.6451     -5765.7638     -5566.031      -8944.8745      42844.528      213.08619    
     25600   995.11201     -5763.5306     -5566.0862     -8418.3232      42826.775      212.96366    
     25610   1017.7231     -5768.1072     -5566.1763     -8460.8146      42809.863      212.80358    
     25620   1027.2225     -5770.1558     -5566.3401     -8568.5984      42793.426      212.61438    
     25630   1030.3305     -5771.0746     -5566.6423     -8714.9766      42777.222      212.43423    
     25640   1027.9032     -5771.0204     -5567.0697     -8924.7311      42761.308      212.26489    
     25650   1018.5619     -5769.7354     -5567.6381     -9068.6326      42745.912      212.09488    
     25660   1004.8442     -5767.6816     -5568.3062     -9171.193       42731.203      211.95083    
     25670   994.55751     -5766.379      -5569.0446     -9501.7952      42717.041      211.85473    
     25680   982.16834     -5764.674      -5569.7977     -9753.3881      42702.938      211.81002    
     25690   984.93382     -5765.9711     -5570.5461     -10033.006      42688.438      211.79862    
     25700   985.52144     -5766.8225     -5571.2809     -9875.6857      42673.35       211.78575    
     25710   965.02835     -5763.4417     -5571.9662     -9260.9119      42657.648      211.73613    
     25720   972.25443     -5765.4829     -5572.5737     -8867.8949      42641.468      211.64295    
     25730   990.232       -5769.5874     -5573.1112     -8833.953       42625.299      211.52745    
     25740   997.46887     -5771.5664     -5573.6543     -9029.5578      42609.636      211.40602    
     25750   1009.7098     -5774.5869     -5574.246      -9356.9332      42594.378      211.28914    
     25760   1010.0995     -5775.323      -5574.9048     -9749.0817      42579.228      211.16953    
     25770   990.8988      -5772.2146     -5575.6061     -9789.9474      42564.107      211.046      
     25780   983.66415     -5771.4756     -5576.3025     -9893.4299      42549.022      210.93286    
     25790   977.2256      -5770.8406     -5576.945      -9913.0655      42533.865      210.82324    
     25800   982.63272     -5772.5281     -5577.5597     -10010.627      42518.561      210.69185    
     25810   957.30827     -5768.0354     -5578.0917     -9857.6868      42503.091      210.54856    
     25820   965.87086     -5770.1763     -5578.5337     -10044.213      42487.665      210.39206    
     25830   974.68692     -5772.2919     -5578.9        -10214.216      42472.161      210.20436    
     25840   986.70154     -5775.037      -5579.2613     -10227.912      42456.276      210.01014    
     25850   965.1793      -5771.0823     -5579.5769     -9550.6975      42439.917      209.85278    
     25860   975.62237     -5773.4363     -5579.8588     -9477.8957      42423.508      209.73774    
     25870   988.3766      -5776.2352     -5580.1272     -9696.2531      42407.275      209.65237    
     25880   979.69609     -5774.8125     -5580.4268     -9491.9598      42391.15       209.59783    
     25890   957.23225     -5770.6329     -5580.7043     -9245.1763      42375.117      209.58935    
     25900   963.72968     -5772.1633     -5580.9456     -9671.0798      42359.037      209.64112    
     25910   962.87342     -5772.186      -5581.1382     -9952.0052      42342.625      209.68125    
     25920   967.71432     -5773.3337     -5581.3254     -10048.955      42325.766      209.65051    
     25930   964.82803     -5772.9192     -5581.4835     -9790.8548      42308.545      209.56825    
     25940   965.04218     -5773.0964     -5581.6182     -9674.7279      42291.185      209.46741    
     25950   968.85547     -5773.9889     -5581.7541     -9910.7461      42273.822      209.37199    
     25960   960.39187     -5772.4417     -5581.8861     -10130.372      42256.406      209.28957    
     25970   952.33884     -5770.9622     -5582.0045     -10346.038      42238.796      209.18332    
     25980   966.9303      -5773.9585     -5582.1057     -10832.121      42220.856      209.04136    
     25990   982.33405     -5777.1244     -5582.2152     -10905.048      42202.387      208.86658    
     26000   963.18015     -5773.4865     -5582.3777     -10170.927      42183.422      208.6669     
     26010   951.12711     -5771.2489     -5582.5317     -9480.0188      42164.268      208.47362    
     26020   961.67396     -5773.4769     -5582.667      -9176.7625      42145.363      208.30864    
     26030   958.50042     -5772.9694     -5582.7891     -9099.1096      42127.123      208.17829    
     26040   952.22943     -5771.8447     -5582.9088     -9497.3989      42109.735      208.06426    
     26050   947.11794     -5770.9376     -5583.0159     -10138.914      42092.973      207.92964    
     26060   939.34807     -5769.4801     -5583.1        -10447.508      42076.42       207.74379    
     26070   943.22916     -5770.2891     -5583.1389     -10356.805      42059.799      207.51103    
     26080   954.54999     -5772.5453     -5583.1489     -9864.8535      42043.162      207.28327    
     26090   960.34564     -5773.6769     -5583.1305     -9321.2832      42026.938      207.07016    
     26100   987.79876     -5779.1616     -5583.1682     -9265.9693      42011.491      206.85411    
     26110   984.06188     -5778.5837     -5583.3318     -9114.2286      41996.786      206.64919    
     26120   976.49889     -5777.3745     -5583.6231     -8983.525       41982.646      206.48575    
     26130   975.69169     -5777.6492     -5584.058      -9076.7452      41968.965      206.3797     
     26140   959.28652     -5774.9594     -5584.6232     -9280.1449      41955.448      206.31419    
     26150   974.51954     -5778.7141     -5585.3555     -9877.8659      41941.849      206.26116    
     26160   955.47866     -5775.858      -5586.2774     -10002.549      41927.819      206.21353    
     26170   930.43963     -5771.9524     -5587.3398     -9752.113       41913.355      206.15934    
     26180   942.84648     -5775.6138     -5588.5395     -9730.0625      41898.621      206.09307    
     26190   934.65077     -5775.2878     -5589.8397     -9178.1255      41883.561      206.00212    
     26200   933.52482     -5776.3872     -5591.1625     -8757.4109      41868.335      205.8866     
     26210   943.10052     -5779.567      -5592.4424     -8705.4472      41853.24       205.75262    
     26220   958.91746     -5783.9041     -5593.6411     -9115.7548      41838.342      205.59923    
     26230   963.5057      -5785.9105     -5594.7372     -9358.4871      41823.511      205.45795    
     26240   935.00382     -5781.1432     -5595.625      -8909.4991      41808.751      205.34774    
     26250   939.81752     -5782.7681     -5596.2948     -9050.5651      41794.088      205.24523    
     26260   941.72838     -5783.6503     -5596.7979     -9313.169       41779.409      205.14078    
     26270   933.59019     -5782.4172     -5597.1796     -9511.023       41764.681      205.04049    
     26280   927.39694     -5781.4871     -5597.4782     -9454.7811      41749.885      204.94885    
     26290   914.63381     -5779.1631     -5597.6866     -9168.6009      41735.013      204.8493     
     26300   904.33199     -5777.2335     -5597.8011     -8973.8473      41720.226      204.71247    
     26310   897.58336     -5775.8954     -5597.802      -8940.4672      41705.631      204.53774    
     26320   907.0435      -5777.6927     -5597.7223     -9031.806       41691.2        204.32588    
     26330   910.28456     -5778.1725     -5597.559      -9114.5903      41676.906      204.08522    
     26340   922.87385     -5780.4404     -5597.329      -9435.953       41662.989      203.85789    
     26350   942.11516     -5784.0304     -5597.1013     -9777.4811      41649.366      203.66029    
     26360   935.04098     -5782.4333     -5596.9078     -9752.2744      41635.629      203.47564    
     26370   916.80766     -5778.6339     -5596.7261     -9771.8545      41621.711      203.32262    
     26380   933.88793     -5781.847      -5596.5503     -10256.276      41607.641      203.22328    
     26390   951.04623     -5785.0847     -5596.3835     -10432.184      41593.216      203.15914    
     26400   945.39319     -5783.877      -5596.2974     -10064.877      41578.385      203.11767    
     26410   932.93861     -5781.379      -5596.2706     -9658.6385      41563.421      203.05014    
     26420   942.58675     -5783.3167     -5596.2939     -9711.7921      41548.565      202.95287    
     26430   962.766       -5787.4171     -5596.3905     -10000.451      41533.802      202.84451    
     26440   972.75924     -5789.6576     -5596.6482     -10203.867      41518.852      202.72521    
     26450   936.78942     -5782.9435     -5597.071      -9782.1991      41503.513      202.60731    
     26460   918.15072     -5779.7325     -5597.5583     -9657.0229      41487.945      202.50361    
     26470   941.13826     -5784.8284     -5598.0931     -9899.392       41472.44       202.4018     
     26480   942.07564     -5785.6307     -5598.7094     -9672.5352      41457.063      202.28515    
     26490   933.06064     -5784.5519     -5599.4193     -9374.8732      41441.792      202.16937    
     26500   940.10886     -5786.718      -5600.187      -9509.9964      41426.669      202.10316    
     26510   947.47246     -5789.0449     -5601.0528     -9708.145       41411.543      202.09447    
     26520   943.8512      -5789.269      -5601.9954     -9729.2731      41396.359      202.09381    
     26530   941.82331     -5789.8521     -5602.9808     -9817.2689      41381.219      202.04169    
     26540   936.3142      -5789.7653     -5603.9871     -9668.2958      41366.131      201.92089    
     26550   912.84902     -5786.042      -5604.9197     -9223.7662      41351.183      201.77138    
     26560   891.32966     -5782.5582     -5605.7057     -8718.9272      41336.687      201.64735    
     26570   898.6726      -5784.6416     -5606.3321     -8757.5941      41322.863      201.57668    
     26580   921.54196     -5789.7217     -5606.8746     -9170.8606      41309.403      201.57491    
     26590   904.9967      -5786.9308     -5607.3665     -9168.3868      41295.86       201.62423    
     26600   897.99377     -5785.9739     -5607.7991     -9238.8054      41282.076      201.68771    
     26610   911.0666      -5788.9427     -5608.1741     -9206.0199      41267.885      201.7373     
     26620   925.804       -5792.2299     -5608.5371     -8894.4389      41253.316      201.77221    
     26630   924.8665      -5792.4302     -5608.9234     -8337.9143      41238.748      201.78229    
     26640   931.77112     -5794.2404     -5609.3636     -8011.7949      41224.474      201.74833    
     26650   934.45336     -5795.2906     -5609.8817     -7970.7334      41210.676      201.68362    
     26660   920.68527     -5793.1271     -5610.4499     -8105.3429      41197.423      201.60739    
     26670   927.33026     -5795.0746     -5611.079      -8804.7627      41184.615      201.5032     
     26680   920.87291     -5794.4634     -5611.749      -9447.5411      41172.057      201.36613    
     26690   899.09429     -5790.817      -5612.4238     -9680.3149      41159.577      201.21409    
     26700   893.43756     -5790.3303     -5613.0595     -9834.2788      41146.988      201.05567    
     26710   918.60862     -5795.9319     -5613.6668     -10098.046      41133.99       200.89472    
     26720   912.81415     -5795.4009     -5614.2855     -10068.395      41120.411      200.73743    
     26730   903.88766     -5794.2631     -5614.9188     -10090.924      41106.366      200.59354    
     26740   901.51604     -5794.3905     -5615.5168     -9984.3554      41092.062      200.48803    
     26750   892.01638     -5793.0674     -5616.0786     -9550.6932      41077.712      200.41528    
     26760   889.74241     -5793.1201     -5616.5825     -9107.1908      41063.696      200.35595    
     26770   891.40233     -5793.91       -5617.043      -8775.228       41050.339      200.30979    
     26780   888.96922     -5793.8427     -5617.4584     -8420.8543      41037.866      200.26071    
     26790   889.52083     -5794.3356     -5617.8419     -8319.3815      41026.349      200.2175     
     26800   881.31931     -5793.0674     -5618.201      -8115.6974      41015.574      200.17875    
     26810   875.02201     -5792.1233     -5618.5064     -8163.9555      41005.331      200.14644    
     26820   896.37323     -5796.6409     -5618.7876     -8738.2365      40995.361      200.14483    
     26830   881.09569     -5793.88       -5619.058      -8610.3301      40985.329      200.15762    
     26840   884.81538     -5794.8853     -5619.3252     -8796.645       40975.384      200.1338     
     26850   875.42846     -5793.2578     -5619.5603     -8713.5449      40965.657      200.0578     
     26860   871.40063     -5792.6719     -5619.7735     -8588.2555      40956.179      199.95916    
     26870   869.86675     -5792.5441     -5619.95       -8622.5885      40947.012      199.86723    
     26880   857.89037     -5790.2791     -5620.0613     -8488.6239      40938.124      199.79007    
     26890   882.14398     -5795.1599     -5620.1299     -8980.7273      40929.48       199.74828    
     26900   897.99395     -5798.3767     -5620.2018     -9180.9953      40920.954      199.72598    
     26910   892.85471     -5797.4813     -5620.3262     -8898.8847      40912.714      199.69369    
     26920   892.69504     -5797.6227     -5620.4992     -8443.6286      40905.163      199.64657    
     26930   898.26242     -5798.9714     -5620.7433     -8340.0491      40898.433      199.58497    
     26940   899.95953     -5799.6343     -5621.0694     -8490.0911      40892.316      199.511      
     26950   895.54722     -5799.182      -5621.4926     -8840.01        40886.711      199.44474    
     26960   891.77895     -5798.9777     -5622.0359     -9418.9461      40881.585      199.41274    
     26970   866.94655     -5794.6436     -5622.6289     -9504.5658      40876.627      199.39789    
     26980   857.72862     -5793.4307     -5623.245      -9354.4558      40871.64       199.37188    
     26990   853.24018     -5793.1263     -5623.8313     -9158.235       40866.588      199.31403    
     27000   867.29737     -5796.483      -5624.3988     -9011.7309      40861.44       199.22626    
     27010   887.58352     -5801.1196     -5625.0103     -9259.9819      40856.034      199.13948    
     27020   866.44979     -5797.5963     -5625.6803     -9167.0783      40850.2        199.05054    
     27030   845.80379     -5794.158      -5626.3384     -9198.2176      40843.968      198.94624    
     27040   855.09186     -5796.6222     -5626.9597     -9619.0942      40837.312      198.85676    
     27050   855.13166     -5797.1946     -5627.5242     -9647.0911      40830.322      198.80353    
     27060   858.91118     -5798.4928     -5628.0725     -9556.0865      40823.069      198.74713    
     27070   845.56079     -5796.3409     -5628.5696     -9156.7623      40815.56       198.6454     
     27080   855.43522     -5798.7477     -5629.0171     -9167.2297      40808.029      198.51849    
     27090   853.84003     -5798.8334     -5629.4193     -9179.1641      40800.403      198.39365    
     27100   837.47257     -5795.933      -5629.7664     -9159.1805      40792.39       198.28595    
     27110   841.16735     -5796.9518     -5630.0521     -9249.243       40783.888      198.21958    
     27120   836.12004     -5796.1414     -5630.2432     -9217.8685      40775.112      198.20117    
     27130   842.64077     -5797.5604     -5630.3684     -9470.5264      40766.388      198.19089    
     27140   839.83709     -5797.0616     -5630.4259     -9453.4215      40757.673      198.16374    
     27150   841.23305     -5797.3473     -5630.4346     -9364.2447      40748.715      198.12496    
     27160   854.08708     -5799.8654     -5630.4022     -9373.6012      40739.347      198.08039    
     27170   863.58991     -5801.7114     -5630.3628     -9261.0396      40729.558      198.04143    
     27180   863.07139     -5801.6034     -5630.3577     -9082.3689      40719.514      198.0037     
     27190   846.14266     -5798.254      -5630.3672     -8870.6432      40709.414      197.94347    
     27200   846.65035     -5798.3514     -5630.3639     -9272.1039      40699.312      197.85385    
     27210   851.65195     -5799.3347     -5630.3548     -10279.037      40688.921      197.74722    
     27220   843.73088     -5797.7571     -5630.3488     -10972.238      40677.695      197.62109    
     27230   846.59977     -5798.3159     -5630.3384     -11252.384      40665.327      197.48711    
     27240   848.1007      -5798.6041     -5630.3288     -11028.901      40651.7        197.36302    
     27250   856.77609     -5800.3246     -5630.3279     -10768.229      40636.854      197.27633    
     27260   870.53731     -5803.0964     -5630.3694     -10483.655      40620.839      197.24572    
     27270   873.00316     -5803.6864     -5630.4701     -10000.977      40603.715      197.24797    
     27280   868.70945     -5803.0023     -5630.6379     -9568.4725      40585.643      197.2148     
     27290   855.66554     -5800.5989     -5630.8226     -9196.1177      40566.868      197.09373    
     27300   849.30351     -5799.5083     -5630.9943     -9104.3239      40547.733      196.89392    
     27310   852.36737     -5800.2773     -5631.1554     -9273.0227      40528.449      196.65416    
     27320   857.45133     -5801.4448     -5631.3142     -9505.3526      40509.115      196.39974    
     27330   876.67216     -5805.4618     -5631.5175     -9764.5398      40489.651      196.14381    
     27340   880.65945     -5806.5593     -5631.8239     -9587.1299      40469.786      195.90535    
     27350   865.07649     -5803.8625     -5632.219      -9114.9752      40449.647      195.69642    
     27360   850.47679     -5801.4152     -5632.6684     -8955.698       40429.619      195.51211    
     27370   846.53221     -5801.0889     -5633.1248     -9007.2725      40409.854      195.35988    
     27380   849.93096     -5802.2205     -5633.582      -9169.331       40390.398      195.21222    
     27390   857.88729     -5804.3071     -5634.09       -9260.0825      40371.105      195.03809    
     27400   860.47749     -5805.3823     -5634.6513     -9246.5128      40351.71       194.8479     
     27410   873.48093     -5808.6207     -5635.3096     -9375.7545      40332.008      194.65026    
     27420   857.84196     -5806.2554     -5636.0472     -9076.5123      40312.032      194.43581    
     27430   830.58262     -5801.5858     -5636.7863     -8705.2536      40292.271      194.2341     
     27440   830.23445     -5802.2032     -5637.4728     -8582.3159      40273.044      194.07608    
     27450   834.28689     -5803.649      -5638.1146     -8514.3883      40254.335      193.94232    
     27460   830.54996     -5803.5095     -5638.7165     -8271.7059      40236.112      193.78503    
     27470   829.05824     -5803.7604     -5639.2633     -8153.6093      40218.647      193.59207    
     27480   834.76484     -5805.4109     -5639.7816     -8542.7427      40202.233      193.37776    
     27490   834.93027     -5805.9551     -5640.293      -8906.977       40186.661      193.19817    
     27500   839.15848     -5807.3042     -5640.8031     -9303.695       40171.527      193.09139    
     27510   850.83895     -5810.1713     -5641.3526     -9798.0123      40156.368      193.0279     
     27520   852.14398     -5811.0385     -5641.9609     -9933.1007      40140.709      192.94785    
     27530   847.9422      -5810.8612     -5642.6173     -9672.0901      40124.361      192.82518    
     27540   848.21985     -5811.616      -5643.317      -9505.8566      40107.497      192.65843    
     27550   849.41634     -5812.5828     -5644.0464     -9437.5722      40090.398      192.4577     
     27560   852.75561     -5814.0081     -5644.8091     -9363.7724      40073.135      192.24073    
     27570   853.48294     -5814.9463     -5645.603      -9299.4363      40055.693      192.03322    
     27580   836.32707     -5812.3477     -5646.4084     -9071.0416      40038.177      191.8381     
     27590   815.05058     -5808.8679     -5647.1502     -8982.7583      40020.62       191.67304    
     27600   815.28163     -5809.5601     -5647.7965     -9415.4963      40002.869      191.55135    
     27610   818.83248     -5810.8341     -5648.366      -9854.942       39984.624      191.4579     
     27620   823.04911     -5812.1931     -5648.8884     -9922.5181      39965.794      191.35574    
     27630   817.54751     -5811.5735     -5649.3604     -9407.0053      39946.69       191.23302    
     27640   813.46418     -5811.1985     -5649.7955     -8714.9908      39927.728      191.10105    
     27650   821.82486     -5813.2595     -5650.1977     -8503.7696      39909.126      190.95791    
     27660   816.21845     -5812.5505     -5650.6011     -8422.6468      39890.886      190.80486    
     27670   814.51329     -5812.5974     -5650.9863     -8597.4754      39873.115      190.65258    
[...]
     44230   580.42651     -5894.8129     -5779.6479     -726.04742      38766.428      229.79862    
     44240   583.82272     -5895.416      -5779.5772     -932.96506      38756.402      229.81949    
     44250   585.81578     -5895.6753     -5779.4411     -1031.4971      38743.169      229.82177    
     44260   584.4027      -5895.2036     -5779.2497     -923.94006      38726.406      229.80623    
     44270   587.33849     -5895.5233     -5778.9869     -782.01735      38706.445      229.77353    
     44280   595.36767     -5896.7882     -5778.6587     -647.96277      38683.792      229.73326    
     44290   602.13455     -5897.7532     -5778.2811     -489.45236      38658.932      229.68494    
     44300   606.9902      -5898.3073     -5777.8717     -343.38941      38632.445      229.61786    
     44310   607.59102     -5898.0121     -5777.4573      1.1040264      38604.93       229.54684    
     44320   599.54992     -5895.9851     -5777.0258      373.11892      38577.528      229.4947     
     44330   614.02821     -5898.4072     -5776.5752      486.43264      38551.499      229.47741    
     44340   623.54274     -5899.8358     -5776.116       699.14727      38527.363      229.50808    
     44350   624.96327     -5899.6978     -5775.6961      903.57946      38505.803      229.59965    
     44360   622.0635      -5898.7676     -5775.3413      969.08513      38487.498      229.75777    
     44370   615.82652     -5897.2288     -5775.04        770.8337       38472.583      229.9733     
     44380   614.39562     -5896.6816     -5774.7768      363.89642      38460.361      230.21245    
     44390   613.68421     -5896.3096     -5774.5458     -38.145348      38449.444      230.42151    
     44400   610.72726     -5895.5032     -5774.3261      28.614377      38438.612      230.56499    
     44410   626.20861     -5898.375      -5774.1262      32.026396      38427.864      230.6441     
     44420   628.37741     -5898.6625     -5773.9834      432.21007      38417.447      230.68997    
     44430   613.07188     -5895.5706     -5773.9283      1071.7805      38408.691      230.75244    
     44440   611.76289     -5895.3168     -5773.9343      1159.6974      38403.533      230.85843    
     44450   624.32176     -5897.8832     -5774.0088      783.44759      38402.33       230.99591    
     44460   618.36922     -5896.8875     -5774.1941      683.87132      38403.986      231.14214    
     44470   607.0029      -5894.9297     -5774.4916      662.36813      38407.999      231.29052    
     44480   609.30773     -5895.7797     -5774.8843      445.76893      38414.222      231.43151    
     44490   607.1212      -5895.8262     -5775.3646      259.81022      38421.993      231.54625    
     44500   602.53349     -5895.4783     -5775.927       17.246117      38430.573      231.6352     
     44510   596.4974      -5894.8846     -5776.531      -151.32053      38439.171      231.71416    
     44520   597.28636     -5895.6544     -5777.1443     -209.60854      38447.186      231.79009    
     44530   606.08837     -5898.0212     -5777.7646     -235.58436      38454.434      231.87147    
     44540   609.98833     -5899.4436     -5778.4132     -221.70684      38460.839      231.95887    
     44550   604.05665     -5898.9272     -5779.0738     -112.70584      38466.492      232.05825    
     44560   609.16515     -5900.5986     -5779.7315     -380.21599      38471.572      232.175      
     44570   605.87644     -5900.595      -5780.3804     -531.10372      38475.352      232.29178    
     44580   588.32385     -5897.7114     -5780.9795     -400.40126      38477.345      232.38423    
     44590   584.06273     -5897.3712     -5781.4848     -350.56566      38477.885      232.43524    
     44600   592.78373     -5899.5092     -5781.8924     -351.58722      38477.209      232.44675    
     44610   604.18789     -5902.1342     -5782.2546     -317.86102      38475.335      232.43844    
     44620   596.71905     -5900.9916     -5782.594      -65.11882       38472.461      232.43555    
     44630   591.79026     -5900.3199     -5782.9003      56.206692      38469.35       232.45776    
     44640   592.32521     -5900.6898     -5783.164       15.378035      38466.373      232.51057    
     44650   586.70621     -5899.793      -5783.3821      67.052517      38463.484      232.58232    
     44660   589.7211      -5900.5562     -5783.547      -27.166204      38460.814      232.66323    
     44670   599.37976     -5902.6055     -5783.6799     -217.63955      38458.016      232.74098    
     44680   592.16903     -5901.29       -5783.7952     -130.06799      38454.556      232.79113    
     44690   581.06276     -5899.1664     -5783.8752      87.305725      38450.704      232.80626    
     44700   578.08556     -5898.5815     -5783.8811      216.52147      38447.179      232.80613    
     44710   586.42029     -5900.1665     -5783.8123      137.41483      38444.357      232.80739    
     44720   587.84652     -5900.3185     -5783.6813      169.21928      38442.041      232.82047    
     44730   584.15328     -5899.4011     -5783.4967      292.42632      38440.359      232.86039    
     44740   584.06631     -5899.1312     -5783.2441      226.80631      38439.657      232.93122    
     44750   584.70251     -5898.9298     -5782.9165      118.54332      38439.768      233.01798    
     44760   586.1912      -5898.8295     -5782.5207      79.31969       38440.332      233.1011     
     44770   581.69356     -5897.4635     -5782.0472      185.21867      38441.227      233.17115    
     44780   581.0279      -5896.7798     -5781.4955      286.54363      38442.778      233.22767    
     44790   592.29593     -5898.3842     -5780.8642      198.0035       38445.248      233.27229    
     44800   593.21001     -5897.8927     -5780.1913      156.9406       38448.451      233.31081    
     44810   586.01244     -5895.7906     -5779.5174      55.964548      38452.219      233.3559     
     44820   590.97456     -5896.1052     -5778.8474     -215.97736      38456.147      233.41996    
     44830   600.42864     -5897.3375     -5778.2039     -226.97178      38459.415      233.50142    
     44840   601.03547     -5896.8787     -5777.6246      43.836329      38461.968      233.59376    
     44850   603.33733     -5896.8479     -5777.1371      239.24539      38464.662      233.68669    
     44860   602.87653     -5896.3524     -5776.7331      397.66432      38468.201      233.76692    
     44870   609.3495      -5897.3152     -5776.4115      281.99402      38473.06       233.84883    
     44880   609.82291     -5897.1665     -5776.1689      136.48841      38478.931      233.96047    
     44890   600.40787     -5895.1205     -5775.991       59.892165      38485.353      234.08976    
     44900   608.27142     -5896.5421     -5775.8524     -244.0357       38491.933      234.21357    
     44910   609.77592     -5896.7424     -5775.7542     -305.32188      38497.759      234.31264    
     44920   598.05253     -5894.358      -5775.6958      65.170313      38502.67       234.37767    
     44930   588.08621     -5892.3248     -5775.6401      466.65996      38507.811      234.41514    
     44940   593.03029     -5893.2202     -5775.5545      665.2764       38514.55       234.43229    
     44950   607.20636     -5895.928      -5775.4495      582.57405      38523.545      234.436      
     44960   622.64989     -5898.9291     -5775.3864      385.32126      38534.579      234.44308    
     44970   611.38456     -5896.7021     -5775.3947      559.0571       38547.139      234.46885    
     44980   599.02785     -5894.313      -5775.4573      669.59465      38561.679      234.52713    
     44990   599.0279      -5894.3745     -5775.5188      546.89644      38578.567      234.62408    
     45000   596.17614     -5893.8596     -5775.5697      418.44733      38597.407      234.74629    
     45010   590.23213     -5892.7134     -5775.6029      507.31812      38617.875      234.88093    
     45020   595.75099     -5893.8091     -5775.6036      444.41695      38640.176      235.0223     
     45030   603.57341     -5895.3457     -5775.5881      353.3297       38664.165      235.1606     
     45040   608.72437     -5896.3579     -5775.5783      149.05086      38689.48       235.30138    
     45050   613.1975      -5897.2734     -5775.6063     -271.70889      38715.343      235.45572    
     45060   602.31703     -5895.1816     -5775.6733     -408.63145      38740.494      235.63124    
     45070   591.9904      -5893.2136     -5775.7542     -470.85644      38764.306      235.82273    
     45080   596.03122     -5894.0728     -5775.8116     -759.67288      38786.47       236.01291    
     45090   601.53109     -5895.2073     -5775.8549     -1044.4744      38806.047      236.17822    
     45100   596.00677     -5894.157      -5775.9007     -1092.5241      38822.061      236.31288    
     45110   593.91011     -5893.7889     -5775.9487     -1075.7202      38834.249      236.41102    
     45120   594.91961     -5894.0226     -5775.982      -1090.9907      38842.645      236.47351    
     45130   599.87503     -5895.0333     -5776.0095     -1093.5864      38847.236      236.50766    
     45140   598.05815     -5894.703      -5776.0397     -885.2637       38848.064      236.51139    
     45150   593.01485     -5893.7289     -5776.0662     -596.87704      38845.771      236.47926    
     45160   598.04566     -5894.74       -5776.0792     -466.76235      38841.302      236.41306    
     45170   602.0374      -5895.538      -5776.0851     -391.44396      38835.135      236.32653    
     45180   599.05888     -5894.9619     -5776.1001     -201.73438      38827.566      236.24312    
     45190   595.31819     -5894.2302     -5776.1106     -59.97069       38819.209      236.19197    
     45200   598.08028     -5894.7729     -5776.1053     -193.49845      38810.504      236.16968    
     45210   604.85152     -5896.1071     -5776.0959     -511.58599      38801.01       236.13998    
     45220   601.41723     -5895.4358     -5776.106      -667.21346      38789.685      236.09057    
     45230   589.0967      -5893.0009     -5776.1156     -571.03976      38775.984      236.04385    
     45240   588.04302     -5892.7646     -5776.0885     -586.88798      38760.115      236.01181    
     45250   591.22818     -5893.3224     -5776.0142     -517.40467      38742.106      235.98099    
     45260   588.90373     -5892.7332     -5775.8862     -142.90364      38722.245      235.93587    
     45270   590.19083     -5892.7991     -5775.6968      518.48852      38701.866      235.87731    
     45280   594.68795     -5893.4344     -5775.4398      1179.9445      38683.2        235.8371     
     45290   606.10088     -5895.3973     -5775.1382      1456.4712      38668.466      235.84671    
     45300   611.78853     -5896.2231     -5774.8355      1488.4775      38658.715      235.91208    
     45310   609.39645     -5895.4684     -5774.5554      1466.3043      38654.157      236.01849    
     45320   610.10149     -5895.3563     -5774.3034      1300.3559      38654.67       236.15228    
     45330   612.60211     -5895.6405     -5774.0915      1193.6529      38659.783      236.31927    
     45340   597.47154     -5892.4559     -5773.909       1445.3845      38669.317      236.51407    
     45350   597.21008     -5892.2205     -5773.7254      1425.937       38683.955      236.72804    
     45360   609.60545     -5894.4844     -5773.5299      1209.0495      38703.714      236.96533    
     45370   617.51353     -5895.8782     -5773.3546      1073.2112      38727.953      237.23801    
     45380   611.35997     -5894.5349     -5773.2323      1285.8184      38756.292      237.54641    
     45390   610.14954     -5894.2244     -5773.162       1483.078       38789.351      237.87985    
     45400   617.40252     -5895.6372     -5773.1357      1424.5383      38827.819      238.24288    
     45410   612.88311     -5894.7828     -5773.1781      1258.7232      38871.588      238.65683    
     45420   602.71366     -5892.8489     -5773.2619      896.24206      38920.103      239.12675    
     45430   606.1186      -5893.6238     -5773.3612      200.69917      38972.01       239.63871    
     45440   601.92807     -5892.8976     -5773.4664     -259.83286      39024.98       240.17008    
     45450   593.7353      -5891.3734     -5773.5678     -632.92974      39077.281      240.69976    
     45460   595.87236     -5891.8839     -5773.6543     -1228.5478      39127.368      241.2052     
     45470   595.52583     -5891.8762     -5773.7154     -1622.9007      39173.208      241.66508    
     45480   596.36489     -5892.0967     -5773.7693     -1961.999       39213.237      242.05845    
     45490   585.75278     -5890.0367     -5773.815      -1825.7412      39246.373      242.3649     
     45500   581.02594     -5889.1095     -5773.8256     -1579.0093      39272.916      242.57855    
     45510   585.98589     -5890.0507     -5773.7827     -1238.0635      39293.757      242.72051    
     45520   585.96647     -5889.9441     -5773.68       -643.87531      39310.187      242.83329    
     45530   590.45277     -5890.6761     -5773.5219     -326.07794      39324.175      242.94937    
     45540   592.30457     -5890.8245     -5773.3028     -168.51886      39336.934      243.08299    
     45550   595.64979     -5891.2134     -5773.0279     -207.12153      39348.996      243.23236    
     45560   601.5699      -5892.0677     -5772.7077     -263.91833      39360.308      243.38135    
     45570   592.30173     -5889.8672     -5772.346      -123.32034      39370.737      243.52562    
     45580   591.77985     -5889.3494     -5771.9318     -206.62754      39380.655      243.67307    
     45590   596.48981     -5889.8016     -5771.4495     -403.08748      39389.79       243.80982    
     45600   599.17678     -5889.7928     -5770.9076     -654.16877      39397.439      243.9164     
     45610   615.45111     -5892.4493     -5770.335      -1029.6096      39402.681      243.99115    
     45620   626.8782      -5894.1731     -5769.7915     -1207.9993      39404.234      244.04181    
     45630   621.07342     -5892.5621     -5769.3323     -1084.5235      39401.472      244.08419    
     45640   617.07409     -5891.4056     -5768.9693     -994.04483      39394.719      244.1309     
     45650   613.98285     -5890.4963     -5768.6733     -1055.8641      39384.251      244.16699    
     45660   608.80624     -5889.2289     -5768.433      -965.3055       39369.959      244.17285    
     45670   604.19477     -5888.1042     -5768.2234     -804.80177      39352.11       244.13948    
     45680   606.08181     -5888.2863     -5768.0309     -624.81264      39331.278      244.06642    
     45690   603.96929     -5887.6824     -5767.8462     -228.45827      39308.213      243.96687    
     45700   604.75261     -5887.6633     -5767.6718      47.222999      39284.194      243.86294    
     45710   605.2275      -5887.5879     -5767.5021      246.96211      39260.26       243.76362    
     45720   608.92517     -5888.1606     -5767.3412      291.40724      39237.094      243.67549    
     45730   621.71218     -5890.5718     -5767.2152      136.35948      39214.823      243.60608    
     45740   617.99106     -5889.7738     -5767.1555      277.43325      39193.065      243.5519     
     45750   605.66078     -5887.3304     -5767.1587      558.3067       39172.307      243.50653    
     45760   613.37438     -5888.9052     -5767.2029      359.15156      39153.368      243.46237    
     45770   625.26067     -5891.376      -5767.3153      109.1346       39135.663      243.40607    
     45780   630.36248     -5892.635      -5767.5621      81.521179      39118.333      243.33235    
     45790   624.36501     -5891.8579     -5767.9749      347.01892      39101.306      243.25162    
     45800   618.45729     -5891.2698     -5768.559       745.88953      39085.513      243.19754    
     45810   622.14473     -5892.7625     -5769.32        864.77432      39072.226      243.18926    
     45820   620.38538     -5893.3473     -5770.2539      1026.6458      39062.061      243.22848    
     45830   622.3572      -5894.8044     -5771.3199      1021.5173      39055.528      243.31955    
     45840   615.07058     -5894.48       -5772.4412      1123.0188      39052.698      243.44667    
     45850   596.54352     -5891.8275     -5773.4647      1317.5904      39053.974      243.59336    
     45860   602.3056      -5893.8215     -5774.3155      905.94279      39059.808      243.75516    
     45870   597.4344      -5893.5308     -5774.9912      651.00139      39069.044      243.94355    
     45880   587.90876     -5892.1578     -5775.5083      632.23549      39080.799      244.17907    
     45890   585.77975     -5892.1091     -5775.882       592.55078      39094.946      244.46223    
     45900   590.68717     -5893.3473     -5776.1465      420.46814      39111.277      244.77907    
     45910   594.64291     -5894.3247     -5776.339       154.19483      39129.204      245.12043    
     45920   596.9708      -5894.9348     -5776.4873     -6.8438853      39147.906      245.47436    
     45930   594.13131     -5894.4902     -5776.6061     -3.0997491      39166.83       245.8101     
     45940   589.22156     -5893.6025     -5776.6925      37.713216      39185.945      246.11335    
     45950   589.55192     -5893.7102     -5776.7347     -152.33457      39205.268      246.39895    
     45960   587.06004     -5893.2125     -5776.7314     -338.71882      39224.205      246.69166    
     45970   575.34115     -5890.8234     -5776.6674     -271.26371      39242.223      246.99764    
     45980   574.93168     -5890.5948     -5776.5202     -279.71506      39259.397      247.30345    
     45990   588.67301     -5893.0869     -5776.2858     -493.91244      39275.638      247.61787    
     46000   599.91776     -5895.0194     -5775.9871     -616.48479      39290.263      247.9403     
     46010   599.9411      -5894.7136     -5775.6767     -483.21621      39302.853      248.24584    
     46020   595.32217     -5893.4813     -5775.3609     -356.77614      39313.794      248.51589    
     46030   596.3255      -5893.351      -5775.0314     -418.19145      39323.459      248.73042    
     46040   600.8523      -5893.9014     -5774.6837     -445.00203      39331.732      248.86953    
     46050   606.54342     -5894.6818     -5774.3349     -322.0869       39338.499      248.93835    
     46060   606.22531     -5894.2892     -5774.0054     -74.429278      39344.151      248.963      
     46070   604.91657     -5893.7219     -5773.6978      197.93762      39349.611      248.96472    
     46080   607.37864     -5893.9252     -5773.4125      349.81632      39355.832      248.96556    
     46090   605.71632     -5893.3308     -5773.148       446.89416      39363.424      248.99907    
     46100   604.84704     -5892.9159     -5772.9056      265.87444      39372.663      249.08986    
     46110   596.33011     -5890.9958     -5772.6754      81.250456      39383.024      249.2352     
     46120   593.18572     -5890.1254     -5772.4288     -128.48496      39393.847      249.42884    
     46130   598.63522     -5890.9215     -5772.1437     -411.73484      39404.324      249.65667    
     46140   608.30562     -5892.5398     -5771.8432     -559.80153      39413.478      249.88489    
     46150   608.21458     -5892.2318     -5771.5533     -313.67709      39420.845      250.07486    
     46160   601.99566     -5890.734      -5771.2894      154.43314      39427.217      250.21009    
     46170   605.60493     -5891.1936     -5771.0329      306.49087      39434.122      250.30119    
     46180   613