LAMMPS (29 Sep 2021 - Update 3)
OMP_NUM_THREADS environment is not set. Defaulting to 1 thread. (src/comm.cpp:98)
  using 1 OpenMP thread(s) per MPI task
units	metal
atom_style	full

read_data	mixed.data
Reading data file ...
  orthogonal box = (0.0000000 0.0000000 0.0000000) to (15.866041 15.852264 77.123517)
  2 by 1 by 8 MPI processor grid
  reading atoms ...
  864 atoms
Finding 1-2 1-3 1-4 neighbors ...
  special bond factors lj:    0        0        0       
  special bond factors coul:  0        0        0       
     0 = max # of 1-2 neighbors
     0 = max # of 1-3 neighbors
     0 = max # of 1-4 neighbors
     1 = max # of special neighbors
  special bonds CPU = 0.001 seconds
  read_data CPU = 0.040 seconds

pair_style	quip
pair_coeff	* * /ocean/projects/cts180021p/wuziqi/clease/mint-PD/PhaseDiagram-Clease/Liquid/GAP_potential/gap_LiKCl.xml "Potential xml_label=GAP_2021_9_27_0_1_17_37_618" 17 19 3

neighbor	0.3 bin
neigh_modify	delay 10

timestep	0.001
compute	msd all msd
thermo_style	custom step temp pe etotal press vol c_msd[4]
thermo	10
dump	1 all custom 10 xyz-mix.dump type id x y z
dump	2 all custom 10 force-mix.dump type id fx fy fz

fix     1 all nve
run     2000
Neighbor list info ...
  update every 1 steps, delay 10 steps, check yes
  max neighbors/atom: 2000, page size: 100000
  master list distance cutoff = 6.22
  ghost atom cutoff = 6.22
  binsize = 3.11, bins = 6 6 25
  1 neighbor lists, perpetual/occasional/extra = 1 0 0
  (1) pair quip, perpetual
      attributes: full, newton on
      pair build: full/bin
      stencil: full/bin/3d
      bin: standard
Per MPI rank memory allocation (min/avg/max) = 8.889 | 8.906 | 8.916 Mbytes
Step Temp PotEng TotEng Press Volume c_msd[4] 
       0            0   -8878.9247   -8878.9247   -11708.833    19397.542            0 
      10    108.80145    -8891.078    -8878.941   -13519.947    19397.542 0.00037756483 
      20    255.99871   -8907.5101   -8878.9531   -15433.074    19397.542  0.004636157 
      30    288.56988   -8911.1358   -8878.9454   -14361.122    19397.542  0.015943357 
      40    289.10053   -8911.1934   -8878.9438   -12512.136    19397.542  0.032214776 
      50    304.26419   -8912.8839   -8878.9428   -12190.839    19397.542  0.050010352 
      60    330.67215   -8915.8353   -8878.9484    -12512.07    19397.542  0.067008738 
      70    319.75479    -8914.613   -8878.9439   -12021.554    19397.542  0.084636553 
      80     311.7171   -8913.7131   -8878.9406   -11242.174    19397.542   0.10335882 
      90    344.97025   -8917.4272   -8878.9452   -11377.847    19397.542   0.12285636 
     100    369.47631   -8920.1625   -8878.9469   -11460.202    19397.542   0.14373353 
     110    369.44402   -8920.1551   -8878.9431   -10737.559    19397.542   0.16547428 
     120    381.04496   -8921.4513   -8878.9452   -10101.733    19397.542   0.18697263 
     130    387.01967   -8922.1174   -8878.9447    -9853.945    19397.542   0.20927079 
     140    390.46305   -8922.5002   -8878.9434   -10154.629    19397.542   0.23274757 
     150    401.17379   -8923.6966   -8878.9451   -10935.233    19397.542   0.25686229 
     160    405.60936   -8924.1923    -8878.946   -11533.497    19397.542   0.28181117 
     170    403.00983   -8923.9035   -8878.9472   -11313.905    19397.542   0.30705714 
     180    385.93942   -8921.9971   -8878.9449   -10395.352    19397.542   0.33328028 
     190    384.55592   -8921.8429   -8878.9451   -9702.4152    19397.542    0.3615061 
     200    397.89654   -8923.3338   -8878.9478   -9508.3306    19397.542   0.39138176 
     210    403.74057   -8923.9838    -8878.946   -9854.3562    19397.542   0.41959204 
     220    419.25516   -8925.7147   -8878.9462   -11120.155    19397.542   0.44190424 
     230    437.64496   -8927.7678   -8878.9478   -12741.979    19397.542   0.46059951 
     240    436.22365   -8927.6096   -8878.9482   -13773.271    19397.542   0.48016288 
     250     417.4692   -8925.5154   -8878.9461   -14188.084    19397.542   0.50051511 
     260    403.07006   -8923.9093   -8878.9463   -14452.366    19397.542   0.51954432 
     270    390.78955   -8922.5388   -8878.9456   -14869.677    19397.542   0.53842732 
     280    390.91941   -8922.5534   -8878.9458   -15753.944    19397.542   0.55789535 
     290    394.53071   -8922.9579   -8878.9474   -16866.473    19397.542   0.57907365 
     300    385.46639   -8921.9447   -8878.9454   -17556.881    19397.542   0.60332818 
     310    388.07639   -8922.2367   -8878.9462   -18102.563    19397.542   0.62988844 
     320    395.22438   -8923.0346   -8878.9467   -18476.923    19397.542   0.65693198 
     330     392.7193   -8922.7554    -8878.947   -18634.964    19397.542   0.68294096 
     340    387.36548    -8922.158   -8878.9468   -18928.114    19397.542    0.7064488 
     350    383.70376     -8921.75   -8878.9472   -19255.038    19397.542   0.72809194 
     360    380.16279   -8921.3526   -8878.9449   -19764.905    19397.542   0.74756432 
     370    391.53302   -8922.6238   -8878.9477   -20433.416    19397.542   0.76345228 
     380    397.18733   -8923.2529   -8878.9461   -20848.612    19397.542   0.77799013 
     390    399.66038   -8923.5327     -8878.95   -20962.623    19397.542    0.7926845 
     400    376.74168   -8920.9703   -8878.9442   -20594.318    19397.542   0.80792627 
     410    384.01385   -8921.7861   -8878.9488   -20827.442    19397.542   0.82090067 
     420    385.42711   -8921.9432   -8878.9482    -21282.02    19397.542   0.83289421 
     430    375.82197   -8920.8694   -8878.9459   -21749.833    19397.542   0.84474346 
     440    377.40301   -8921.0478   -8878.9479   -22280.425    19397.542   0.85654263 
     450    373.39276   -8920.5987   -8878.9462   -22358.315    19397.542   0.87121917 
     460    380.55104   -8921.3982   -8878.9472   -22127.174    19397.542   0.88923864 
     470    389.08947   -8922.3531   -8878.9496   -21563.629    19397.542   0.90990069 
     480    377.88025   -8921.0989   -8878.9458   -20903.426    19397.542   0.93174236 
     490    381.74982   -8921.5319   -8878.9472   -20620.986    19397.542   0.94962563 
     500    394.14575   -8922.9156   -8878.9481   -20486.731    19397.542   0.96309083 
     510    397.04898   -8923.2389   -8878.9475   -19997.235    19397.542   0.97658553 
     520    399.82595   -8923.5491    -8878.948   -19535.484    19397.542   0.99241283 
     530    404.27704   -8924.0446   -8878.9469    -19115.46    19397.542    1.0084992 
     540     411.3451   -8924.8362     -8878.95   -18661.849    19397.542    1.0226069 
     550    394.09812   -8922.9082    -8878.946   -17821.103    19397.542    1.0374953 
     560    386.81962   -8922.0987   -8878.9484   -17144.624    19397.542    1.0531551 
     570    383.04436   -8921.6747   -8878.9456   -16711.306    19397.542    1.0690946 
     580    397.22268   -8923.2587   -8878.9479   -16702.646    19397.542    1.0866029 
     590    408.28446   -8924.4929   -8878.9481   -16623.668    19397.542    1.1074158 
     600    405.74477   -8924.2095   -8878.9481   -16314.107    19397.542    1.1302748 
     610    396.02325   -8923.1251   -8878.9481    -15628.66    19397.542    1.1519665 
     620     395.3341   -8923.0495   -8878.9494   -15051.831    19397.542    1.1694303 
     630    394.27036   -8922.9318   -8878.9503   -14512.907    19397.542    1.1828305 
     640    383.62649   -8921.7417   -8878.9476   -14067.198    19397.542    1.1945401 
     650    385.14193   -8921.9112    -8878.948   -13839.463    19397.542    1.2068311 
     660     395.4713   -8923.0651   -8878.9497   -13755.797    19397.542    1.2218962 
     670     396.9724   -8923.2312   -8878.9483   -13681.042    19397.542    1.2411479 
     680    400.76426   -8923.6562   -8878.9504   -13529.754    19397.542    1.2649597 
     690    395.59922   -8923.0782   -8878.9485   -13202.541    19397.542    1.2892968 
     700    393.08673   -8922.7984    -8878.949    -12863.36    19397.542    1.3108518 
     710    392.46287   -8922.7295   -8878.9497   -12776.215    19397.542    1.3306314 
     720    392.69983   -8922.7538   -8878.9476   -12960.731    19397.542    1.3493343 
     730    407.70626    -8924.431   -8878.9507   -13617.908    19397.542    1.3652761 
     740    418.60831   -8925.6458   -8878.9494   -14182.857    19397.542    1.3758719 
     750    427.35697   -8926.6222   -8878.9499   -14411.802    19397.542    1.3817369 
     760    426.23067   -8926.4956    -8878.949   -14240.457    19397.542    1.3874968 
     770    425.68986   -8926.4355   -8878.9492   -14121.142    19397.542    1.3956033 
     780    424.34662   -8926.2861   -8878.9496   -14199.692    19397.542    1.4059418 
     790    416.51178   -8925.4118   -8878.9493   -14348.579    19397.542    1.4172819 
     800    406.85203   -8924.3329   -8878.9479   -14603.708    19397.542    1.4293586 
     810     409.3926   -8924.6176   -8878.9492   -14954.594    19397.542    1.4437899 
     820    411.52943   -8924.8561   -8878.9494   -15227.004    19397.542     1.461671 
     830    414.76526   -8925.2161   -8878.9484   -15348.177    19397.542    1.4822988 
     840    425.47297   -8926.4126   -8878.9505   -15497.059    19397.542    1.5061095 
     850    424.10961   -8926.2589   -8878.9489    -15461.05    19397.542    1.5339208 
     860    425.84903   -8926.4531    -8878.949   -15668.017    19397.542    1.5638872 
     870    428.28778   -8926.7265   -8878.9503   -15975.954    19397.542    1.5941429 
     880    422.32484   -8926.0597   -8878.9487   -16050.391    19397.542    1.6254163 
     890    420.59441   -8925.8681   -8878.9502   -16210.368    19397.542    1.6579317 
     900    412.78354   -8924.9958   -8878.9492   -16186.118    19397.542    1.6917804 
     910    408.88335   -8924.5603   -8878.9488   -16398.021    19397.542    1.7253326 
     920    415.25495   -8925.2723     -8878.95   -16866.947    19397.542    1.7566903 
     930    417.79568   -8925.5555   -8878.9498    -17314.63    19397.542    1.7866576 
     940    414.15774   -8925.1502   -8878.9503   -17816.895    19397.542    1.8175362 
     950    410.14766   -8924.7024   -8878.9498   -18397.528    19397.542     1.850555 
     960    412.13206   -8924.9218   -8878.9478   -18864.984    19397.542    1.8837942 
     970    427.90234   -8926.6835   -8878.9503   -19165.223    19397.542    1.9147148 
     980    431.11936    -8927.043    -8878.951    -19021.79    19397.542    1.9457246 
     990    415.64991   -8925.3145   -8878.9482   -18606.767    19397.542    1.9812421 
    1000    413.92707   -8925.1233   -8878.9491   -18513.829    19397.542    2.0201072 
    1010    417.45395   -8925.5177     -8878.95   -18558.895    19397.542    2.0574524 
    1020    414.66605   -8925.2045   -8878.9479    -18540.13    19397.542    2.0909232 
    1030    425.32279   -8926.3944    -8878.949   -18804.281    19397.542    2.1200334 
    1040    437.39791    -8927.743   -8878.9506    -19174.44    19397.542    2.1461906 
    1050    432.04437    -8927.144   -8878.9488   -19430.964    19397.542    2.1724444 
    1060    423.10855   -8926.1471   -8878.9487    -19670.97    19397.542     2.200914 
    1070    416.30819    -8925.389   -8878.9492   -19752.208    19397.542     2.232564 
    1080    410.19009   -8924.7058   -8878.9485   -19471.789    19397.542    2.2656179 
    1090    411.43188   -8924.8454   -8878.9496   -18927.842    19397.542    2.2963807 
    1100    413.58688   -8925.0849   -8878.9486   -18540.027    19397.542    2.3238349 
    1110    425.71996   -8926.4384   -8878.9486   -18620.545    19397.542    2.3474636 
    1120    443.01807   -8928.3709   -8878.9516   -18883.908    19397.542    2.3679172 
    1130    437.42575   -8927.7454   -8878.9499   -18767.479    19397.542    2.3882255 
    1140    422.48256   -8926.0773   -8878.9487   -18476.767    19397.542    2.4089666 
    1150    414.07643   -8925.1393   -8878.9485   -18282.798    19397.542    2.4284943 
    1160    416.01416   -8925.3558   -8878.9488   -18291.885    19397.542     2.446853 
    1170    419.66714   -8925.7642   -8878.9497   -18446.717    19397.542    2.4644412 
    1180    424.21945   -8926.2706   -8878.9483    -18449.36    19397.542    2.4806419 
    1190    440.19598   -8928.0557   -8878.9512   -18343.062    19397.542    2.4945267 
    1200    440.38662   -8928.0752   -8878.9494   -17908.359    19397.542     2.507228 
    1210    440.40752   -8928.0774   -8878.9493   -17509.071    19397.542    2.5196997 
    1220    445.29341   -8928.6232   -8878.9501   -17433.008    19397.542    2.5321836 
    1230    444.31811   -8928.5138   -8878.9494   -17404.254    19397.542    2.5456285 
    1240    444.21916   -8928.5028   -8878.9495   -17567.287    19397.542    2.5617678 
    1250    447.95301   -8928.9197   -8878.9499   -17998.888    19397.542    2.5810013 
    1260    447.05056     -8928.82   -8878.9509   -18113.089    19397.542    2.6027835 
    1270    433.76409   -8927.3363   -8878.9493   -17647.746    19397.542    2.6267411 
    1280    426.49744   -8926.5249   -8878.9485   -17215.404    19397.542    2.6522665 
    1290    438.76938   -8927.8949   -8878.9495   -17215.004    19397.542     2.679609 
    1300     454.8554   -8929.6913   -8878.9515   -17412.029    19397.542    2.7096074 
    1310    451.74789   -8929.3435   -8878.9504   -17515.094    19397.542    2.7419599 
    1320    440.03726   -8928.0361   -8878.9493    -17582.78    19397.542    2.7732724 
    1330    433.51813    -8927.309   -8878.9494   -17627.787    19397.542    2.7991894 
    1340    430.66307   -8926.9918   -8878.9507   -17406.648    19397.542    2.8192899 
    1350    422.06307   -8926.0311   -8878.9493    -17030.68    19397.542    2.8369839 
    1360    423.68793   -8926.2128   -8878.9498   -16872.793    19397.542    2.8564726 
    1370    432.23825   -8927.1671   -8878.9502   -16941.721    19397.542    2.8798412 
    1380    440.61409   -8928.1014   -8878.9502   -17160.411    19397.542     2.904214 
    1390    442.38617   -8928.3005   -8878.9516   -17288.698    19397.542    2.9262872 
    1400    432.82497   -8927.2303    -8878.948   -17111.965    19397.542    2.9462931 
    1410    443.20721   -8928.3906   -8878.9502   -17379.272    19397.542    2.9656964 
    1420     452.8574   -8929.4692   -8878.9523   -17581.285    19397.542    2.9866189 
    1430    440.33742   -8928.0699   -8878.9496    -17078.18    19397.542    3.0107644 
    1440    434.09539   -8927.3728   -8878.9488   -16559.852    19397.542    3.0372306 
    1450    446.59797     -8928.77   -8878.9513   -16458.202    19397.542    3.0634597 
    1460    455.16552   -8929.7248   -8878.9504   -16509.198    19397.542    3.0883146 
    1470     460.5176    -8930.323   -8878.9516   -16639.411    19397.542    3.1117695 
    1480    455.78137    -8929.792   -8878.9489   -16643.605    19397.542    3.1332037 
    1490    461.66937   -8930.4506   -8878.9507   -16632.215    19397.542     3.152331 
    1500    464.06114   -8930.7172   -8878.9504   -16316.323    19397.542    3.1724877 
    1510    464.69685   -8930.7871   -8878.9495    -16148.36    19397.542    3.1960897 
    1520    471.22077   -8931.5167   -8878.9514   -16208.841    19397.542    3.2225013 
    1530    471.47122   -8931.5429   -8878.9496   -16597.639    19397.542    3.2496574 
    1540    479.04999   -8932.3903   -8878.9516   -17340.131    19397.542    3.2743864 
    1550    475.60674   -8932.0055   -8878.9508   -17872.304    19397.542    3.2971604 
    1560    465.76065   -8930.9064   -8878.9501   -17822.552    19397.542    3.3221892 
    1570    460.06152    -8930.271   -8878.9505    -17442.47    19397.542    3.3512444 
    1580    459.40082   -8930.1971   -8878.9502   -16941.542    19397.542    3.3813068 
    1590    460.93829   -8930.3707   -8878.9523   -16350.345    19397.542    3.4083736 
    1600     448.2201   -8928.9504   -8878.9508   -15603.607    19397.542    3.4316634 
    1610     443.9941   -8928.4772    -8878.949    -15275.86    19397.542    3.4534934 
    1620    463.51034   -8930.6582    -8878.953   -15593.563    19397.542    3.4766509 
    1630    474.66564   -8931.9011   -8878.9514   -16126.405    19397.542    3.5034224 
    1640    481.75389   -8932.6918   -8878.9514   -16542.721    19397.542    3.5333548 
    1650    479.37897   -8932.4264    -8878.951   -16541.998    19397.542    3.5648125 
    1660    474.97776   -8931.9337   -8878.9492   -16284.173    19397.542    3.5952514 
    1670    481.99089    -8932.719   -8878.9522   -15990.017    19397.542    3.6221631 
    1680      474.213   -8931.8498   -8878.9506   -15457.654    19397.542    3.6454728 
    1690    462.13083    -8930.502   -8878.9506   -14731.806    19397.542     3.665115 
    1700    458.63731   -8930.1109   -8878.9492   -14389.905    19397.542    3.6801149 
    1710    473.55465   -8931.7771   -8878.9513   -14547.389    19397.542    3.6915037 
    1720    483.59001    -8932.897   -8878.9518   -15013.331    19397.542    3.7021408 
    1730    481.36556   -8932.6472   -8878.9501   -15645.926    19397.542    3.7142289 
    1740    484.05437   -8932.9483   -8878.9513   -16474.749    19397.542    3.7288904 
    1750    482.16869   -8932.7383   -8878.9516   -16722.219    19397.542     3.747119 
    1760    470.26243   -8931.4082   -8878.9497   -16475.495    19397.542    3.7689551 
    1770    472.75321   -8931.6852   -8878.9489   -16480.419    19397.542    3.7930019 
    1780    495.80424   -8934.2609   -8878.9532   -16801.632    19397.542     3.817904 
    1790    498.29189   -8934.5359   -8878.9506   -17030.699    19397.542    3.8432118 
    1800    497.22115   -8934.4163   -8878.9505   -17233.599    19397.542    3.8677962 
    1810    498.13201   -8934.5195   -8878.9521   -17294.852    19397.542    3.8916583 
    1820    485.17576   -8933.0725   -8878.9504   -16971.976    19397.542    3.9157232 
    1830    479.44537   -8932.4337   -8878.9509   -16627.564    19397.542    3.9391486 
    1840    478.88134   -8932.3712   -8878.9513   -16398.764    19397.542    3.9621449 
    1850     478.6415   -8932.3435   -8878.9503   -16406.049    19397.542    3.9857213 
    1860     486.1211   -8933.1789   -8878.9514   -16705.544    19397.542    4.0086822 
    1870    492.79459   -8933.9238   -8878.9519   -17221.514    19397.542    4.0297149 
    1880    491.36379   -8933.7648   -8878.9525   -18037.772    19397.542    4.0499732 
    1890    475.70955   -8932.0166   -8878.9505   -18910.363    19397.542    4.0709101 
    1900    464.92588   -8930.8141   -8878.9509   -19819.272    19397.542    4.0929306 
    1910    455.59431   -8929.7727   -8878.9505   -20229.987    19397.542    4.1160109 
    1920    452.87672   -8929.4684   -8878.9493   -20242.611    19397.542    4.1384657 
    1930    467.97161   -8931.1539   -8878.9509   -20369.825    19397.542    4.1581839 
    1940    485.34862   -8933.0926   -8878.9512   -20514.477    19397.542    4.1756159 
    1950    495.78252   -8934.2578   -8878.9525   -20428.878    19397.542    4.1936772 
    1960    500.11778   -8934.7389     -8878.95   -20591.437    19397.542    4.2145461 
    1970    511.99695   -8936.0681    -8878.954   -21344.221    19397.542    4.2363696 
    1980    499.23942   -8934.6421   -8878.9512   -21654.428    19397.542    4.2540635 
    1990    487.56603   -8933.3391   -8878.9504    -21588.86    19397.542    4.2657075 
    2000    485.14508   -8933.0707    -8878.952   -21134.343    19397.542    4.2770463 
Loop time of 1478.22 on 16 procs for 2000 steps with 864 atoms

Performance: 0.117 ns/day, 205.309 hours/ns, 1.353 timesteps/s
96.7% CPU use with 16 MPI tasks x 1 OpenMP threads

MPI task timing breakdown:
Section |  min time  |  avg time  |  max time  |%varavg| %total
---------------------------------------------------------------
Pair    | 297.11     | 705.89     | 1471.6     |1187.0 | 47.75
Bond    | 0.00018477 | 0.00037453 | 0.0012891  |   0.0 |  0.00
Neigh   | 0.014344   | 0.030187   | 0.063548   |   7.8 |  0.00
Comm    | 6.0305     | 672.15     | 1039.2     |1164.9 | 45.47
Output  | 0.25329    | 32.703     | 66.822     | 453.1 |  2.21
Modify  | 0.0080271  | 0.009492   | 0.011758   |   1.1 |  0.00
Other   |            | 67.44      |            |       |  4.56

Nlocal:        54.0000 ave          90 max          29 min
Histogram: 3 3 0 2 3 1 0 2 0 2
Nghost:        493.750 ave         643 max         369 min
Histogram: 3 1 0 3 2 2 1 2 0 2
Neighs:         0.00000 ave           0 max           0 min
Histogram: 16 0 0 0 0 0 0 0 0 0
FullNghs:      2706.00 ave        5944 max         890 min
Histogram: 6 0 2 1 3 0 2 0 0 2

Total # of neighbors = 43296
Ave neighs/atom = 50.111111
Ave special neighs/atom = 0.0000000
Neighbor list builds = 200
Dangerous builds = 200
unfix   1

velocity    all create 600.0 1312343 dist gaussian
fix     2 all npt temp 600.0 600.0 $(100.0*dt) aniso 0.0 1.01325 $(1000.0*dt)
fix     2 all npt temp 600.0 600.0 0.10000000000000000555 aniso 0.0 1.01325 $(1000.0*dt)
fix     2 all npt temp 600.0 600.0 0.10000000000000000555 aniso 0.0 1.01325 1
run     3000
Per MPI rank memory allocation (min/avg/max) = 8.894 | 8.909 | 8.920 Mbytes
Step Temp PotEng TotEng Press Volume c_msd[4] 
    2000          600   -8933.0707   -8866.1398   -20428.843    19397.542    4.2770463 
    2010    557.77207   -8928.6123    -8866.392   -18614.086    19381.641    4.2987447 
    2020    495.34961   -8922.1952   -8866.9382   -14801.799    19336.801    4.3212438 
    2030    522.26409   -8925.7526   -8867.4932   -12176.999    19268.903    4.3357918 
    2040    555.67152   -8929.9158   -8867.9299   -9602.3582    19182.949    4.3405507 
    2050    571.74636   -8931.9418   -8868.1626   -5997.7059    19084.191    4.3379725 
    2060    583.35494   -8933.1251    -8868.051   -1869.1161    18979.551    4.3301346 
    2070    589.52601   -8933.3391   -8867.5766    2105.8333    18876.637     4.321024 
    2080    585.94131   -8932.2135   -8866.8509    5692.1985    18782.363    4.3126922 
    2090    574.34697   -8930.0738   -8866.0046     8799.607    18702.289    4.3020381 
    2100    573.59637   -8929.1146   -8865.1291    11095.133    18640.301    4.2849392 
    2110    593.88152   -8930.5683   -8864.3199    12412.075    18598.435    4.2606705 
    2120    621.34295   -8932.9979   -8863.6861    12698.106    18576.936    4.2326273 
    2130    613.73737   -8931.7621   -8863.2988    12518.451    18574.689    4.2060083 
    2140    605.08748   -8930.6527   -8863.1543    11000.214    18589.869     4.183904 
    2150    621.99547   -8932.5581   -8863.1735     8063.251    18619.137    4.1667864 
    2160    616.94854   -8932.0964   -8863.2749    5325.1941    18657.768    4.1554177 
    2170    598.69195   -8930.1886   -8863.4036    2781.8685    18701.398    4.1509014 
    2180    577.01186   -8927.8477   -8863.4812    454.04129    18746.258    4.1536728 
    2190    577.06905   -8927.8382   -8863.4652   -2108.5747     18788.98    4.1630599 
    2200    600.91809   -8930.3932   -8863.3599    -4445.282    18826.163    4.1782746 
    2210     602.4048   -8930.4191     -8863.22   -5566.5899    18854.941    4.1995624 
    2220    596.85426   -8929.6734   -8863.0934   -5589.4033     18874.19    4.2278079 
    2230    594.32035    -8929.268   -8862.9707   -5041.5939    18884.369    4.2631981 
    2240    591.80596   -8928.8365   -8862.8196   -4013.1985    18886.781    4.3036735 
    2250    601.80243    -8929.769    -8862.637   -3184.5457    18883.201    4.3476534 
    2260    597.61177    -8929.105   -8862.4406   -2300.4188    18875.162    4.3945124 
    2270    599.82802   -8929.1583   -8862.2465   -1385.9668    18864.131    4.4414395 
    2280    612.62069   -8930.3968    -8862.058   -161.80193    18851.603    4.4837802 
    2290     618.2619   -8930.8622   -8861.8941    936.05999    18839.334    4.5156808 
    2300     621.8951   -8931.1666   -8861.7933    1224.2577     18828.78     4.533038 
    2310     620.3593   -8930.9753   -8861.7733    1338.8444    18820.361    4.5369213 
    2320    619.00149   -8930.8781   -8861.8276    1631.9501    18814.202    4.5310131 
    2330     613.2332   -8930.3286   -8861.9215    1860.5167    18810.608    4.5177251 
    2340    611.05079   -8930.1915   -8862.0279    1675.3599    18809.775    4.4986725 
    2350    607.27099   -8929.8802   -8862.1382    1441.8485    18811.396    4.4755101 
    2360    597.50534   -8928.9036    -8862.251    1225.7799    18815.081     4.448925 
    2370    600.99237   -8929.4157   -8862.3741    463.99815    18820.384    4.4201896 
    2380    609.88923   -8930.5498   -8862.5157   -477.75648    18826.208    4.3910216 
    2390    616.81458   -8931.4927   -8862.6861   -1204.4775    18831.187    4.3641905 
    2400    616.09239   -8931.6306   -8862.9046    -1095.961    18834.367    4.3427114 
    2410    597.43023   -8929.8134   -8863.1691   -216.84509    18835.965     4.326048 
    2420    589.03827   -8929.1547   -8863.4466    71.967345    18837.117    4.3103409 
    2430    599.59007   -8930.6105   -8863.7253   -443.81433    18838.243    4.2949045 
    2440    613.31383   -8932.4617   -8864.0456   -931.51524    18838.705    4.2824074 
    2450    615.61361   -8933.1124   -8864.4398   -685.26222    18837.898    4.2739296 
    2460    604.06689   -8932.2871   -8864.9025    63.636801    18836.171    4.2691487 
    2470      594.606   -8931.7236   -8865.3944    697.31717    18834.581    4.2648749 
    2480    588.05698   -8931.4814   -8865.8828    1157.2977    18834.055    4.2606238 
    2490    575.27831   -8930.5089   -8866.3357    1154.0688     18835.17    4.2594135 
    2500    574.09861   -8930.7684   -8866.7268    995.16223    18837.944    4.2593156 
    2510    594.39799   -8933.3732   -8867.0672    634.04473    18842.114    4.2564158 
    2520    607.52589   -8935.1572   -8867.3868    257.20008    18847.161    4.2499041 
    2530    595.02097   -8934.0709   -8867.6954    491.61936    18852.595    4.2414806 
    2540    577.81077   -8932.4224   -8867.9668    740.01227     18858.66    4.2323257 
    2550    579.38168   -8932.8113   -8868.1804    227.21594    18865.603    4.2221071 
    2560    582.20342   -8933.2856   -8868.3399    -648.1849    18872.712    4.2109227 
    2570    590.42586    -8934.326   -8868.4632   -1626.7328    18878.727    4.1999857 
    2580    589.06459   -8934.2605   -8868.5495    -1830.696    18882.358     4.191553 
    2590    591.38608   -8934.5728   -8868.6028   -1376.1722    18883.298    4.1849814 
    2600    606.46057   -8936.2891   -8868.6375   -515.84623    18882.253    4.1750064 
    2610    606.12406   -8936.2878   -8868.6738    557.30402    18880.487    4.1585653 
    2620    595.73156   -8935.1677   -8868.7129    1491.4612    18879.587    4.1357159 
    2630    602.56822   -8935.9649   -8868.7475    1111.7694    18880.742    4.1087252 
    2640    605.64397   -8936.3456   -8868.7851    340.21186    18883.488    4.0837888 
    2650    598.92546   -8935.6409   -8868.8299   -259.05485    18886.732    4.0655711 
    2660    612.54408   -8937.2138   -8868.8836   -1287.1212    18889.468    4.0541859 
    2670    623.91136   -8938.5656   -8868.9674   -2054.2109    18890.284    4.0492709 
    2680    627.89964    -8939.155   -8869.1118   -2043.3823    18888.154    4.0484484 
    2690    631.06737   -8939.7204   -8869.3239   -1677.7452    18883.096     4.047513 
    2700    622.66488   -8939.0571   -8869.5979     -1223.37    18875.639    4.0454369 
    2710    612.36366   -8938.2171    -8869.907   -648.68942    18866.533     4.045075 
    2720    634.17284   -8941.0168   -8870.2739   -493.77984     18856.57    4.0462935 
    2730     631.4088   -8941.1603   -8870.7257   -170.23577     18846.05    4.0473583 
    2740    602.16432   -8938.3867   -8871.2144    935.67964    18835.595      4.04873 
    2750    595.74436   -8938.1327   -8871.6765    1442.9085    18826.604    4.0521556 
    2760    594.88849   -8938.4539   -8872.0931     1609.727     18819.84    4.0599051 
    2770    589.51452    -8938.216   -8872.4548    1849.5425    18815.562    4.0710859 
    2780    595.04325   -8939.1304   -8872.7524    1927.4385    18814.056    4.0839641 
    2790    598.89659   -8939.7923   -8872.9844     1880.734    18815.408    4.0966492 
    2800    593.61884   -8939.3729   -8873.1538    1290.4824    18819.425    4.1072102 
    2810    594.60085    -8939.602   -8873.2734    465.22923    18825.263    4.1162792 
    2820    597.72593   -8940.0283   -8873.3511   -442.26196    18831.692    4.1263142 
    2830    612.25032   -8941.7087   -8873.4113    -1137.624    18837.406      4.13903 
    2840    613.00024   -8941.8554   -8873.4743   -1100.1766    18841.465    4.1568528 
    2850    617.55073   -8942.4376   -8873.5489   -790.81947    18843.888    4.1818651 
    2860    622.55806   -8943.1017   -8873.6544   -355.19989    18845.129    4.2115975 
    2870    588.23354   -8939.3899   -8873.7716    565.89169    18845.922    4.2379946 
    2880    588.87305   -8939.5591   -8873.8695    192.60659    18847.368    4.2532602 
    2890    621.89966   -8943.3338     -8873.96   -1280.4928    18848.945    4.2596319 
    2900    624.21619   -8943.7205   -8874.0882    -2279.784    18848.664    4.2632148 
    2910     605.9375   -8941.8509   -8874.2576   -2310.6112    18845.147    4.2677124 
    2920      593.361   -8940.6178   -8874.4275   -2203.2741    18838.286    4.2744281 
    2930    601.74406   -8941.7103   -8874.5848   -2668.4552    18828.189    4.2846955 
    2940    621.12258   -8944.0549   -8874.7677   -3386.1432    18814.231    4.2996759 
    2950    617.56006   -8943.8968    -8875.007   -3128.1102    18795.594    4.3179985 
    2960    611.03129    -8943.445   -8875.2836   -1979.0872    18772.723    4.3367432 
    2970    622.94961    -8945.071     -8875.58    -814.4243    18747.249     4.354922 
    2980    637.67295   -8947.0566   -8875.9232    182.17868     18720.91    4.3748911 
    2990    630.02697   -8946.6127   -8876.3322    1352.0257    18695.226    4.3994041 
    3000    617.58604    -8945.674   -8876.7814    2581.2617    18671.887    4.4275898 
    3010    612.85263   -8945.6166    -8877.252    3105.1666    18652.531     4.454612 
    3020    609.55193   -8945.7188   -8877.7224    2903.8404    18637.869    4.4774382 
    3030    639.64014   -8949.5691   -8878.2163    1770.8041    18627.487     4.496071 
    3040    648.57026   -8951.1279    -8878.779    963.63026    18619.842    4.5143242 
    3050    618.37128   -8948.3386   -8879.3583    1109.9532    18613.818    4.5373781 
    3060    608.07718   -8947.7244   -8879.8925    919.85981    18609.417    4.5667771 
    3070     594.5765   -8946.6712   -8880.3453    753.81321    18606.442    4.6003864 
    3080    595.69885   -8947.1643   -8880.7132    97.297826    18604.534    4.6348165 
    3090    633.72891   -8951.7497   -8881.0563   -1426.6073     18602.67    4.6688586 
    3100     645.7956   -8953.4789   -8881.4395   -2542.2272    18598.847    4.7036134 
    3110    651.32445   -8954.5498   -8881.8936   -3114.9368    18591.472      4.73854 
    3120    651.82939   -8955.1395   -8882.4269   -3350.8484    18579.742    4.7726108 
    3130    635.46726    -8953.896   -8883.0087   -2895.5824    18563.453    4.8070024 
    3140    635.41341   -8954.4862   -8883.6049   -2528.6434    18543.212    4.8438007 
    3150    639.62336   -8955.5539   -8884.2029   -2030.5446    18519.633    4.8837017 
    3160    637.36612   -8955.8876   -8884.7884   -1285.7394    18493.525    4.9271799 
    3170    647.56886   -8957.6201   -8885.3828   -689.44902    18465.958    4.9746157 
    3180    643.02766   -8957.7272   -8885.9965    281.09262    18437.872    5.0231595 
    3190    642.84964   -8958.3124   -8886.6016    1269.7401    18410.645    5.0679185 
    3200    659.11347   -8960.7418   -8887.2167    1220.5039    18385.485    5.1107874 
    3210     661.2471   -8961.6212   -8887.8581    1308.7975    18362.507    5.1561869 
    3220    666.13456   -8962.8493    -8888.541      1270.36    18341.721    5.2020863 
    3230    657.18279   -8962.5619   -8889.2522    1624.2602    18323.114    5.2462612 
    3240    655.71809   -8963.1209   -8889.9746    1588.8349    18307.051    5.2877298 
    3250    663.64739   -8964.7547   -8890.7238    574.88988    18293.338    5.3251666 
    3260    663.48547   -8965.5254   -8891.5126   -274.53643    18280.673    5.3593813 
    3270    656.87559   -8965.5954     -8892.32   -301.28841    18267.963    5.3957508 
    3280    662.06133   -8966.9924   -8893.1384   -409.26161    18255.022      5.43853 
    3290    658.90306   -8967.4614   -8893.9597   -382.54732    18241.761    5.4866228 
    3300    664.44868   -8968.9099   -8894.7897   -400.47618    18228.214    5.5357009 
    3310     672.3474   -8970.6621   -8895.6607   -866.54648     18214.31    5.5851778 
    3320    667.85023   -8971.0863   -8896.5866   -1489.3119     18199.43    5.6379689 
    3330    642.89749   -8969.2325   -8897.5163   -1702.0359    18182.831    5.6975096 
    3340    636.91898   -8969.4417   -8898.3924   -2392.2647    18164.116    5.7639479 
    3350    655.88083   -8972.4164   -8899.2519   -3000.1313    18142.466     5.836357 
    3360    657.45441   -8973.4409   -8900.1009   -2395.8265    18117.327    5.9144635 
    3370    676.85347   -8976.4676   -8900.9636   -1607.1815     18089.47    5.9927905 
    3380    680.25092    -8977.771   -8901.8879   -428.42038    18060.098     6.066764 
    3390    658.12757   -8976.2387   -8902.8236    674.32084    18030.801    6.1374069 
    3400    652.16895   -8976.4732   -8903.7227    1271.9769    18003.036    6.2054061 
    3410    669.06073    -8979.256   -8904.6213    1263.4693    17977.549    6.2709224 
    3420    674.75651   -8980.8351    -8905.565    1120.7033    17954.355    6.3335845 
    3430    663.82801   -8980.5938   -8906.5428     1021.703    17933.205    6.3887179 
    3440    668.89738   -8982.1509   -8907.5344    689.38218    17913.896    6.4310264 
    3450    692.42493   -8985.8433   -8908.6023    -101.5221     17895.91    6.4607666 
    3460    683.34719   -8985.9836   -8909.7552   -458.77473    17878.281    6.4830236 
    3470    663.02734   -8984.8655   -8910.9038   -129.97283    17860.565    6.5010896 
    3480    663.90254   -8986.0693     -8912.01   -395.85583    17843.012    6.5156033 
    3490    660.87098   -8986.8055   -8913.0843   -654.34245    17825.406    6.5285595 
    3500    672.77759   -8989.2042   -8914.1549   -883.21966    17807.419    6.5405236 
    3510    669.02427    -8989.884   -8915.2533   -876.91908    17788.783    6.5523787 
    3520    630.86843   -8986.6543     -8916.28    336.16526    17769.679    6.5635735 
    3530    636.76221   -8988.2089   -8917.1771    755.19325    17751.453    6.5715035 
    3540     670.3266    -8992.845    -8918.069     184.2702    17734.628    6.5803471 
    3550    682.31113   -8995.1688   -8919.0559    48.847132    17718.605    6.5953284 
    3560     677.9841    -8995.757   -8920.1268    356.46711    17703.182    6.6150901 
    3570    679.17328   -8997.0012   -8921.2383    579.76848    17688.669    6.6344209 
    3580    682.46892   -8998.5227   -8922.3923    112.02744    17675.267    6.6480223 
    3590    688.29437   -9000.3753    -8923.595   -235.91228    17662.447    6.6549199 
    3600    693.39794   -9002.1817   -8924.8321   -249.86944    17649.753    6.6590676 
    3610    698.94135   -9004.0648   -8926.0969   -408.65839    17637.156    6.6653914 
    3620    704.78549   -9006.0208   -8927.4009   -1358.1342    17624.341    6.6777917 
    3630    712.43695    -9008.222   -8928.7486   -1842.8116    17610.275    6.6996308 
    3640    714.64159   -9009.8707   -8930.1513   -1748.5883    17594.377    6.7301918 
    3650    692.84634   -9008.8343   -8931.5463   -1420.3275    17576.803    6.7677447 
    3660    683.30523   -9009.1117    -8932.888   -1542.6079    17557.945    6.8098262 
    3670     671.8102   -9009.1175   -8934.1761   -1578.2068    17537.776      6.85298 
    3680     675.1015   -9010.7311   -8935.4225   -1655.5764    17516.249    6.8959882 
    3690    688.15493    -9013.457   -8936.6922   -1663.6529    17493.357    6.9411085 
    3700    680.19691   -9013.8663   -8937.9893   -1275.0005    17469.175    6.9899827 
    3710    669.69058   -9013.9744   -8939.2694   -686.59105    17444.201    7.0408676 
    3720    672.11447    -9015.495   -8940.5196    125.46885    17419.227    7.0916451 
    3730    671.36888   -9016.6458   -8941.7536    891.91316    17395.237    7.1408923 
    3740    674.93127   -9018.2641   -8942.9745    1267.9312     17373.11    7.1873339 
    3750    706.52231   -9023.0765   -8944.2629    1173.8224    17353.199    7.2301481 
    3760    719.64226   -9025.9551   -8945.6779    1018.7542    17335.374    7.2689931 
    3770    715.52276   -9027.0102   -8947.1925    167.19199    17319.308    7.3044887 
    3780    723.78389   -9029.5097   -8948.7705   -1501.5979    17303.872    7.3392934 
    3790    725.87182   -9031.3916   -8950.4195   -2345.2067    17287.176    7.3756016 
    3800    693.98313    -9029.438   -8952.0231   -1010.5948    17268.388    7.4170077 
    3810    682.91788   -9029.6815   -8953.5009   -107.68872    17248.889    7.4643687 
    3820    700.64224   -9033.0951   -8954.9374   -225.32921    17229.809    7.5175977 
    3830    702.91042   -9034.8087    -8956.398   -477.51516    17211.056    7.5773245 
    3840    705.12926   -9036.5495   -8957.8913   -699.55515    17192.305    7.6432426 
    3850    713.24682   -9038.9969   -8959.4331   -1567.1364    17173.254    7.7190697 
    3860    716.15227   -9040.9432   -8961.0553   -2107.8786    17152.987    7.8075869 
    3870    718.04855   -9042.8472   -8962.7478   -1922.3652    17130.902    7.9047147 
    3880    726.69551   -9045.5608   -8964.4968   -1590.5536     17107.24    8.0039987 
    3890    742.97682   -9049.2061   -8966.3259   -934.03612    17082.513    8.1024076 
    3900    759.80126   -9053.0253   -8968.2683   -460.67973    17057.447    8.2045497 
    3910    744.68659   -9053.3183   -8970.2474    241.48993    17032.754    8.3167916 
    3920    741.44421   -9054.9195   -8972.2103    464.54741    17009.192    8.4379563 
    3930    759.85401   -9058.9421   -8974.1793    761.11159    16987.061    8.5660033 
    3940    771.55636   -9062.2634   -8976.1952    2007.0453    16966.849    8.6973754 
    3950     771.6841   -9064.3227   -8978.2402    2572.7862    16949.758    8.8261826 
    3960    794.10119   -9068.9341   -8980.3509    2346.3253    16936.312    8.9503385 
    3970    800.71471   -9071.9137   -8982.5928    2471.9734    16926.221    9.0717108 
    3980     754.6309   -9068.9445   -8984.7643    3559.2231    16919.603    9.1889394 
    3990    746.71921   -9070.1025   -8986.8048    3449.0173    16917.315    9.2981247 
    4000    752.77888   -9072.7935   -8988.8199    2408.6647    16919.069    9.3948822 
    4010    738.31285   -9073.1752   -8990.8153    2347.2558    16923.714    9.4728922 
    4020    735.93299   -9074.8916   -8992.7971     2076.617    16930.879    9.5310221 
    4030    723.62315   -9075.4617   -8994.7404    1211.2962     16940.14    9.5777036 
    4040    696.31143   -9074.2668   -8996.5922    442.45719    16950.485    9.6172019 
    4050    710.88833   -9077.6751   -8998.3744   -132.79625    16960.937    9.6523726 
    4060    721.78578   -9080.6968   -9000.1805    -388.9561    16970.841     9.684593 
    4070    715.40274   -9081.8308   -9002.0266   -63.315293    16979.987     9.709601 
    4080    701.33517   -9082.0941   -9003.8591    174.80736    16988.755    9.7219126 
    4090    709.98046   -9084.8953   -9005.6959   -1029.0638    16997.255    9.7186074 
    4100    701.18797   -9085.7559   -9007.5373   -2550.5043    17004.216    9.7084974 
    4110    688.45171   -9086.1187   -9009.3209   -3874.1632    17007.915    9.7010907 
    4120    694.76677   -9088.5693    -9011.067   -4877.4092    17006.901    9.6979584 
    4130    686.04871   -9089.3241   -9012.7943   -4382.4887    17000.303    9.6977152 
    4140    665.72466    -9088.697   -9014.4344   -2624.9294    16988.848    9.7007602 
    4150    658.99398   -9089.5087   -9015.9969    163.51677     16974.79    9.7060733 
    4160    643.90646   -9089.2785   -9017.4498    2276.0607    16961.371    9.7117737 
    4170    670.33611   -9093.6632   -9018.8862    2255.6728    16950.873    9.7141838 
    4180    668.30404   -9094.9069   -9020.3566    2602.1695    16943.453    9.7127888 
    4190    658.52598    -9095.268   -9021.8084     2776.676    16939.324    9.7075919 
    4200    660.44809   -9096.9196   -9023.2456    2270.2062    16938.558    9.7001789 
    4210    643.30399    -9096.442   -9024.6804    2211.1888    16940.545    9.6845959 
    4220    595.18372    -9092.361   -9025.9674     3276.307    16945.237    9.6546971 
    4230    610.70051   -9095.2482   -9027.1236    3222.0655    16953.532    9.6118159 
    4240     623.6025   -9097.7884   -9028.2246    2682.1541    16965.366    9.5656442 
    4250      629.117   -9099.4742   -9029.2952    1799.4627    16979.978    9.5225352 
    4260    639.26187   -9101.6902   -9030.3796    512.13172    16996.208    9.4816444 
    4270    640.20026   -9102.8993    -9031.484   -435.92706    17012.582    9.4462281 
    4280    633.14364   -9103.2324   -9032.6043   -1306.0533    17027.938    9.4213704 
    4290    611.48797   -9101.8922   -9033.6798   -2099.2486    17041.303    9.4066307 
    4300    615.94581   -9103.4074   -9034.6978   -3540.8914    17051.707     9.399015 
    4310    626.65899   -9105.6184   -9035.7136   -5238.3851    17057.507    9.4029379 
    4320    602.29768   -9103.8919   -9036.7047    -5386.252    17057.024    9.4222689 
    4330     602.1706    -9104.831   -9037.6579   -4530.1341    17050.202    9.4537249 
    4340    604.04829   -9105.9625     -9038.58   -3022.7751    17038.228    9.4924659 
    4350    596.24429   -9105.9742   -9039.4622   -987.09931    17023.042    9.5364661 
    4360    608.75767   -9108.1987   -9040.2908    575.39978    17007.072     9.586909 
    4370    625.51462   -9110.9005   -9041.1234    1103.1081    16992.134    9.6449129 
    4380    613.79699   -9110.4281   -9041.9582    2941.4135    16979.114    9.7071663 
    4390    614.22636   -9111.2936   -9042.7757    5049.5128    16969.973      9.76395 
    4400    619.28675   -9112.7021   -9043.6197    6000.6968    16966.956    9.8083045 
    4410    592.26457   -9110.5206   -9044.4526    5816.1134    16971.064    9.8394854 
    4420    591.35182   -9111.2116   -9045.2454    4247.0527    16981.861    9.8567445 
    4430    589.90811   -9111.7948   -9045.9896    2520.3904    16997.432    9.8618392 
    4440    594.42581   -9112.9926   -9046.6835    986.72192    17015.634    9.8569015 
    4450     597.2333   -9113.9549   -9047.3326     -707.179    17034.563    9.8464753 
    4460    596.25601   -9114.4442    -9047.931   -2684.5602    17052.146    9.8336995 
    4470    596.66209   -9115.0546   -9048.4961   -3908.2839    17066.139    9.8219778 
    4480    598.28891   -9115.7877   -9049.0477   -4318.4094    17075.137    9.8152283 
    4490    594.20868    -9115.877   -9049.5921   -4017.3838     17078.78    9.8146307 
    4500    591.99773   -9116.1612    -9050.123   -3203.5405    17077.561    9.8204791 
    4510    597.99939   -9117.3511   -9050.6434     -2394.76    17072.508    9.8327151 
    4520    612.40159   -9119.4873   -9051.1729   -1977.7269    17064.652    9.8510214 
    4530    610.12461   -9119.7831   -9051.7227   -1404.9004    17054.655    9.8705283 
    4540    612.65876   -9120.6308   -9052.2878   -1300.3777    17043.161    9.8856226 
    4550    633.12429    -9123.531   -9052.9051   -1680.1769    17030.334    9.8947628 
    4560    639.21357   -9124.9152   -9053.6099   -1446.3451     17015.88    9.9002613 
    4570     630.0153   -9124.6577   -9054.3786   -744.05222    17000.091    9.9052658 
    4580    632.27191   -9125.7105   -9055.1796   -114.10207    16983.807    9.9092587 
    4590     625.4067   -9125.7662   -9056.0011    243.85427    16967.781    9.9108602 
    4600    629.44234   -9127.0506   -9056.8353    355.50789     16952.44    9.9141208 
    4610    653.93625   -9130.6882   -9057.7407   -87.148342    16937.856    9.9212484 
    4620    629.43714   -9128.9067   -9058.6921    912.09038    16923.745     9.927142 
    4630     616.6826   -9128.4208    -9059.629    2412.3599    16911.137    9.9238861 
    4640    621.57881   -9129.8888   -9060.5507    3134.1824    16901.629    9.9130609 
    4650    635.24938   -9132.3569   -9061.4939     2767.685    16895.936    9.9030968 
    4660    614.50559   -9130.9877   -9062.4387    2274.8229    16893.663    9.8970961 
    4670    603.13743   -9130.6135   -9063.3326    1378.9618    16894.094    9.8887448 
    4680    619.03367   -9133.2774   -9064.2232    307.12728    16896.095    9.8741482 
    4690    591.91552   -9131.0987   -9065.0697    777.52539    16898.611    9.8590013 
    4700    612.40955   -9134.1891   -9065.8739   -99.980905    16901.797    9.8438534 
    4710    614.39172   -9135.2206   -9066.6842   -1486.8373    16904.747     9.830817 
    4720    590.52039   -9133.3249   -9067.4514   -1913.7043    16905.939    9.8218164 
    4730    607.90638   -9135.9928     -9068.18   -1364.9677    16904.938    9.8170497 
    4740    608.75481    -9136.802   -9068.8945   -147.35951    16902.433    9.8145149 
    4750    589.80574   -9135.3695   -9069.5757      1087.18     16899.83    9.8069506 
    4760    605.82458   -9137.8201   -9070.2394    1099.6259    16898.471    9.7904838 
    4770    606.72799   -9138.5884    -9070.907    -333.0885    16898.314    9.7747472 
    4780    592.02488   -9137.5964   -9071.5552   -1414.3694    16897.831    9.7676897 
    4790    590.07115   -9137.9894   -9072.1661   -1606.2612    16895.762    9.7690898 
    4800    588.88763   -9138.4325   -9072.7412   -1100.1726    16891.897    9.7745072 
    4810    577.39246   -9137.6697   -9073.2607   -685.63217    16886.817    9.7855446 
    4820    585.27302   -9139.0274   -9073.7393   -1469.9545    16880.869    9.8061721 
    4830    586.91054   -9139.6505   -9074.1798   -1810.8677    16873.364      9.83342 
    4840     586.8147   -9140.0491   -9074.5891   -731.25418    16864.069    9.8630724 
    4850     584.8204   -9140.1969   -9074.9593    220.16557    16854.077    9.8944766 
    4860    591.84085    -9141.322   -9075.3013   -7.7513943    16844.425    9.9309902 
    4870    593.87888   -9141.8726   -9075.6246   -675.68493    16834.944    9.9734359 
    4880    595.82031   -9142.4048   -9075.9401   -335.97802    16824.973    10.017412 
    4890    583.89276   -9141.3646   -9076.2305     767.0777     16814.87    10.060203 
    4900    571.69897   -9140.2361   -9076.4622    1852.6029    16805.885    10.098387 
    4910    576.75307   -9140.9825   -9076.6448     2285.367    16799.174      10.1292 
    4920    570.67358     -9140.42   -9076.7605    2729.8316    16795.282    10.154129 
    4930    595.29855   -9143.2399   -9076.8334    2068.1081    16794.531    10.177098 
    4940    604.04886    -9144.274   -9076.8914    772.94396     16796.16    10.197638 
    4950    602.11514   -9144.1252   -9076.9584   -352.68856    16798.691    10.215316 
    4960    614.87548   -9145.6311   -9077.0408   -1245.0331     16800.79     10.23176 
    4970    600.34349   -9144.1106   -9077.1414   -722.97486    16801.543    10.247247 
    4980    589.15754   -9142.9713   -9077.2499   -258.08605    16801.436    10.254344 
    4990     603.5868   -9144.6933   -9077.3623   -1290.7696    16800.851    10.251321 
    5000    584.45721   -9142.6687   -9077.4716   -943.58133     16798.93    10.243054 
Loop time of 1999.51 on 16 procs for 3000 steps with 864 atoms

Performance: 0.130 ns/day, 185.140 hours/ns, 1.500 timesteps/s
96.3% CPU use with 16 MPI tasks x 1 OpenMP threads

MPI task timing breakdown:
Section |  min time  |  avg time  |  max time  |%varavg| %total
---------------------------------------------------------------
Pair    | 445.18     | 1162.2     | 1929       |1541.4 | 58.12
Bond    | 0.0002265  | 0.00063649 | 0.0018759  |   0.0 |  0.00
Neigh   | 0.021335   | 0.055108   | 0.099668   |  11.1 |  0.00
Comm    | 6.0516     | 616.63     | 1337.8     |1727.6 | 30.84
Output  | 0.33349    | 0.33821    | 0.40649    |   3.0 |  0.02
Modify  | 52.079     | 220.32     | 630.11     |1319.1 | 11.02
Other   |            | 0.01616    |            |       |  0.00

Nlocal:        54.0000 ave          88 max          25 min
Histogram: 5 1 1 1 0 2 1 1 1 3
Nghost:        554.312 ave         764 max         375 min
Histogram: 4 0 1 3 0 2 2 2 0 2
Neighs:         0.00000 ave           0 max           0 min
Histogram: 16 0 0 0 0 0 0 0 0 0
FullNghs:      3064.00 ave        5982 max         648 min
Histogram: 5 1 2 0 0 2 2 0 0 4

Total # of neighbors = 49024
Ave neighs/atom = 56.740741
Ave special neighs/atom = 0.0000000
Neighbor list builds = 300
Dangerous builds = 300
unfix   2

fix     3 all npt temp 600.0 600.0 $(100.0*dt) aniso 1.01325 1.01325 $(1000.0*dt)
fix     3 all npt temp 600.0 600.0 0.10000000000000000555 aniso 1.01325 1.01325 $(1000.0*dt)
fix     3 all npt temp 600.0 600.0 0.10000000000000000555 aniso 1.01325 1.01325 1
run     20000
Per MPI rank memory allocation (min/avg/max) = 8.894 | 8.912 | 8.921 Mbytes
Step Temp PotEng TotEng Press Volume c_msd[4] 
    5000    584.45721   -9142.6687   -9077.4716   -943.58133     16798.93    10.243054 
    5010     580.0793   -9142.1591   -9077.4504    63.518299    16798.581    10.239094 
    5020    606.92992   -9145.1064   -9077.4024   -121.22661    16798.179    10.232848 
    5030    598.39696   -9144.1001    -9077.348   -1164.3789    16797.565    10.230824 
    5040    584.95174   -9142.5534   -9077.3012   -2033.1452    16795.583     10.23519 
    5050    566.95627   -9140.4646   -9077.2198   -1542.5909    16791.377    10.247579 
    5060    571.37987   -9140.8065   -9077.0683   -1055.9949    16785.324    10.261672 
    5070    606.61702   -9144.5097   -9076.8406   -108.01279     16778.08     10.27421 
    5080    605.28351      -9144.1   -9076.5797    1326.2632    16770.752    10.289147 
    5090    586.30191   -9141.7046   -9076.3017    2040.9281    16764.932    10.309892 
    5100     620.3023   -9145.1921   -9075.9964    1240.8109    16761.342    10.335161 
    5110     608.3573   -9143.5515   -9075.6883    1652.1431    16759.366    10.362048 
    5120    587.16994   -9140.9009   -9075.4013    1884.9314    16759.309    10.386664 
    5130    597.09033   -9141.6911   -9075.0847    432.81055    16761.298    10.402812 
    5140    611.56856   -9142.9388   -9074.7174   -1153.2916    16763.806    10.409306 
    5150    613.60058   -9142.7837   -9074.3357   -1808.9293    16765.066     10.41568 
    5160    618.22342   -9142.9106   -9073.9468   -1901.2204    16764.246    10.427856 
    5170    620.26737   -9142.7519   -9073.5602    -1979.318    16761.185    10.439564 
    5180    613.31134    -9141.597   -9073.1812   -1903.7903    16755.843    10.449952 
    5190    620.10255   -9141.9951   -9072.8217   -1686.2853    16748.263    10.460776 
    5200    625.93611   -9142.3053   -9072.4811   -919.72841     16738.75    10.474169 
    5210    623.72144   -9141.7481   -9072.1711    559.86127    16728.239     10.48307 
    5220    628.13698   -9141.9608   -9071.8912    1284.6365    16718.275    10.482445 
    5230     648.1743   -9143.9739   -9071.6691    1513.4048    16709.755    10.475041 
    5240     627.7395   -9141.5586   -9071.5333    2322.0869    16703.105    10.465458 
    5250    620.30448    -9140.676   -9071.4801    1701.6612    16698.988    10.455152 
    5260    636.53672   -9142.4819   -9071.4752    727.84966    16696.834    10.445627 
    5270    641.52257   -9143.1084   -9071.5456     771.2348    16695.639    10.438851 
    5280    629.64321   -9141.9456    -9071.708    1132.8303     16695.37    10.435626 
    5290    653.49018   -9144.9076   -9072.0098    187.89795    16696.273    10.433977 
    5300    644.88167   -9144.4445    -9072.507   -646.34852    16697.449    10.433453 
    5310    629.98923   -9143.4792   -9073.2029   -967.74472    16697.928    10.435294 
    5320    653.66537   -9147.0514   -9074.1341   -226.00614    16697.402    10.440246 
    5330    625.59672   -9144.8893   -9075.1031   -601.37815    16696.363    10.448245 
    5340    671.89299    -9151.066   -9076.1153   -972.40931    16694.588    10.452089 
    5350    653.91652   -9150.0474    -9077.102   -2327.1597    16691.571    10.452094 
    5360    698.77182    -9155.999   -9078.0499   -3220.3106    16685.999    10.462408 
    5370    646.59574   -9151.0574   -9078.9286    -3044.063    16676.858    10.483983 
    5380    704.99417   -9158.3183   -9079.6751   -1669.9152    16664.258    10.502598 
    5390    625.15415   -9150.1157   -9080.3788    2284.6639    16650.026    10.516881 
    5400    643.26081    -9152.805   -9081.0482    5876.2333    16638.398    10.524554 
    5410    673.40474   -9156.8266   -9081.7072    6275.5153    16633.198    10.520982 
    5420    698.33898   -9160.3672   -9082.4664    5091.9995    16634.956    10.503596 
    5430    676.69234   -9158.6928   -9083.2067    3627.9924    16642.522     10.48034 
    5440    698.59394   -9162.2054   -9084.2762    1731.0122    16654.237    10.465366 
    5450    634.58705   -9156.0115   -9085.2223    244.80253    16668.017    10.452267 
    5460    696.24742   -9163.9228   -9086.2554   -514.42065    16682.251    10.432016 
    5470    608.47948   -9154.9995   -9087.1227   -1573.7876    16695.897    10.413602 
    5480    701.00317   -9166.2536   -9088.0556   -1659.6148    16707.808    10.398366 
    5490     613.1044   -9157.1243   -9088.7316   -3415.2241     16717.43    10.388903 
    5500    690.42014   -9166.5871   -9089.5697   -4153.5772    16723.227    10.383329 
    5510     637.0042   -9161.4491   -9090.3904    -4520.761    16724.105    10.387105 
    5520    683.96092   -9167.6562   -9091.3593   -4118.5793    16719.788    10.397434 
    5530    657.86218   -9165.5253   -9092.1398   -3788.2444    16710.497    10.411201 
    5540    664.90917   -9167.3294   -9093.1578   -1879.9951    16696.848    10.428861 
    5550    632.28614    -9164.473   -9093.9405     -582.801    16680.698    10.449059 
    5560    677.45121   -9170.5255   -9094.9548    1510.5451    16663.905    10.473111 
    5570    607.86175   -9163.5849    -9095.777    3041.0307    16648.683    10.488016 
    5580    662.89991   -9170.6491   -9096.7016     4206.364      16636.9    10.489322 
    5590    579.18941   -9161.9873   -9097.3778    3738.4647    16629.633     10.48905 
    5600    703.77344   -9176.6886   -9098.1817         2947    16626.503    10.486358 
    5610    593.98174    -9165.099   -9098.8395    2635.7742    16626.702    10.479013 
    5620    654.46155   -9172.5523   -9099.5462    3291.7616    16629.991    10.463874 
    5630    584.63095   -9165.5415   -9100.3251    2926.9619    16636.974    10.450833 
    5640    672.01045   -9175.9772   -9101.0135    1626.0651    16647.255    10.435445 
    5650    595.58233   -9168.0594   -9101.6213    221.28856    16659.411     10.41448 
    5660    633.16066   -9172.9429   -9102.3129   -364.98323    16671.929    10.384652 
    5670    560.82064   -9165.3792   -9102.8188   -1977.1462    16683.924     10.35591 
    5680    653.47061   -9176.2722   -9103.3766   -3528.4658    16693.658    10.336073 
    5690    576.51532   -9168.1216   -9103.8104    -3111.353    16699.595    10.330074 
    5700    604.49626   -9171.7668   -9104.3343   -2572.2922    16701.918    10.333319 
    5710    575.81793    -9169.145   -9104.9116   -3142.4849    16701.246    10.348121 
    5720    638.64729   -9176.6725   -9105.4304   -3010.9961    16697.081    10.371526 
    5730    580.77147   -9170.7662   -9105.9803   -1854.1442    16689.462    10.399413 
    5740    620.79456   -9175.7473   -9106.4967   -512.31438      16679.7    10.424524 
    5750    638.70375    -9178.298   -9107.0497    5.4271278    16669.114    10.448515 
    5760    636.01474    -9178.596   -9107.6476     1363.786    16658.504    10.471183 
    5770    596.41741   -9174.6168   -9108.0856    2003.7317    16649.185    10.490562 
    5780    604.14637   -9176.0333   -9108.6398     3154.586    16642.176    10.501808 
    5790    569.68766   -9172.5773   -9109.0278    3468.7729     16638.63    10.504203 
    5800    607.52432    -9177.262   -9109.4917    2621.4103    16639.036    10.500439 
    5810    620.11892    -9179.046   -9109.8708    722.80628    16642.401    10.490188 
    5820    627.42869   -9180.4313   -9110.4407   -417.01496    16646.766    10.471937 
    5830    621.19794   -9180.2426    -9110.947     -617.887    16650.917     10.45186 
    5840    590.76842   -9177.5958   -9111.6947   -1941.8414    16654.334    10.438058 
    5850    680.55903   -9188.2605   -9112.3431   -2659.1855    16655.544    10.430736 
    5860    552.50059   -9174.4602   -9112.8279   -1652.7158    16653.785    10.428923 
    5870    652.05597   -9186.3084   -9113.5706   -827.67226    16649.938     10.42554 
    5880    548.38136   -9175.0423   -9113.8695   -299.71282    16644.836    10.424546 
    5890    621.85873   -9183.6708   -9114.3015    939.28923    16639.373    10.423369 
    5900    580.56137   -9179.3294   -9114.5669    280.49533    16634.631    10.427523 
    5910    647.11787   -9187.1382   -9114.9512    1014.4179    16630.319    10.432822 
    5920    567.46844   -9178.5348   -9115.2329    1506.0953    16627.038    10.438997 
    5930    645.87652   -9187.7056   -9115.6571    1050.4652      16625.4    10.443219 
    5940    622.03731   -9185.4465   -9116.0573    1253.3427    16625.045     10.45235 
    5950    606.30303   -9184.3495   -9116.7155    1673.5316    16626.105    10.467821 
    5960    626.01108    -9186.832   -9116.9996    616.42464    16628.815    10.484496 
    5970    618.77152   -9186.5362   -9117.5113   -703.04834    16632.132    10.503653 
    5980       612.28   -9186.2652   -9117.9644   -2475.7869    16634.543     10.52589 
    5990    589.05304   -9184.1158   -9118.4061   -3894.4773    16634.118    10.556432 
    6000    554.45713    -9180.574   -9118.7235   -3793.3981    16629.397    10.602871 
    6010    626.65902   -9189.0033   -9119.0985   -2729.3497    16620.388    10.660219 
    6020    574.66257    -9183.538   -9119.4335   -487.82565    16608.385    10.721707 
    6030    622.37482   -9189.2538    -9119.827    1126.3784    16595.718    10.777336 
    6040    558.39626   -9182.3828   -9120.0929    1012.0492    16584.055    10.829599 
    6050    624.92393   -9190.1488   -9120.4376    1555.6684    16573.577    10.881682 
    6060    570.13608   -9184.2391   -9120.6396    2234.9623    16564.817    10.930483 
    6070    601.26336   -9187.9667   -9120.8949    3472.4172    16558.713    10.965749 
    6080     603.3514   -9188.4688    -9121.164    3663.1264    16556.536     10.99755 
    6090    600.86024   -9188.4686   -9121.4417    2791.8648    16558.584     11.03461 
    6100    611.91163   -9190.0225   -9121.7628    1697.1287    16563.909    11.064667 
    6110    562.72783   -9184.8219   -9122.0488    434.23358    16571.276     11.08846 
    6120    618.73069   -9191.3565   -9122.3361   -1295.6723    16579.238    11.108666 
    6130    579.04292   -9187.1634   -9122.5703   -3333.3822    16585.698    11.115449 
    6140    605.81956   -9190.4461    -9122.866   -3661.4317    16588.597     11.11326 
    6150    559.34225    -9185.445   -9123.0495   -4425.7462    16587.213    11.121895 
    6160    616.37575    -9192.045   -9123.2874   -4835.4538    16580.703    11.139481 
    6170    590.94017   -9189.4004   -9123.4801   -3447.3397    16568.711    11.162494 
    6180    597.86106   -9190.3779   -9123.6856   -1741.1405    16552.591    11.189606 
    6190    593.24263   -9189.9595   -9123.7824   -522.12857    16534.152    11.215424 
    6200    609.31878   -9191.7768   -9123.8064    916.71364    16514.869    11.241626 
    6210    593.50884   -9190.0809   -9123.8741    2010.0753    16496.337    11.272544 
    6220    604.56066   -9191.4031   -9123.9634    2711.4004    16479.828    11.296287 
    6230    604.37764   -9191.4822    -9124.063    4316.5694    16466.443    11.309819 
    6240    599.93769   -9191.0663   -9124.1423    4916.4424     16457.74    11.327937 
    6250    604.26928   -9191.6982    -9124.291    4632.1331    16454.569    11.349116 
    6260     598.3038   -9191.2316   -9124.4899    4132.8161    16456.831    11.358784 
    6270    571.13914   -9188.4144    -9124.703    2920.5988    16463.832    11.360216 
    6280    621.95982   -9194.3474   -9124.9668    1494.0052    16474.345    11.358546 
    6290    595.65055   -9191.5575   -9125.1118    800.48568    16486.828    11.349648 
    6300    612.56936   -9193.7167   -9125.3836    -35.67923     16500.41    11.336288 
    6310    607.92682   -9193.4459   -9125.6307   -1133.5395    16514.193    11.333427 
    6320    576.66334   -9190.3183   -9125.9906    -2702.228    16526.837    11.334203 
    6330    616.57755   -9195.1028   -9126.3226    -3736.449    16536.638    11.333291 
    6340    572.62033   -9190.3699   -9126.4932   -4476.7256    16542.257    11.341996 
    6350    619.67826   -9195.9018   -9126.7758   -3452.4835    16542.969    11.354329 
    6360    574.13205   -9191.0437   -9126.9984   -3385.5634    16539.413    11.365732 
    6370    633.37447   -9197.9757   -9127.3218   -2482.5509    16531.998    11.381296 
    6380    548.40669   -9188.6747   -9127.4991   -1506.1101    16521.553     11.40077 
    6390    611.16505   -9195.9183   -9127.7419   -504.29789    16509.238    11.415943 
    6400    596.31827   -9194.4193   -9127.8991    404.92118    16496.179     11.43643 
    6410    576.48133   -9192.3594    -9128.052     2767.311    16483.632    11.456009 
    6420    594.08892   -9194.5015     -9128.23    4072.6709    16473.991    11.464964 
    6430    575.27678   -9192.5014   -9128.3284    3217.7121    16468.615    11.467444 
    6440    655.22082   -9201.6267   -9128.5359    2994.6555     16466.92    11.459928 
    6450    585.38323   -9193.9961   -9128.6958    3210.3964    16468.595     11.44558 
    6460     615.4651   -9197.6691    -9129.013    3390.7796    16473.992    11.436978 
    6470    563.62297    -9192.039   -9129.1661     2538.457    16483.171     11.43455 
    6480    597.98631   -9196.0941   -9129.3878    881.27532    16495.308    11.428745 
    6490    603.82286   -9196.9584    -9129.601   -269.15579    16508.869    11.429087 
    6500     575.5572   -9194.0015   -9129.7972   -1956.0746    16522.332    11.433248 
    6510    598.64288   -9196.7983   -9130.0187   -2698.5369    16533.926    11.431988 
    6520    529.23822   -9189.1502   -9130.1129   -3496.0904    16542.585    11.434324 
    6530    577.40108   -9194.6515   -9130.2415   -4043.1867    16547.524    11.451684 
    6540    597.45437   -9196.9232   -9130.2763   -4660.2979     16547.96    11.475518 
    6550    585.48703   -9195.5925   -9130.2805   -3386.7568    16543.338    11.497665 
    6560    588.58192   -9196.0369   -9130.3797   -1790.6533    16534.676    11.525437 
    6570    578.51903   -9194.8624   -9130.3278   -179.18805    16523.618    11.557277 
    6580    564.20313   -9193.0604   -9130.1227    747.29856    16511.943    11.582411 
    6590    602.38673   -9197.1492    -9129.952    1261.9571    16500.822    11.611899 
    6600     569.7943   -9193.2252   -9129.6638     1928.682    16491.021    11.655934 
    6610    598.14728   -9196.0956   -9129.3714    3642.5494    16483.491    11.701427 
    6620    599.24114   -9195.7828   -9128.9365    4473.1146    16479.833    11.738832 
    6630    629.43297   -9198.7989   -9128.5847    4656.9349    16481.154    11.761096 
    6640    598.19073   -9194.7715   -9128.0425    3787.5955    16487.644    11.759623 
    6650    588.71698   -9193.1884   -9127.5161    2290.4191    16498.517    11.735506 
    6660    603.79317   -9194.3832   -9127.0291   -59.094607    16512.129    11.704371 
    6670    590.10913   -9192.1837   -9126.3562   -1866.0938     16526.01    11.672765 
    6680    624.28889   -9195.4256   -9125.7853    -3280.466    16538.099    11.637769 
    6690    635.17507   -9196.1162   -9125.2614   -3697.6028    16546.914     11.60318 
    6700    619.35611   -9193.9744   -9124.8843   -2652.4777    16551.954    11.580066 
    6710     587.4854   -9190.1352   -9124.6003   -1468.0216    16554.088    11.574343 
    6720    624.48183   -9194.1556   -9124.4938    107.86602    16554.664    11.574167 
    6730    578.30444   -9188.6537   -9124.1429    907.24887    16555.207    11.570991 
    6740    619.57242   -9193.0218   -9123.9076    834.99695    16556.743    11.565327 
    6750    651.34259   -9196.4066   -9123.7483    902.91106     16559.37    11.558252 
    6760    578.02553   -9187.8279   -9123.3482    606.10717    16563.088    11.551639 
    6770     690.3405    -9200.428   -9123.4195    237.65379    16567.554    11.551918 
    6780    573.26405    -9187.291   -9123.3426   -99.953877    16572.227    11.562127 
    6790    659.70712   -9197.0968   -9123.5055   -131.60448    16576.839    11.570446 
    6800    594.68144   -9189.8207   -9123.4831   -1525.9661    16581.069    11.579158 
    6810    668.93011   -9198.3142   -9123.6941   -1693.9224    16583.739    11.588747 
    6820    575.79124   -9188.0369   -9123.8066   -2475.8624    16584.242    11.598385 
    6830    655.94931   -9197.1962   -9124.0241   -2415.0794    16581.925    11.606076 
    6840    599.18879    -9191.114   -9124.2736   -2151.0085     16576.73     11.62433 
    6850    633.82584   -9195.3689   -9124.6647    -856.1153    16569.045    11.650049 
    6860    616.54887   -9193.8042   -9125.0273     494.4399    16560.226    11.676735 
    6870      599.108   -9192.1729   -9125.3415    1322.8247    16551.722     11.70192 
    6880     653.4502    -9198.703   -9125.8096    1654.6007    16544.498    11.727127 
    6890    615.45668    -9194.747   -9126.0919    1818.3897    16538.919    11.754155 
    6900    671.71842   -9201.5531   -9126.6219    2577.8418    16535.397    11.774056 
    6910    597.93403   -9193.7984    -9127.098     2410.743      16534.7    11.788181 
    6920    620.29146   -9196.8207   -9127.6263    1531.1344    16536.772    11.799704 
    6930    565.11183   -9191.0427   -9128.0036   -1820.2183    16540.392     11.80686 
    6940    649.66089   -9200.8437    -9128.373    -4376.855    16542.126    11.810744 
    6950    599.41117   -9195.5376   -9128.6724   -5779.4058    16538.938    11.827042 
    6960    662.46124   -9202.9443   -9129.0457    -4661.661    16529.293    11.851881 
    6970    636.28973   -9200.3874   -9129.4083   -2165.3051    16514.166    11.876842 
    6980    636.70781   -9200.9406   -9129.9149    106.10983    16496.137    11.907922 
    6990    650.81274   -9202.9475   -9130.3483    694.66077    16477.513    11.947149 
    7000     641.2983   -9202.2071   -9130.6693     1034.517    16459.071     11.97966 
    7010    613.57561   -9199.4827   -9131.0374    1891.4213    16441.328    11.999431 
    7020    645.65909   -9203.4673   -9131.4431    2853.6025    16425.383    12.015807 
    7030    610.09766   -9199.8774   -9131.8201    3634.9436    16412.418    12.033049 
    7040    623.09881   -9201.7946    -9132.287    4709.0213    16403.403    12.046256 
    7050     606.3567    -9200.319    -9132.679    3990.6532    16399.377    12.060148 
    7060    630.72597   -9203.5409   -9133.1825    3107.3423    16399.861    12.074939 
    7070    616.61788   -9202.4113   -9133.6267    1644.7965    16403.672    12.081874 
    7080    609.80987   -9202.0467   -9134.0215    1066.4035    16409.501    12.078095 
    7090     634.8976   -9205.2669   -9134.4431    222.00485    16416.585    12.068537 
    7100    579.56636    -9199.476   -9134.8245   -1261.1517    16424.011    12.057244 
    7110    669.79575   -9210.2626   -9135.5459   -2996.9827    16430.147    12.046575 
    7120    564.44025   -9198.7813   -9135.8171   -4572.7416    16432.837     12.05095 
    7130    604.77018   -9203.6582   -9136.1952   -4712.2097    16430.557     12.07659 
    7140     612.2316   -9204.8553   -9136.5599   -5179.2381    16422.844     12.11797 
    7150    590.33286   -9202.8439   -9136.9914   -3782.1552    16409.406    12.165802 
    7160    639.27413   -9208.7507   -9137.4387   -1284.1743     16391.66    12.230626 
    7170    579.56246   -9202.4173   -9137.7663    168.76519    16371.891    12.308104 
    7180    651.06829   -9210.8361   -9138.2085     2552.084    16352.031    12.377121 
    7190    583.28547   -9203.4703   -9138.4039    4332.2638    16334.476    12.444432 
    7200    619.84429    -9207.796   -9138.6514    7228.9846    16321.672    12.506613 
    7210    599.58753   -9205.8558   -9138.9709    9500.6286    16316.787    12.544688 
    7220    585.16058   -9204.8599   -9139.5844    8480.2009    16322.253    12.561748 
    7230     651.1352    -9212.641   -9140.0059    5277.6855    16337.219    12.572522 
    7240    590.59878   -9206.2525   -9140.3703    1812.7874    16358.324    12.574635 
    7250    619.70236    -9210.008   -9140.8793   -1080.5183    16381.984    12.563912 
    7260    611.83412   -9209.4869   -9141.2359   -2944.5266    16405.011    12.553206 
    7270    632.15192   -9212.1923   -9141.6748   -4888.0824    16424.977    12.539116 
    7280    588.45876   -9207.7078   -9142.0643   -4855.1596    16439.849    12.513938 
    7290    550.83931   -9203.7599    -9142.313   -5229.7518    16449.215    12.483559 
    7300    576.09887    -9206.813   -9142.5483   -5639.0403    16452.798    12.455335 
    7310     563.2615   -9205.5386   -9142.7059   -5777.8368    16450.087    12.427368 
    7320    589.42487    -9208.611   -9142.8598   -4479.6203     16440.96    12.400043 
    7330    598.15868   -9209.8337   -9143.1082   -1945.6416    16426.767    12.379336 
    7340    598.55569   -9209.8843   -9143.1145   -187.94997    16409.972    12.360999 
    7350    579.22482   -9207.6801   -9143.0667    466.64245    16392.636    12.334317 
    7360    649.17838   -9215.5318    -9143.115     1943.204    16375.841    12.299377 
    7370    581.02238   -9207.8686   -9143.0547    3324.7335    16360.995    12.268196 
    7380    602.07281   -9210.2399   -9143.0778    5320.4636    16349.944    12.239447 
    7390    609.90922   -9211.1462   -9143.1099    5761.2588    16344.702    12.210974 
    7400    558.60324   -9205.4424   -9143.1294    4686.2168     16345.79    12.187861 
    7410    666.31215   -9217.7016   -9143.3735    3191.1737    16352.111    12.168969 
    7420    592.11417   -9209.4151   -9143.3639    1316.8869    16361.815    12.160464 
    7430    598.46685   -9210.3263   -9143.5664    1348.4036    16373.386    12.167886 
    7440    627.95267   -9213.8089   -9143.7598    1618.4816    16386.665    12.182075 
    7450    582.76582   -9208.9357   -9143.9273    723.23706    16401.694    12.198515 
    7460    632.00513   -9214.7005   -9144.1994   -1365.5244     16417.61    12.219363 
    7470    582.19513   -9209.3275   -9144.3828   -4506.1957    16431.981    12.234737 
    7480    626.95416   -9214.6542   -9144.7165   -6358.1533    16441.484    12.246399 
    7490    608.00385   -9212.8453   -9145.0215    -6166.971    16443.989    12.269862 
    7500    572.69018   -9209.3103   -9145.4258   -4836.4005     16439.67    12.301461 
    7510     620.4971   -9215.1481   -9145.9307   -3594.4151    16429.917    12.337848 
    7520    546.86922   -9207.3214   -9146.3173   -2658.3178    16415.916    12.383801 
    7530    595.41956   -9213.1795   -9146.7595   -939.89205    16398.974    12.428774 
    7540    621.75311   -9216.4592   -9147.1017   -5.7856528    16380.793    12.464794 
    7550    570.01972   -9211.0634   -9147.4768    2072.4808    16362.677    12.490897 
    7560    606.93689   -9215.6625   -9147.9578    4717.2815    16346.918       12.502 
    7570    602.21155   -9215.3414   -9148.1638     5726.576    16336.164    12.496962 
    7580    609.75961    -9216.462   -9148.4424    5690.7581    16331.662    12.483512 
    7590    624.44754   -9218.5607   -9148.9027    6466.6685     16333.69    12.469288 
    7600    572.44542   -9213.1343   -9149.2772    4690.0653    16342.672    12.446197 
    7610    604.51202   -9217.1799   -9149.7457    1612.2965    16356.905    12.408252 
    7620    602.41161   -9217.3583   -9150.1583   -989.52522    16373.075     12.37062 
    7630     572.6387   -9214.2755   -9150.3968   -3373.2978    16388.153    12.341031 
    7640    622.55163   -9220.1642   -9150.7176   -4076.2728    16399.715    12.316759 
    7650    557.25506   -9213.0233   -9150.8607   -3873.5413    16406.734    12.306389 
    7660    554.88565   -9212.8838   -9150.9854   -3578.3735    16409.416    12.309741 
    7670    608.81547   -9219.1301   -9151.2158   -2154.5221    16408.262     12.31128 
    7680    543.09245   -9211.7427   -9151.1599   -1370.5125    16404.473    12.315584 
    7690     593.9972   -9217.4225   -9151.1612    -2081.179    16399.017    12.327824 
    7700    625.82283   -9220.9495    -9151.138    -2053.588    16391.359    12.336327 
    7710    566.23344   -9214.2711   -9151.1069   -1400.4163    16381.323    12.348766 
    7720    597.85278   -9217.8176   -9151.1263   -791.27417    16369.713    12.379046 
    7730    576.40197   -9215.3287   -9151.0302     -54.8146    16357.149    12.413766 
    7740    589.93714   -9216.7142   -9150.9059    1214.8305      16344.5    12.450992 
    7750    615.16094   -9219.4411    -9150.819    2640.7816    16333.216    12.501202 
    7760    576.79618   -9215.0456   -9150.7031    3713.0855    16324.807    12.547151 
    7770    606.05849   -9218.2901   -9150.6834    4552.9472    16320.552    12.584236 
    7780    606.68749   -9218.3632   -9150.6863    5872.4362    16321.448    12.618071 
    7790    565.99678   -9213.6561   -9150.5183    5569.5802    16328.629    12.633885 
    7800    577.84597   -9214.9008   -9150.4412    3585.2226    16342.006    12.632254 
    7810    605.00248   -9217.9686   -9150.4797     1417.031    16359.537    12.628739 
    7820    600.04782   -9217.4367   -9150.5004   -874.70377    16378.626    12.618153 
    7830    587.90426   -9215.9088   -9150.3272   -3104.6493     16396.88     12.60482 
    7840    610.34178   -9217.9753   -9149.8907   -4429.4514    16411.929    12.600979 
    7850    588.63604   -9215.3986   -9149.7354   -5546.4464    16422.038    12.594921 
    7860    606.48179   -9217.3465   -9149.6925   -6690.6181    16425.963    12.574484 
    7870    617.23658   -9218.5101   -9149.6565   -6259.7983    16422.467    12.560114 
    7880    544.06196   -9210.2648   -9149.5738   -4861.8783    16411.871    12.551292 
    7890    609.15787   -9217.4238   -9149.4714   -2361.7376    16395.935    12.532668 
    7900    579.63329   -9213.9205   -9149.2615   -94.428512    16377.194    12.518644 
    7910    593.55368   -9215.1844   -9148.9726    2209.4548     16358.42    12.514847 
    7920    668.48322   -9223.6068   -9149.0365    4309.1305    16342.199    12.509984 
    7930    582.23422   -9213.6287   -9148.6796    5973.2084    16330.633    12.513445 
    7940     609.1318   -9216.5074   -9148.5578    7082.4061    16325.728    12.524242 
    7950    614.57832   -9217.0171   -9148.4599     6424.242    16328.586     12.52551 
    7960    588.77247    -9214.031   -9148.3526    4087.2717    16338.423    12.520718 
    7970    624.47513   -9217.9747   -9148.3136    1806.0256    16352.963    12.517311 
    7980    592.10661   -9214.3457   -9148.2953   -115.62365    16369.628    12.513521 
    7990    587.62659   -9213.7643   -9148.2137   -2099.6589    16386.155     12.52108 
    8000    607.44205   -9215.8379   -9148.0768   -3503.3557     16400.49     12.54325 
    8010    594.66877    -9214.304   -9147.9678   -3908.6165    16411.079    12.570314 
    8020    606.64776    -9215.951   -9148.2785    -4138.935    16417.275    12.605417 
    8030    586.50838   -9213.5317   -9148.1058   -4166.2429    16418.783    12.652665 
    8040    625.06787   -9217.6729   -9147.9456   -3535.7166    16415.662    12.702371 
    8050    594.70102   -9214.0614   -9147.7216   -2945.0601    16408.536    12.749437 
    8060    587.59731   -9213.0785   -9147.5312   -1178.9993    16398.348    12.786651 
    8070    655.10693   -9220.4547   -9147.3765   -210.69463    16386.704    12.802773 
    8080    610.11122   -9215.1895   -9147.1307    2076.9892    16374.894    12.804222 
    8090    625.95001   -9216.8665   -9147.0409    6496.0978    16365.715    12.798343 
    8100    606.61463   -9214.5833   -9146.9145    9014.2644    16363.594    12.772528 
    8110     618.3901   -9215.7164    -9146.734    9123.9503    16371.407    12.716018 
    8120    661.70794   -9220.3662   -9146.5517    7925.2945    16389.459    12.631758 
    8130    629.07896   -9216.6823   -9146.5076    4480.5524    16416.091      12.5238 
    8140    659.37532   -9220.2665   -9146.7121    983.17902    16447.715    12.407259 
    8150    627.95999   -9216.9001   -9146.8502   -1360.0694    16480.375    12.300819 
    8160    574.97857   -9211.0078   -9146.8681   -3357.1527    16511.195    12.202376 
    8170    578.33152   -9211.2914   -9146.7777   -6274.1765     16537.86    12.115432 
    8180    605.64736   -9214.1625   -9146.6017   -8492.3485    16557.235    12.056389 
    8190    600.26796   -9213.5552   -9146.5944   -9759.2147    16566.671    12.021796 
    8200    582.60699   -9211.5249   -9146.5342   -9816.2918    16564.929    12.008713 
    8210    665.46547   -9221.1714   -9146.9377    -7057.178    16552.334    12.025644 
    8220    581.83408   -9212.0073   -9147.1028     -3308.32     16531.81    12.058303 
    8230    584.67313   -9212.5979   -9147.3768    769.55732    16507.963     12.09283 
    8240    643.15533   -9219.3847   -9147.6397    3591.9183    16485.351    12.136396 
    8250    574.36854   -9211.7042   -9147.6325    5194.2834    16466.981      12.1803 
    8260    646.98237   -9220.2981   -9148.1262    6039.7571    16454.694    12.206757 
    8270    608.59931   -9216.3342    -9148.444    5798.3504    16449.232    12.228103 
    8280     568.6775    -9212.358   -9148.9212    5951.9013    16450.461    12.247722 
    8290    650.06887   -9221.9268   -9149.4106     6113.681    16458.402    12.254924 
    8300    584.46693   -9214.8605   -9149.6624    4841.1653    16472.738    12.265876 
    8310    616.32693   -9218.7693   -9150.0171    3488.6427    16492.437    12.283523 
    8320    634.06119   -9221.2442   -9150.5138    1471.3021    16515.873    12.293328 
    8330    563.30914   -9213.9134   -9151.0754   -1969.4884    16540.404    12.299673 
    8340    639.40736   -9222.7378    -9151.411    -4206.902    16562.488    12.312467 
    8350    564.77403    -9214.672   -9151.6706   -5802.2521     16579.41    12.325875 
    8360    576.55586   -9216.3477   -9152.0321   -6984.2004    16589.563    12.331885 
    8370    641.94621   -9223.9905   -9152.3804   -7388.1704    16591.729    12.337534 
    8380    566.77069   -9215.8923   -9152.6682   -6376.5324    16585.465    12.339892 
    8390     595.6986    -9219.519    -9153.068    -3698.186    16572.258    12.334265 
    8400    591.43681   -9219.1927   -9153.2171     -1228.89    16554.979    12.339518 
    8410    574.48444   -9217.4625   -9153.3779   -31.622736    16536.357    12.356852 
    8420    597.39798   -9220.0781   -9153.4375    1156.1738     16518.11    12.374182 
    8430     596.3974   -9220.0907   -9153.5617    2477.5606    16501.535    12.401815 
    8440    581.07151   -9218.4602   -9153.6408    3897.4385    16488.019    12.438854 
    8450    594.01606   -9219.9059   -9153.6425    5380.3198    16479.138    12.466815 
    8460    602.12495   -9220.8113   -9153.6433    6314.9818    16476.411    12.490628 
    8470    597.33214   -9220.3065   -9153.6732    7079.9103     16480.93     12.51435 
[...]
   22890     601.0943   -9253.5966   -9186.5436   -3897.2712    15883.107    18.105592 
   22900    597.39479   -9252.7799   -9186.1396   -5283.1846     15896.06    18.062428 
   22910    608.28392   -9253.5146   -9185.6596   -3821.5371    15903.662    18.029205 
   22920    581.68612   -9250.2132   -9185.3253    -1556.489    15907.295    18.007566 
   22930    613.50336   -9253.4294   -9184.9921    -1116.106     15908.99     17.99376 
   22940    555.21843   -9246.3116   -9184.3762   -711.56708    15909.555    17.985502 
   22950    581.33797   -9248.9055   -9184.0564   -743.03999     15909.41    17.968489 
   22960    632.70934   -9254.2135   -9183.6338   -916.68108    15908.499    17.947987 
   22970    606.18505   -9250.7102   -9183.0894     152.5462    15906.856    17.926452 
   22980    591.24334   -9248.7693   -9182.8152    1170.4669    15905.531    17.913946 
   22990    656.31602   -9255.7733   -9182.5602    1446.2006    15905.384    17.906868 
   23000    605.45126   -9249.5479   -9182.0089    539.71101    15906.525    17.898113 
   23010    582.55346     -9246.78   -9181.7953    96.060879    15908.325    17.877178 
   23020     610.6228   -9249.8622   -9181.7463   -496.73064     15910.23    17.851081 
   23030     621.0745   -9250.7888    -9181.507   -418.13067    15911.627    17.831643 
   23040    575.91419   -9245.6772   -9181.4331    1091.8191    15912.801    17.829617 
   23050     671.5321   -9256.2381   -9181.3277    2501.5074    15915.081    17.842149 
   23060     622.4811   -9250.5486   -9181.1099    1230.7991     15919.45    17.866052 
   23070    626.17068   -9250.9828   -9181.1325   -615.05141    15925.005    17.889605 
   23080    676.68844   -9256.7393   -9181.2537   -1137.7463    15929.985    17.906256 
   23090    589.03807   -9246.9576   -9181.2495   -1037.1123    15933.524    17.911476 
   23100    602.20706   -9248.5771      -9181.4    63.658974    15936.055    17.904474 
   23110    658.86041   -9255.2001   -9181.7032    1618.8433     15938.79    17.897169 
   23120    612.36306    -9250.297   -9181.9869    2046.4526     15943.04    17.888929 
   23130    636.07666   -9253.4213    -9182.466     2339.149     15949.38    17.870281 
   23140    600.55724   -9249.8023   -9182.8093    2248.2095    15958.136    17.844076 
   23150    595.28428   -9249.6603   -9183.2554   -274.76507    15968.888     17.80308 
   23160    624.58678   -9253.4167   -9183.7431   -2055.4151    15979.374    17.747499 
   23170    584.60148   -9249.4432     -9184.23   -2727.1008    15987.686    17.688951 
   23180    636.20074   -9255.6294   -9184.6603   -3562.6138    15992.871    17.630904 
   23190    558.33498   -9247.2536   -9184.9705    -4088.652    15994.099    17.591472 
   23200    650.75182   -9258.0811   -9185.4887   -3337.2795     15990.98    17.569294 
   23210    593.00875   -9251.8165   -9185.6654   -1650.4504    15984.253     17.55347 
   23220    611.71721   -9254.1548   -9185.9169     487.5064    15975.791    17.540236 
   23230    589.96221   -9251.8606   -9186.0494     3291.955    15968.125    17.539114 
   23240    632.39401   -9256.8347   -9186.2902    5627.5081    15964.102    17.560719 
   23250    575.69303   -9250.8635   -9186.6441    6600.7232     15965.98      17.5921 
   23260    551.17567   -9248.2857   -9186.8012    6868.8501    15974.911    17.609546 
   23270    608.70566   -9255.0498   -9187.1478    5038.3734    15990.964    17.606002 
   23280    575.48134   -9251.3765   -9187.1807    1459.9274    16012.031    17.583679 
   23290    632.27577   -9257.8147   -9187.2834   -1861.7569    16034.476    17.550638 
   23300    617.09478   -9256.0835   -9187.2457   -4962.7994    16054.602    17.519629 
   23310    614.87217   -9255.8352   -9187.2453   -6533.5526    16069.273    17.495966 
   23320    577.53159   -9251.7244   -9187.2998   -6859.9078    16076.922    17.497216 
   23330    601.98588   -9254.5602   -9187.4077    -6006.027    16077.266    17.526864 
   23340    575.69706   -9251.7582   -9187.5384   -3283.3902    16071.448    17.575268 
   23350    574.85516   -9251.6983   -9187.5723   -545.27197     16062.27    17.619776 
   23360    602.95577   -9254.8813   -9187.6207    1497.2064    16052.732    17.639778 
   23370    614.96057   -9256.2719   -9187.6721    2610.7107    16044.945    17.646444 
   23380    573.81469    -9251.614   -9187.6041    2887.8986     16040.05    17.646558 
   23390    575.02998   -9251.9265    -9187.781    3056.1552    16038.464    17.632245 
   23400    646.25592   -9260.0304   -9187.9395    3033.4259    16040.173    17.612397 
   23410    556.09672   -9249.8043   -9187.7709    2407.5533    16044.844    17.588226 
   23420    608.91852   -9255.7926   -9187.8668    1289.0049    16051.889    17.555006 
   23430    573.13561   -9251.6419   -9187.7077     499.0327    16060.163    17.519811 
   23440    648.92485   -9259.9883   -9187.5998   -124.72906    16068.757    17.478406 
   23450    578.67341   -9251.9651   -9187.4132   -860.44416    16077.034    17.444669 
   23460    617.71125   -9256.2385   -9187.3319   -1346.1298     16084.33    17.419131 
   23470    599.40653   -9254.0288   -9187.1641    -2537.801     16090.08    17.394589 
   23480    581.01769   -9251.8723   -9187.0589   -3522.9736    16093.104    17.367709 
   23490    595.06622   -9253.4476   -9187.0671   -3617.0492    16092.518    17.341975 
   23500    591.32156   -9252.9635   -9187.0007   -2465.7753    16088.285    17.328087 
   23510    610.13432    -9254.829   -9186.7676    -805.1063    16081.496    17.328874 
   23520     584.4655   -9251.8475   -9186.6495    280.83346    16073.898    17.336866 
   23530    663.26495   -9260.8087   -9186.8205    1347.9411     16066.64    17.348956 
   23540    582.11897   -9251.3734   -9186.4371    1640.6634     16060.61    17.371376 
   23550    637.10007     -9257.18   -9186.1105    1619.2202    16056.289    17.406471 
   23560    598.92783   -9252.6368   -9185.8255    2416.8959    16053.866    17.454547 
   23570    614.17425   -9254.1801   -9185.6681    1951.1173    16053.891     17.49264 
   23580    587.00236   -9250.9436   -9185.4626    1511.1433    16056.102    17.525698 
   23590    596.63532   -9251.8686    -9185.313    1333.0868    16060.067    17.569238 
   23600     594.6116   -9251.3712   -9185.0414    321.50527    16065.461    17.621002 
   23610    582.53204   -9249.7783    -9184.796   -441.46975    16071.262     17.66867 
   23620    648.68471   -9256.9002   -9184.5384   -672.81128    16076.582    17.702315 
   23630    599.57621   -9251.0956   -9184.2119   -1427.1006    16080.917    17.727342 
   23640    616.36078   -9252.7014   -9183.9454   -2860.3351    16083.491    17.748903 
   23650    588.65591   -9249.3231   -9183.6577   -3521.9705    16083.055    17.766079 
   23660    638.66217   -9254.6117   -9183.3679   -3283.8507    16078.881    17.777171 
   23670     594.5367   -9249.3876   -9183.0662   -1823.4969    16071.394    17.788995 
   23680    596.61328   -9249.2967   -9182.7436    83.025228    16062.147    17.797927 
   23690    662.61164   -9256.3964   -9182.4811    1800.2185    16053.138    17.807482 
   23700    576.58531   -9246.5237   -9182.2047    1882.7173     16045.89    17.814609 
   23710    629.82515   -9252.2408   -9181.9829    1565.4302     16040.68    17.813421 
   23720    622.43221   -9251.3203    -9181.887    1947.1134    16037.368    17.817882 
   23730    584.03378   -9246.8411   -9181.6913    1553.3207    16036.099    17.828967 
   23740    623.25695    -9251.054   -9181.5288   -177.93732    16036.467    17.846249 
   23750    639.60638   -9252.8812   -9181.5321   -1072.7402    16036.799    17.869003 
   23760    630.67206   -9251.7356   -9181.3832   -946.96096    16035.975     17.88499 
   23770    609.70204   -9249.4171    -9181.404      -792.94    16034.192    17.892693 
   23780    622.81538   -9251.0159   -9181.5399   -95.766458    16031.725    17.901785 
   23790    608.68122   -9249.4966   -9181.5973    257.28557    16029.121    17.916614 
   23800    616.66572   -9250.5699   -9181.7799    856.74146    16026.995    17.933469 
   23810    669.36548   -9257.0882   -9182.4194    2371.5925    16025.926    17.945799 
   23820    581.68125   -9247.3701   -9182.4827    1845.1933    16026.876    17.955815 
   23830    618.13953   -9251.7999   -9182.8455    875.84908    16029.739     17.96342 
   23840    628.02764   -9253.2294   -9183.1719    652.15851    16033.728    17.968958 
   23850    608.33854   -9251.5166   -9183.6555   -564.31263    16038.267    17.972383 
   23860    602.62145    -9251.322   -9184.0987   -1003.0851    16042.407    17.980503 
   23870    601.27653   -9251.6565   -9184.5832    -1376.388     16045.54    17.998593 
   23880    628.58553     -9255.22   -9185.1003   -2360.5289    16047.053    18.024658 
   23890    573.09373   -9249.4315    -9185.502   -2874.0385    16046.026    18.053457 
   23900     661.8212   -9259.9128   -9186.0856   -2169.5942    16041.979    18.080897 
   23910    584.91577   -9251.6514   -9186.4031   -1180.8056    16035.514    18.119552 
   23920    618.54767    -9255.758   -9186.7581   -95.458967    16027.845    18.167542 
   23930    607.10545   -9254.8636   -9187.1401    719.24384     16020.27    18.217108 
   23940    561.63834    -9250.033   -9187.3814    872.70366     16013.55    18.255437 
   23950    597.71934   -9254.2732   -9187.5967    276.82035    16007.836    18.276577 
   23960    594.55966   -9254.1213   -9187.7973     112.9713    16002.627    18.297112 
   23970    610.13974   -9255.9983   -9187.9363    890.28819    15997.674    18.321306 
   23980    576.92052   -9252.4443   -9188.0879    2306.8988    15993.774    18.337399 
   23990    587.89826   -9253.7359   -9188.1549    1365.8836    15992.089    18.345677 
   24000    573.05009   -9252.1627   -9188.2381   -1025.2389    15991.844    18.350738 
   24010    600.83121   -9255.2154   -9188.1917   -2186.1915    15990.789     18.35543 
   24020    632.70486   -9258.7819   -9188.2027   -1677.5793     15987.49     18.36952 
   24030    544.26887   -9248.9614   -9188.2474    580.27654    15982.566    18.390982 
   24040    601.82907   -9255.4238   -9188.2889    1510.9848    15978.156    18.400049 
   24050    568.35236   -9251.7188   -9188.3183    466.75348    15975.151     18.40012 
   24060    595.44813   -9254.6516   -9188.2285   -546.00867    15972.727    18.399098 
   24070    584.14967   -9253.1764   -9188.0136   -1036.0327    15969.905    18.397052 
   24080     583.7278    -9253.019   -9187.9033   -1770.0162    15966.019    18.392819 
   24090     636.6899   -9258.8294   -9187.8057   -453.67365    15960.554    18.383541 
   24100     574.3594   -9251.7978   -9187.7271    1301.0694    15954.663    18.378251 
   24110    563.61917   -9250.4667   -9187.5942    1538.7766    15950.024    18.386575 
   24120     646.6609   -9259.7916   -9187.6556    2186.6874    15947.123    18.408577 
   24130    588.74602   -9253.1487   -9187.4732    2715.6607    15946.406    18.438527 
   24140     630.0127   -9257.6145   -9187.3356     3654.456    15948.553    18.464461 
   24150    614.05577   -9255.7128    -9187.214    4027.5403    15954.537    18.473323 
   24160    600.24329   -9254.0498   -9187.0918    2599.3067     15964.59      18.4759 
   24170    572.46495   -9250.9027   -9187.0433   -668.76154    15977.344    18.481795 
   24180     613.0024   -9255.4319   -9187.0505   -3069.3683    15989.612    18.480001 
   24190    604.23452   -9254.2665   -9186.8632   -4799.2161    15998.641    18.481304 
   24200    566.68225   -9249.9262    -9186.712   -5312.2137     16002.77    18.496559 
   24210    645.97308   -9258.4881   -9186.4288   -4740.0308    16001.318    18.511916 
   24220    577.65293   -9250.6518   -9186.2137   -4416.0583     15994.58    18.531358 
   24230    618.26651   -9254.9791   -9186.0106   -3548.3621    15983.117    18.548982 
   24240    596.63909   -9252.2703   -9185.7144   -911.36822    15968.068    18.566913 
   24250    626.60803   -9255.3073   -9185.4082    1697.4136    15951.983    18.597427 
   24260    601.16314    -9252.282   -9185.2213    3519.3406    15937.743    18.633989 
   24270    617.50814    -9253.847   -9184.9631    4984.0701    15927.353    18.655182 
   24280    610.13365   -9252.7667   -9184.7054     5967.814    15922.232    18.666328 
   24290    567.09175     -9247.65     -9184.39    6283.5703    15923.407    18.674281 
   24300     675.9774   -9259.2318   -9183.8255    6464.3853    15931.216    18.675337 
   24310    585.73781   -9248.7479    -9183.408    5385.6921    15945.632    18.670614 
   24320    660.91199   -9256.8114   -9183.0857    1531.1973    15965.433    18.649484 
   24330    630.11387   -9253.0552    -9182.765   -1632.1683    15987.014    18.620246 
   24340    567.79475   -9245.8212   -9182.4828   -3677.6572     16007.02    18.598207 
   24350    622.47001   -9251.7104   -9182.2729   -5124.2525    16023.222    18.583573 
   24360    597.87417   -9248.6789   -9181.9852   -6208.7927    16033.975    18.579753 
   24370    667.30826   -9256.2724   -9181.8332   -5644.0715    16038.223    18.584711 
   24380    621.71435   -9250.9767   -9181.6236   -3309.7745    16036.427    18.592703 
   24390    625.85681   -9251.3206   -9181.5053   -933.74233    16030.845    18.608038 
   24400    596.49716   -9247.8971   -9181.3569   -5.4140548    16024.042    18.630762 
   24410    641.24916   -9252.8128   -9181.2805    803.59237    16017.274    18.640608 
   24420    610.20496    -9249.314   -9181.2447    2265.8948    16011.516    18.641304 
   24430    625.37315   -9251.1154   -9181.3541    4089.8469    16008.349    18.643936 
   24440    629.54124   -9251.5861   -9181.3598    4617.1946    16009.508    18.645358 
   24450    569.51062    -9245.117   -9181.5873    3644.9377    16015.562    18.642184 
   24460    677.99768   -9257.5539   -9181.9222    1209.9001    16025.332    18.625025 
   24470    610.76477   -9250.2713   -9182.1396   -1208.9337    16036.257    18.594842 
   24480    609.31048    -9250.504   -9182.5345   -2697.2719    16045.989    18.560491 
   24490    616.27045   -9251.8531   -9183.1072   -3390.0527    16053.016    18.526295 
   24500    579.30935   -9248.2345   -9183.6117   -2707.4451    16056.569    18.494218 
   24510    645.98393   -9256.3231   -9184.2626   -1393.5025    16057.336    18.471694 
   24520    601.33785   -9251.9681   -9184.8879   -893.14527    16056.467    18.459903 
   24530     606.4253   -9253.2854   -9185.6377   -155.00179    16054.566    18.459295 
   24540    581.03078   -9250.8753   -9186.0604    480.03884    16052.501    18.468485 
   24550    616.32661   -9255.2655   -9186.5133    1112.7649    16050.996    18.469629 
   24560    568.88178   -9250.3083   -9186.8487    1445.6069    16050.726    18.467375 
   24570    577.19274   -9251.5734   -9187.1867    1441.1036    16052.143    18.474458 
   24580    649.72445    -9259.886   -9187.4083     1975.203    16055.196    18.490501 
   24590    554.78366   -9249.4911   -9187.6042    2050.2976    16060.134    18.519343 
   24600     608.7101   -9255.6822   -9187.7797    1404.6442    16067.199    18.548689 
   24610    607.79143   -9255.7433   -9187.9432   -65.486228     16075.82    18.572333 
   24620    575.61381   -9252.2596    -9188.049   -768.08486    16084.558    18.600281 
   24630    610.93288   -9256.3037   -9188.1532   -702.72191    16092.683    18.631867 
   24640    596.83456   -9254.8603   -9188.2825   -979.40365    16100.138    18.660665 
   24650    632.45244   -9258.9736   -9188.4226   -1579.7586    16106.445    18.679491 
   24660    566.35723   -9251.6227   -9188.4447   -959.26189    16111.068    18.676282 
   24670    582.27268    -9253.434   -9188.4806   -1039.2739    16114.472    18.656885 
   24680    574.86463   -9252.7988   -9188.6718   -1266.8309    16116.887    18.634568 
   24690    573.50351   -9252.5529   -9188.5777   -658.03918    16118.201    18.602748 
   24700     608.4061    -9256.113   -9188.2444   -1079.4134    16118.584    18.574335 
   24710     567.0785   -9251.4501   -9188.1917   -711.76382    16117.855    18.563505 
   24720    650.27966   -9260.7709   -9188.2312   -77.151906    16116.315    18.553187 
   24730    577.92639    -9252.631   -9188.1625   -645.37026     16114.32    18.533255 
   24740    587.12225   -9253.5722   -9188.0779   -612.90289    16111.671     18.49461 
   24750    639.44112   -9259.4396    -9188.109    298.93732    16108.458    18.444842 
   24760    573.82103   -9251.9365   -9187.9259    93.831694    16105.272    18.406225 
   24770    594.70029   -9254.1157    -9187.776    2.2105779    16102.189    18.381566 
   24780    626.76895   -9257.5262   -9187.6092    1085.3606    16099.315    18.367638 
   24790    557.89726   -9249.6862   -9187.4519    1534.9819    16097.583    18.350765 
   24800    625.20883   -9256.9826   -9187.2396    516.71638    16097.354    18.316306 
   24810    590.96915   -9252.9919   -9187.0684     -803.024    16097.606    18.274279 
   24820    544.85176   -9247.7697   -9186.9907   -1474.9533    16097.028    18.232526 
   24830    604.07993   -9254.1036   -9186.7176   -1759.0132    16095.022    18.194322 
   24840     608.7996   -9254.3159   -9186.4034   -1478.3983    16091.208     18.17028 
   24850    609.19231   -9253.7927   -9185.8363    730.15293     16085.86    18.159817 
   24860     574.7127   -9249.4478   -9185.3377    2584.1073    16081.128    18.156015 
   24870    629.62061   -9255.1364   -9184.9013     4720.873    16079.233    18.161218 
   24880    629.16097    -9254.652   -9184.4681    6101.3227    16082.361    18.170408 
   24890    589.38119   -9249.8216   -9184.0752     4788.532    16091.909    18.176443 
   24900    665.45813   -9257.9507   -9183.7179    984.28164    16106.456    18.183314 
   24910    582.36586   -9248.1896   -9183.2258   -1828.8161    16122.236    18.200049 
   24920    600.63123   -9249.8581   -9182.8568   -4493.4696    16136.117    18.236718 
   24930    617.68418   -9251.3704   -9182.4668   -5418.4618    16145.458    18.287316 
   24940    600.68124   -9249.1279    -9182.121    -4979.256    16149.094    18.333691 
   24950    629.12896   -9251.9705   -9181.7902   -3505.7155    16147.523    18.375869 
   24960    617.19878   -9250.4482   -9181.5987   -1770.5489    16142.231    18.410648 
   24970    615.46907   -9250.0948   -9181.4383   -318.59071    16134.991    18.433958 
   24980    618.00927   -9250.3369    -9181.397    1294.6563    16127.493      18.4493 
   24990    643.25659   -9253.1737   -9181.4174    2647.4401    16121.297    18.449459 
   25000    562.87286   -9244.1169   -9181.3276    2702.9124    16117.715     18.44047 
Loop time of 13301.9 on 16 procs for 20000 steps with 864 atoms

Performance: 0.130 ns/day, 184.749 hours/ns, 1.504 timesteps/s
95.9% CPU use with 16 MPI tasks x 1 OpenMP threads

MPI task timing breakdown:
Section |  min time  |  avg time  |  max time  |%varavg| %total
---------------------------------------------------------------
Pair    | 2282.4     | 8057.7     | 12984      |4537.5 | 60.58
Bond    | 0.0017245  | 0.0032598  | 0.0082598  |   3.3 |  0.00
Neigh   | 0.12769    | 0.38578    | 0.61778    |  29.3 |  0.00
Comm    | 116.53     | 4596.7     | 10162      |5437.4 | 34.56
Output  | 1.7932     | 1.8211     | 2.2321     |   7.9 |  0.01
Modify  | 72.181     | 645.21     | 2306.7     |2663.4 |  4.85
Other   |            | 0.1027     |            |       |  0.00

Nlocal:        54.0000 ave          78 max          16 min
Histogram: 2 2 2 0 0 0 1 0 4 5
Nghost:        572.938 ave         804 max         354 min
Histogram: 2 1 3 0 1 1 5 1 0 2
Neighs:         0.00000 ave           0 max           0 min
Histogram: 16 0 0 0 0 0 0 0 0 0
FullNghs:      3135.00 ave        5524 max         498 min
Histogram: 3 3 0 0 0 1 1 3 3 2

Total # of neighbors = 50160
Ave neighs/atom = 58.055556
Ave special neighs/atom = 0.0000000
Neighbor list builds = 2000
Dangerous builds = 2000
unfix   3
                
Total wall time: 4:39:45
