LAMMPS (29 Sep 2021 - Update 3)
OMP_NUM_THREADS environment is not set. Defaulting to 1 thread. (src/comm.cpp:98)
  using 1 OpenMP thread(s) per MPI task
Reading data file ...
  orthogonal box = (0.055185546 0.10526575 0.29400111) to (15.557398 15.507318 30.931166)
  2 by 2 by 4 MPI processor grid
  reading atoms ...
  432 atoms
  reading velocities ...
  432 velocities
Finding 1-2 1-3 1-4 neighbors ...
  special bond factors lj:    0        0        0       
  special bond factors coul:  0        0        0       
     0 = max # of 1-2 neighbors
     0 = max # of 1-3 neighbors
     0 = max # of 1-4 neighbors
     1 = max # of special neighbors
  special bonds CPU = 0.006 seconds
  read_data CPU = 0.062 seconds
Neighbor list info ...
  update every 1 steps, delay 10 steps, check yes
  max neighbors/atom: 2000, page size: 100000
  master list distance cutoff = 6.22
  ghost atom cutoff = 6.22
  binsize = 3.11, bins = 5 5 10
  1 neighbor lists, perpetual/occasional/extra = 1 0 0
  (1) pair quip, perpetual
      attributes: full, newton on
      pair build: full/bin
      stencil: full/bin/3d
      bin: standard
Setting up Verlet run ...
  Unit style    : metal
  Current step  : 0
  Time step     : 0.001
Per MPI rank memory allocation (min/avg/max) = 8.897 | 8.898 | 8.899 Mbytes
Step Temp PotEng TotEng Press Volume c_msd[4] 
       0    313.37182   -3253.1054   -3235.6471   -795.75101    7315.1095            0 
      10    321.38846   -3253.5613   -3235.6564   -2364.9405     7315.526 0.0061712045 
      20    324.56131   -3253.7701   -3235.6885   -3350.7072     7316.638  0.022482697 
      30    313.26072   -3253.1912   -3235.7391   -3122.4243    7318.3427  0.042938882 
      40    307.73631   -3252.9406   -3235.7962   -2899.2902    7320.8312  0.060232481 
      50     313.7303   -3253.3313    -3235.853   -3108.4694     7324.209  0.071090878 
      60    301.84713   -3252.7217   -3235.9055   -1937.3824     7328.356  0.077560206 
      70    281.69583   -3251.6353   -3235.9417   -928.44708    7333.4532  0.082200276 
      80    284.96563   -3251.8184   -3235.9427   -1827.7914    7339.7173  0.086375123 
      90    306.50568   -3252.9681   -3235.8924    -3737.704    7346.8445  0.091454511 
     100    318.18374   -3253.5184    -3235.792    -4646.076     7354.095   0.09825917 
     110    314.27108   -3253.1627   -3235.6543   -4604.6681    7360.8277   0.10592715 
     120    314.77154   -3253.0162     -3235.48   -4891.7698    7366.7524   0.11292997 
     130    316.86713   -3252.9137   -3235.2607   -5158.3517      7371.64   0.11936354 
     140    316.17539   -3252.6159   -3235.0014   -4989.5102    7375.2308    0.1257953 
     150    314.80326   -3252.2521   -3234.7141   -4328.2716    7377.3677   0.13193486 
     160    317.53609   -3252.1064   -3234.4161   -2975.4569    7378.0686   0.13702798 
     170    313.50053   -3251.5949   -3234.1294   -1234.6536    7377.6742   0.14023126 
     180    315.82817   -3251.4654   -3233.8702   -356.11817    7376.7532   0.14048302 
     190    324.37888   -3251.7114   -3233.6399   -798.88665    7375.7048   0.13866449 
     200     317.9423   -3251.1501   -3233.4372   -1011.7984    7374.6673   0.13738073 
     210    308.13742   -3250.4183   -3233.2516   -1126.0369    7373.7214    0.1373455 
     220    318.14234   -3250.7847   -3233.0607   -1890.8073    7372.8403   0.13759582 
     230    325.62241   -3250.9932   -3232.8524   -1875.6237    7371.7095   0.13794995 
     240    319.93831   -3250.4545   -3232.6304   -946.96528    7370.1082   0.13750013 
     250    338.08663   -3251.2235   -3232.3884   -1653.7241    7368.1748    0.1345069 
     260    353.38638   -3251.8093   -3232.1218   -2393.0641    7365.8596   0.13012178 
     270    348.76079   -3251.2802   -3231.8503   -2538.8203    7363.1424   0.12601367 
     280    353.80251   -3251.2856   -3231.5748   -2900.5969    7360.2913   0.12224888 
     290    363.39314   -3251.5322   -3231.2872   -3172.1018     7357.593   0.11940406 
     300    363.80107    -3251.263   -3230.9952   -2469.0537    7355.2177   0.11793628 
     310    362.28872   -3250.8869   -3230.7034   -998.59924    7353.3217   0.11710498 
     320    354.01687   -3250.1312   -3230.4086    1052.8917     7352.187   0.11628848 
     330    346.67141   -3249.4229   -3230.1094    2654.4772    7352.3179   0.11518428 
     340    345.36686    -3249.042   -3229.8013    3429.7914    7354.1641   0.11412882 
     350    355.38105   -3249.2786     -3229.48    3214.8011    7357.9188   0.11356208 
     360    366.68629   -3249.5723   -3229.1438    2565.8872    7363.3499   0.11387814 
     370    371.95477   -3249.5247   -3228.8027    1846.5247    7370.0817   0.11514218 
     380     363.8602   -3248.7328   -3228.4617    1722.2357     7377.679    0.1168584 
     390    366.05438   -3248.5104   -3228.1171    1056.8888    7385.7172   0.11757684 
     400    384.12175   -3249.1519   -3227.7521   -319.76773    7393.8469   0.11750531 
     410    387.34744   -3248.9543   -3227.3748   -950.49864    7401.7169   0.11874792 
     420    380.77078   -3248.2142    -3227.001   -1465.6564     7409.042   0.12158655 
     430    381.55328   -3247.8788    -3226.622   -2940.9202     7415.481   0.12467546 
     440    380.22871   -3247.4159   -3226.2329    -4389.814    7420.6752   0.12725205 
     450    392.01713   -3247.6738    -3225.834   -4623.1663    7424.2666   0.12911762 
     460    397.11967   -3247.5524   -3225.4284   -3256.5746    7425.9868   0.13122048 
     470    389.03266   -3246.7055   -3225.0321   -1361.8419    7425.9786   0.13362554 
     480    394.87171   -3246.6339   -3224.6352   -316.33461    7424.6968   0.13525544 
     490    401.99685   -3246.6218   -3224.2261   -79.570759    7422.4205   0.13640187 
     500    414.52792    -3246.905   -3223.8112     -321.621    7419.2039   0.13739653 
     510    426.12212   -3247.1309   -3223.3911    -507.6309    7415.0906   0.13906904 
     520    410.95267   -3245.8731   -3222.9785    406.09188    7410.3475   0.14238548 
     530    389.83851   -3244.2916   -3222.5733    2133.1006    7405.4652    0.1452681 
     540    404.33729   -3244.6762   -3222.1501    2669.2549    7400.8763   0.14510985 
     550    417.36774   -3244.9467   -3221.6947     3237.224    7396.5753    0.1435453 
     560    423.36907   -3244.8159   -3221.2295    3937.5717    7392.7472   0.14232303 
     570    439.36979   -3245.2354   -3220.7577    4324.0301    7389.8635    0.1418185 
     580    432.87864    -3244.408   -3220.2919    5349.9575    7388.3311   0.14254566 
     590    429.88014   -3243.7908   -3219.8417    6152.0065    7388.4218   0.14290249 
     600    459.19993   -3244.9669   -3219.3844    5215.8832    7390.3152   0.14195733 
     610    482.68729   -3245.8074   -3218.9164    3924.0855    7393.9436   0.14216247 
     620     471.8362   -3244.7618   -3218.4753    3955.4862     7399.171   0.14525371 
     630    461.04864   -3243.7466    -3218.061    5273.9385    7405.8871   0.14960981 
     640    460.67472   -3243.3186   -3217.6539    7497.6858    7414.0678   0.15391711 
     650    466.58773   -3243.2406   -3217.2465    8616.2619    7424.0665   0.15801114 
     660    477.23612   -3243.4161   -3216.8288    7414.8127    7436.0422   0.16226141 
     670    483.81424    -3243.332   -3216.3782    4225.6838    7449.3146   0.16767383 
     680    483.64562   -3242.8414    -3215.897    842.56215    7462.6196   0.17513033 
     690    472.03187   -3241.6981   -3215.4007   -542.76599    7474.8518   0.18458096 
     700    461.31747    -3240.602   -3214.9015    78.074146    7485.3782   0.19470095 
     710    461.47909   -3240.1031   -3214.3936     1330.873    7494.0218   0.20392721 
     720    473.80957   -3240.2661   -3213.8696    2318.4889    7500.8486   0.21050305 
     730      494.079   -3240.8571   -3213.3314    2892.5549    7505.9831   0.21385903 
     740    492.77215   -3240.2496   -3212.7967    3652.4349    7509.5777   0.21522469 
     750    486.84741   -3239.4046   -3212.2817    4001.7527    7511.8144   0.21451042 
     760    499.80282   -3239.6099   -3211.7654    2886.9317    7512.9479   0.21199711 
     770    512.68694   -3239.8033    -3211.241    1465.7254    7513.0649   0.20998584 
     780    518.27409   -3239.5962   -3210.7225    1499.8542    7511.8466   0.21034124 
     790    519.49665   -3239.1546   -3210.2128    3162.2048    7509.3796   0.21281414 
     800    518.86797   -3238.6114   -3209.7047    4931.1509    7506.4941   0.21537472 
     810    528.23826   -3238.6213   -3209.1925    5366.7862    7503.9342   0.21623927 
     820    535.71743   -3238.5202   -3208.6748     5250.842    7501.8628   0.21559494 
     830    554.17843   -3239.0324   -3208.1585    5038.1115    7500.0804   0.21454277 
     840    581.52688    -3240.041   -3207.6435    5552.3829    7498.3031   0.21523458 
     850     541.6224   -3237.3321   -3207.1577    9251.5647    7496.4919   0.21861262 
     860    507.82194   -3234.9931   -3206.7018    10953.924     7495.387   0.21935209 
     870    553.32261   -3237.0375   -3206.2113    8472.1386    7495.4294   0.21473736 
     880    596.25168   -3238.8894   -3205.6716    5975.2782    7496.2284   0.21033218 
     890    590.43266   -3238.0427   -3205.1491    6701.6584     7497.225   0.21044744 
     900      579.914    -3236.978   -3204.6703    8251.7728    7498.3094   0.21315325 
     910    582.87884     -3236.68   -3204.2071    9694.0285    7499.8618   0.21613848 
     920    563.79775   -3235.1634   -3203.7536     11679.06    7502.5276   0.21984443 
     930     565.3632   -3234.8024   -3203.3054    11659.138    7506.9467   0.22323691 
     940    595.51098   -3236.0066     -3202.83    9657.6475    7513.1394   0.22680243 
     950    598.34868   -3235.6718   -3202.3371    8246.6158    7520.5052   0.23251615 
     960    597.15033   -3235.1192   -3201.8513     7071.261    7528.4059   0.23886865 
     970    604.37056    -3235.033   -3201.3628    6244.3536    7536.3575   0.24447012 
     980    609.12188   -3234.8088   -3200.8739    6149.0522    7544.0612    0.2494917 
     990    605.06889   -3234.0998   -3200.3908    6456.0911    7551.4453   0.25442175 
    1000    611.42126   -3233.9721   -3199.9092    6476.3027    7558.4798    0.2595717 
    1010    592.53356   -3232.4359   -3199.4252    8093.5417    7564.9622   0.26583098 
    1020    586.02348   -3231.5945   -3198.9465     9090.243    7571.2144    0.2713942 
    1030    614.43614   -3232.6673   -3198.4363    8363.1943    7577.5667   0.27429806 
    1040    628.29128   -3232.9041   -3197.9013    7689.4479    7583.8347   0.27645224 
    1050    618.41134   -3231.8256   -3197.3732    7654.6632    7589.7013   0.27931242 
    1060    633.43523   -3232.1416   -3196.8522    7287.1424    7594.8676   0.28252636 
    1070    615.46884   -3230.6208   -3196.3324    7710.9703    7599.2125   0.28782237 
    1080    609.59119   -3229.7833   -3195.8223    7661.0111    7602.8848   0.29433456 
    1090    635.17688   -3230.6755    -3195.289    6967.9968    7605.8537   0.30134567 
    1100    654.48334   -3231.2025   -3194.7405    6364.7252    7608.0481   0.30952828 
    1110    652.95133   -3230.5832   -3194.2066    7077.3494    7609.5249   0.31804914 
    1120    638.43483    -3229.263   -3193.6951      8868.83    7610.5347    0.3242413 
    1130    639.66998   -3228.8227   -3193.1859    9719.8882    7611.4845   0.32583243 
    1140    653.62669   -3229.0793    -3192.665    9298.6078    7612.4587   0.32465734 
    1150    648.28305   -3228.2543   -3192.1377    8899.1561    7613.2404   0.32432963 
    1160    654.94192   -3228.0994   -3191.6118    8599.1628    7613.8323    0.3243547 
    1170    687.07973   -3229.3503   -3191.0723    7716.7706    7614.3261   0.32332985 
    1180    709.50187   -3230.0654   -3190.5382    7239.0688    7614.4879    0.3223722 
    1190    689.58246   -3228.4586   -3190.0412    7981.1141     7614.338   0.32312394 
    1200    671.88532   -3227.0085    -3189.577    8732.9765    7614.5969   0.32419925 
    1210    683.57023   -3227.1939   -3189.1115     8438.809    7615.9846   0.32453147 
    1220    701.95492   -3227.7419   -3188.6352    8346.5431    7618.6893   0.32540183 
    1230     718.9446   -3228.2201   -3188.1669     8336.579    7622.8999   0.32825949 
    1240    719.61381    -3227.814   -3187.7235    8669.5131    7628.8485   0.33412673 
    1250     695.4452   -3226.0421   -3187.2981    9278.2256    7636.1604   0.34226134 
    1260    687.91176   -3225.1925   -3186.8681    9128.8201    7644.0512   0.34924958 
    1270    702.68823   -3225.5572   -3186.4097    8862.4226    7651.9912   0.35393627 
    1280    713.52131   -3225.6728   -3185.9218    8389.0753    7659.4457   0.35787099 
    1290    709.88277   -3224.9745   -3185.4261    8472.1345    7665.6543   0.36225984 
    1300    707.38108   -3224.3438   -3184.9348    8857.0761    7670.4757   0.36693193 
    1310    715.04887   -3224.2756   -3184.4394    8962.0282    7674.4492   0.37094015 
    1320    737.54367   -3225.0231   -3183.9337    8383.6774    7677.8941   0.37418731 
    1330    745.97321   -3224.9889   -3183.4299    7865.9808    7680.6634   0.37951729 
    1340    732.07571    -3223.733   -3182.9482      8884.48    7682.5337   0.38728842 
    1350    725.23847   -3222.8832   -3182.4794    10686.771    7683.7118   0.39431394 
    1360    735.89028   -3223.0009   -3182.0036    11876.459    7684.7758    0.3988417 
    1370     741.0795    -3222.804   -3181.5177    12551.751    7686.2235   0.40222261 
    1380    751.75149   -3222.9118   -3181.0309    12302.058    7688.0299   0.40647701 
    1390    747.22147   -3222.1759   -3180.5474    12746.113    7690.0748   0.41450336 
    1400    711.74813    -3219.729   -3180.0767    14227.911    7692.9463   0.42675315 
    1410    704.56452   -3218.8485   -3179.5964    13915.064     7697.292   0.43852188 
    1420    743.37405   -3220.4775   -3179.0633    12077.626    7702.8208   0.44650005 
    1430    773.92636   -3221.6043    -3178.488    9791.0125    7708.6902   0.45273035 
    1440    786.88361    -3221.759   -3177.9208    7975.8415    7714.1622   0.45928822 
    1450    780.92292   -3220.8899   -3177.3838    7099.4941    7718.6718   0.46598681 
    1460    797.93701   -3221.3286   -3176.8747    7067.6258    7721.7481   0.47159557 
    1470    807.63712   -3221.3871   -3176.3927    8548.8745    7723.3187   0.47692912 
    1480    791.81741   -3220.0599   -3175.9469    9962.3217    7723.8937   0.48206934 
    1490    777.71511   -3218.8494    -3175.522    11166.609    7724.0689   0.48506434 
    1500     783.1855   -3218.7227   -3175.0905    11337.352    7724.2148   0.48569789 
    1510    794.91671   -3218.9306   -3174.6449    10882.417     7724.383   0.48746521 
    1520    787.49444   -3218.0661   -3174.1939     10768.54    7724.0685   0.49347136 
    1530     774.6595   -3216.8973   -3173.7401    11347.269    7722.6998   0.50169513 
    1540    782.43768   -3216.8574   -3173.2669    11345.296    7720.3292    0.5085999 
    1550    807.48917     -3217.75   -3172.7638    12055.551    7717.4215   0.51384226 
    1560    813.99329   -3217.5998   -3172.2513    13401.697    7714.6801   0.51877969 
    1570    811.87144   -3216.9774   -3171.7471    13969.101    7712.5361   0.52235011 
    1580    843.39244   -3218.2364     -3171.25    13635.299     7711.093   0.52241289 
    1590    861.35337   -3218.7568   -3170.7698    12929.675    7710.5672   0.52126182 
    1600    842.07521   -3217.2468   -3170.3338    13316.283     7711.163   0.52170318 
    1610     836.1925   -3216.5172    -3169.932    14810.368    7712.8194   0.52343079 
    1620    825.67277   -3215.5347   -3169.5356    16626.757    7715.3599   0.52641443 
    1630    832.08403   -3215.4957   -3169.1394    17729.492    7719.0549   0.53096456 
    1640    840.48066   -3215.5623   -3168.7382    17561.818    7724.2858   0.53838406 
    1650    834.82753   -3214.8312    -3168.322    16722.793    7730.9379   0.54840887 
    1660    863.99877    -3216.024   -3167.8896    14369.316    7738.2216   0.55737617 
    1670    890.30379   -3217.0454   -3167.4455    12211.519    7745.1271   0.56477265 
    1680    847.65421   -3214.2564   -3167.0326    12990.734    7751.0921   0.57331106 
    1690    804.08918   -3211.4375   -3166.6408    14327.529    7756.4112   0.58150502 
    1700    831.70999   -3212.5456   -3166.2101    13826.235    7761.6061   0.58639037 
    1710    865.76281   -3213.9583   -3165.7257    12858.926    7766.7598   0.58977135 
    1720     891.2571   -3214.8797   -3165.2267    12473.496    7771.6232   0.59368438 
    1730     908.8421    -3215.382   -3164.7494    11720.113    7775.9466    0.5981076 
    1740    902.37376   -3214.5831   -3164.3108    11498.602    7779.6813   0.60301398 
    1750    861.72329   -3211.9197   -3163.9121     12117.32    7782.8768   0.60829293 
    1760    854.71149   -3211.1311   -3163.5142    11624.424    7785.4875   0.61244804 
    1770    873.00984   -3211.7247   -3163.0884    11053.803    7787.5453   0.61820723 
    1780    866.27948   -3210.9042   -3162.6428    12690.503    7789.1909   0.62723029 
    1790    834.33564   -3208.6675   -3162.1857    15645.728    7790.9403    0.6368279 
    1800    824.95899    -3207.658   -3161.6986    16995.137    7793.5378   0.64281423 
    1810    880.62558   -3210.2191   -3161.1584    15498.986     7797.592   0.64307795 
    1820     926.8166   -3212.2203   -3160.5863    13846.965    7803.1544   0.64359297 
    1830    927.09614    -3211.699   -3160.0494    12615.486    7809.9193   0.64970748 
    1840    927.33678   -3211.2168   -3159.5538    11573.969    7817.1028    0.6596347 
    1850    926.68082   -3210.7127   -3159.0863    10570.288    7823.6517   0.67047362 
    1860    920.28208   -3209.9174   -3158.6475    11466.482    7828.8411    0.6813567 
    1870    913.27518   -3209.1125   -3158.2329    13646.365    7832.6979   0.69230687 
    1880    935.70467   -3209.9575   -3157.8283    15039.234     7835.703   0.70147637 
    1890    954.34763   -3210.5978     -3157.43    14641.179    7838.3211   0.70858382 
    1900     963.3116   -3210.7231   -3157.0559    13423.995    7840.4821   0.71200873 
    1910     983.2434   -3211.4964   -3156.7188    12543.054    7841.9193   0.71151538 
    1920    948.95267   -3209.2898   -3156.4226    13081.491    7842.8182   0.71101334 
    1930    910.79249   -3206.8877   -3156.1464    14270.912     7844.074   0.71222952 
    1940    893.17644   -3205.6071   -3155.8472    15380.506    7846.6964   0.71714422 
    1950    880.84941    -3204.569   -3155.4958    16566.286    7850.9922   0.72902998 
    1960    883.67941    -3204.304   -3155.0732    17118.032    7856.7004   0.74607595 
    1970    905.43378   -3205.0162   -3154.5735     16278.24    7863.2884   0.76121146 
    1980    947.71225   -3206.8171    -3154.019    14649.481    7870.4431   0.76917823 
    1990    985.10145   -3208.3319   -3153.4508    12950.428    7878.2111   0.77171684 
    2000    1007.3674   -3209.0345   -3152.9129    11373.396    7886.5777   0.77423529 
    2010    1016.7373   -3209.0758   -3152.4322    10972.001     7894.886   0.78160935 
    2020    989.68166   -3207.1596   -3152.0234    12756.826    7902.4858   0.79445053 
    2030     947.3492   -3204.4449    -3151.667    14345.044    7909.5774   0.81007361 
    2040    930.20182   -3203.1394   -3151.3169    13919.929    7916.9454   0.82565213 
    2050    953.54104    -3204.052   -3150.9291    11484.213    7924.9628   0.84045785 
    2060    966.31033    -3204.323   -3150.4888    9846.9821    7932.7665   0.85520657 
    2070    960.43117   -3203.5414   -3150.0347    9973.1641    7939.5017   0.87107761 
    2080    958.97272    -3203.001   -3149.5755    10546.913    7945.2007   0.88877607 
    2090    969.94386   -3203.1407   -3149.1041    10749.001    7950.3608   0.90916198 
    2100    955.20333   -3201.8427   -3148.6273    11426.247    7955.5677   0.93299553 
    2110    947.14379   -3200.9101   -3148.1437    12410.297    7961.3946   0.95768769 
    2120     965.2174   -3201.4043    -3147.631    12318.703    7967.8331   0.98279381 
    2130    961.29568   -3200.6544   -3147.0995    12193.881    7974.5945    1.0101363 
    2140    989.97891   -3201.7145   -3146.5617    10624.235    7981.4666    1.0372991 
    2150    979.90079    -3200.613   -3146.0216     10646.51    7987.9279    1.0644126 
    2160    960.38497    -3199.008   -3145.5039    11423.282    7993.7716    1.0883419 
    2170    983.05431   -3199.7517   -3144.9847    11400.615     7999.255     1.105446 
    2180    968.31585   -3198.4048   -3144.4588    12219.854    8004.4452    1.1175187 
    2190    975.50261   -3198.2758   -3143.9294    11176.842    8009.0129    1.1219101 
    2200    1031.6107   -3200.8568   -3143.3846    9042.5665     8011.984    1.1190843 
    2210    1036.7851   -3200.6292   -3142.8688    9119.2828    8012.5005    1.1170829 
    2220    995.22717   -3197.8523   -3142.4071    11621.447    8010.8145    1.1182026 
    2230    987.89505   -3196.9899   -3141.9532    13551.046    8008.1682    1.1171785 
    2240    994.42391   -3196.8703   -3141.4698    14834.113    8005.8107    1.1143798 
    2250    997.19919   -3196.5134   -3140.9583    15725.487    8004.3446     1.111697 
    2260    1013.2937   -3196.8848   -3140.4331    15558.711    8004.0579    1.1070806 
    2270    1046.8412   -3198.2181   -3139.8974    15227.466    8004.9118     1.101752 
    2280    1061.1057   -3198.4812   -3139.3658    15530.098    8006.4428    1.0990821 
    2290    1052.0465   -3197.4853   -3138.8746    16057.529    8008.7429    1.0994765 
    2300    1064.4236   -3197.7143   -3138.4141    15787.449    8012.6778    1.1007838 
    2310    1103.0639   -3199.4382   -3137.9853    14089.059    8019.0023    1.1023752 
    2320    1093.0583   -3198.4815    -3137.586    12769.416    8027.2814    1.1082141 
    2330    1083.1838   -3197.5494    -3137.204    12084.498    8035.9419    1.1184916 
    2340    1089.9008   -3197.5486    -3136.829     12292.55    8043.6304    1.1324387 
    2350     1091.914   -3197.3081   -3136.4764     12836.03    8050.2728    1.1500918 
    2360    1053.8847   -3194.8469   -3136.1338     13990.69    8056.5704     1.170671 
    2370    1066.2297   -3195.1807   -3135.7798    14306.291    8063.1791    1.1906949 
    2380    1069.6663   -3194.9875   -3135.3952    15849.714    8070.2979    1.2106035 
    2390    1059.3322   -3194.0113   -3134.9947     17003.13    8078.6045    1.2296149 
    2400    1106.6895   -3196.2252   -3134.5703    15162.863    8088.7407    1.2472737 
    2410    1084.4288   -3194.5301   -3134.1154    13626.385     8100.024    1.2691061 
    2420    1074.0952   -3193.5016   -3133.6625    13299.601    8111.9617    1.2949629 
    2430    1049.8558   -3191.6878   -3133.1992    14331.194    8124.8102    1.3238958 
    2440    1049.6247   -3191.1875   -3132.7117    14124.668    8139.0913    1.3537818 
    2450    1051.7442   -3190.7394   -3132.1456      12696.2    8154.2779    1.3826066 
    2460      1055.03   -3190.3101   -3131.5332    11515.787    8169.2999    1.4119347 
    2470    1087.2172   -3191.4699   -3130.8998    9746.6313     8183.919    1.4444233 
    2480    1098.1077   -3191.4422   -3130.2653    9141.6828    8198.2237    1.4835652 
    2490    1120.2497   -3192.0699   -3129.6595    9323.4216    8211.9715    1.5281394 
    2500    1091.4415   -3189.8956   -3129.0901    10001.251    8224.9258    1.5774568 
    2510    1073.6103    -3188.373    -3128.561    10024.738    8237.1736    1.6266355 
    2520    1084.2235   -3188.4121   -3128.0088    10317.886    8248.3576    1.6711325 
    2530    1094.7022   -3188.4341    -3127.447    10513.726    8257.6509     1.709441 
    2540    1089.8352   -3187.6054   -3126.8895    9878.4438    8265.0029    1.7441367 
    2550    1062.1359   -3185.5145   -3126.3417    9967.3384    8271.0496    1.7781913 
    2560    1080.7018   -3185.9801    -3125.773    10065.881    8276.2147    1.8075849 
    2570    1107.9094   -3186.8923   -3125.1694     10216.99    8280.2504    1.8300729 
    2580    1135.6397   -3187.8318    -3124.564    10581.971    8282.8946     1.844271 
    2590    1145.3842   -3187.7864   -3123.9757    11688.776    8284.4116    1.8521725 
    2600    1139.8828   -3186.9261   -3123.4219    13413.542    8285.8819    1.8596041 
    2610    1074.9952   -3182.7841   -3122.8949    16142.492    8288.6787    1.8694925 
    2620    1079.8693   -3182.5064   -3122.3456    15352.848    8293.0092    1.8779624 
    2630    1167.3235   -3186.7571   -3121.7242    12321.669    8298.0519    1.8830579 
    2640    1179.6629   -3186.8036   -3121.0832    12168.074    8302.9114    1.8878012 
    2650    1159.2345   -3185.0833    -3120.501    13378.733    8307.3582     1.893603 
    2660    1135.4087    -3183.194   -3119.9391    13580.582    8311.8314    1.9003834 
    2670    1139.2507   -3182.8472   -3119.3782    12785.127    8316.4357    1.9093729 
    2680    1125.6881   -3181.5049   -3118.7915    12388.482    8320.7493     1.921192 
    2690    1119.9406   -3180.5671    -3118.174    12766.736    8324.2772    1.9296212 
    2700    1142.2005   -3181.1629   -3117.5296    12718.421    8327.2944    1.9337923 
    2710    1151.7353   -3181.0233   -3116.8589    12645.348    8330.3995     1.945481 
    2720    1168.3598   -3181.2705   -3116.1799    12678.115    8333.5007    1.9707856 
    2730    1204.1398   -3182.5933   -3115.5093    12872.751    8336.3765    2.0047969 
    2740    1215.3726   -3182.5779   -3114.8681    13888.524    8339.4467    2.0418923 
    2750    1224.4129   -3182.4992   -3114.2858    13044.741    8343.8624    2.0768161 
    2760    1219.6403   -3181.6935   -3113.7459    11062.961    8349.6883    2.1055128 
    2770    1191.2468   -3179.5895   -3113.2238    10386.118    8355.7237    2.1297347 
    2780    1183.9744   -3178.6671   -3112.7066    11430.124    8360.9971    2.1531512 
    2790    1167.0005   -3177.1737   -3112.1588    12604.669    8364.9413    2.1754578 
    2800      1151.72   -3175.7474   -3111.5838    12971.579    8367.2808    2.1905794 
    2810     1194.899   -3177.5235   -3110.9543    11474.671    8368.4924    2.1943882 
    2820    1238.3276   -3179.2775   -3110.2889    10026.857    8369.4595    2.1906751 
    2830     1186.274   -3175.7357   -3109.6471     12465.01    8371.1688    2.1884727 
    2840    1180.8493   -3174.8068   -3109.0203    13614.823    8374.3838    2.1912911 
    2850    1211.5864   -3175.8582   -3108.3594    12942.831     8378.742    2.2015098 
    2860    1198.7372   -3174.4632   -3107.6802    13165.675    8383.1318    2.2221173 
    2870    1149.4668   -3171.0475   -3107.0094    14687.092    8387.2743    2.2520699 
    2880    1171.7966   -3171.5933   -3106.3112    15560.572    8391.7391    2.2828129 
    2890    1225.2176   -3173.8307   -3105.5725     15418.68    8396.9925    2.3054955 
    2900    1237.1555   -3173.7518   -3104.8285    16018.032    8402.8144    2.3163994 
    2910    1271.2356   -3174.9489    -3104.127    16038.624    8409.1026    2.3164595 
    2920     1264.232   -3173.9039   -3103.4721    16356.997    8415.9491    2.3135871 
    2930    1280.7106    -3174.227   -3102.8772    14885.295    8423.7096    2.3144219 
    2940    1260.2042   -3172.5129   -3102.3055     13839.92    8431.9943    2.3248549 
    2950    1233.5821   -3170.4896   -3101.7654    13926.548    8440.2972    2.3461285 
    2960    1246.3204   -3170.6354   -3101.2015    13290.046    8448.6795    2.3752401 
    2970    1303.7627   -3173.2481    -3100.614    12729.444    8457.1773    2.4098111 
    2980    1281.8307   -3171.4629   -3100.0507    13663.176    8466.2366    2.4531763 
    2990    1257.8209   -3169.5946     -3099.52    13834.099    8476.3363    2.4982197 
    3000    1279.0657   -3170.2295   -3098.9713    12301.018    8487.5264    2.5431511 
    3010    1263.9359   -3168.8066   -3098.3913    11769.852    8499.3619    2.5945666 
    3020    1280.5807   -3169.1305   -3097.7879    11115.292    8511.1372    2.6505322 
    3030    1275.9627   -3168.2366   -3097.1513    11947.563    8521.9645    2.7048659 
    3040    1290.4464   -3168.4033   -3096.5111     13276.73    8531.6275    2.7559104 
    3050    1279.7545   -3167.1724   -3095.8758    13714.314    8540.9114    2.8053162 
    3060    1289.7952   -3167.0957   -3095.2398    12252.854    8550.2679    2.8477858 
    3070    1288.4468   -3166.3662   -3094.5854     10851.46    8559.6468    2.8808955 
    3080    1297.2593   -3166.2018     -3093.93    10867.332    8568.7865    2.9071759 
    3090    1254.3115   -3163.1402   -3093.2611    12693.545    8577.2418    2.9278416 
    3100    1268.0011   -3163.2294   -3092.5876    12548.786    8585.1576    2.9432169 
    3110    1318.8448   -3165.3392   -3091.8649    11216.053    8592.2473     2.960261 
    3120    1303.4315   -3163.7642   -3091.1486    12589.897    8598.1301    2.9835162 
    3130    1325.6492   -3164.3278   -3090.4744    13213.654    8603.9493    3.0133378 
    3140    1348.0741   -3164.9219   -3089.8192    12664.478    8610.6108    3.0507325 
    3150    1348.3796   -3164.3102   -3089.1905    12055.062    8618.1004    3.0906178 
    3160    1303.1179   -3161.1981   -3088.5999    12208.706    8625.7957    3.1224818 
    3170    1323.8119   -3161.7583   -3088.0073    11071.517    8632.7831    3.1419936 
    3180    1356.9729   -3162.9844   -3087.3859    10414.507    8638.2178    3.1612697 
    3190     1308.173   -3159.6732   -3086.7934    11395.543    8641.7699    3.1875073 
    3200    1280.9598   -3157.5648   -3086.2011    11091.261    8643.8916    3.2108822 
    3210     1326.326   -3159.4514   -3085.5603    9942.1384    8644.9323    3.2249655 
    3220    1325.0692   -3158.7054   -3084.8843    10559.454     8644.857    3.2329485 
    3230    1330.5041   -3158.3219    -3084.198    10463.173     8644.112    3.2351903 
    3240    1341.1361   -3158.2227   -3083.5065    9944.6217    8643.7665    3.2354142 
    3250    1324.2261   -3156.5887   -3082.8146     11674.59    8644.7869    3.2340924 
    3260    1296.4623   -3154.3574   -3082.1301    13546.071    8648.0028    3.2327238 
    3270    1373.4762   -3157.9444   -3081.4265    13371.227    8653.5885    3.2341072 
    3280    1413.8127   -3159.4755   -3080.7104    13969.949    8661.1377    3.2498209 
    3290    1409.3549   -3158.6052   -3080.0884    15070.511    8670.9277    3.2870497 
    3300    1344.6383    -3154.453   -3079.5417    16967.415     8683.642    3.3454151 
    3310    1339.2037   -3153.6583   -3079.0497    15557.708    8700.1396    3.4238304 
    3320    1386.8383   -3155.7657   -3078.5034    12208.636    8720.1324    3.5170813 
    3330    1413.0062   -3156.6377   -3077.9175    10178.925    8742.1912    3.6141741 
    3340    1422.4106   -3156.5609   -3077.3168     9840.802    8765.0027    3.7114248 
    3350    1444.1097   -3157.2156   -3076.7626    10753.312    8787.9309     3.817879 
    3360    1426.0502   -3155.7287   -3076.2819    11783.476    8811.6401    3.9450197 
    3370     1386.231   -3153.0837   -3075.8552    12522.821    8836.9273    4.0890993 
    3380    1354.9292    -3150.868   -3075.3834    11306.699    8863.4927    4.2364612 
    3390     1393.838   -3152.4692    -3074.817    7560.8896    8890.2376    4.3770973 
    3400     1421.333   -3153.3681   -3074.1841    6933.7669    8916.0994    4.5042416 
    3410    1399.1381   -3151.5099   -3073.5624    7729.6945    8941.1633    4.6239671 
    3420    1404.9366   -3151.1871   -3072.9165    7367.1926    8965.4342    4.7478384 
    3430    1479.9556   -3154.6889    -3072.239    5721.4311    8988.4978    4.8773163 
    3440    1444.0134   -3152.0429   -3071.5953    6877.1575    9010.3048    5.0151642 
    3450    1363.6072   -3146.9832   -3071.0151     9488.141    9031.2159    5.1551818 
    3460    1329.3756   -3144.4754   -3070.4144    10774.082    9051.8402    5.2956159 
    3470    1313.9439   -3142.9296   -3069.7283    10826.712    9072.3785    5.4489491 
    3480    1386.9907   -3146.2024   -3068.9316    8822.5437    9092.5976    5.6167415 
    3490    1434.6888   -3147.9975   -3068.0694    6995.1245    9111.9955     5.791686 
    3500     1415.687   -3146.1227   -3067.2532    6767.6217     9130.695     5.964564 
    3510    1419.6739    -3145.572   -3066.4804     6555.118    9149.0515    6.1098015 
    3520    1416.1712    -3144.599   -3065.7025    5815.3549    9166.1791    6.2225965 
    3530    1407.2182   -3143.3545   -3064.9568    5679.7115    9181.4371    6.3234572 
    3540    1396.3501   -3142.0325   -3064.2403    5759.7369    9195.4813    6.4314251 
    3550    1368.4874   -3139.7594   -3063.5194    5477.7457     9208.838    6.5517374 
    3560    1412.8885   -3141.4743   -3062.7607    4363.6093    9221.4499    6.6711584 
    3570      1405.86   -3140.3206   -3061.9985    4278.8259    9233.7017    6.7797794 
    3580    1383.9712   -3138.3485   -3061.2459    4046.5961    9246.4006    6.8767767 
    3590    1379.6331    -3137.306   -3060.4451    2776.8253    9258.9163    6.9649435 
    3600    1419.9602   -3138.6971   -3059.5895    1418.8779     9269.779    7.0361843 
    3610     1417.425   -3137.6599   -3058.6935    1308.0051    9277.6603    7.0866958 
    3620    1379.6243   -3134.6979   -3057.8374     2462.442    9281.9479    7.1247112 
    3630    1363.8153   -3132.9563   -3056.9766    4982.9859    9283.3822     7.156194 
    3640    1415.9516    -3134.948   -3056.0637    6783.3948    9282.7483    7.1681491 
    3650    1474.3423    -3137.264   -3055.1267     7464.373    9280.7266    7.1633198 
    3660    1455.6566   -3135.3084   -3054.2121    8455.4646    9278.1232    7.1600032 
    3670    1462.3925   -3134.8129   -3053.3414    8074.7186    9275.6058    7.1687474 
    3680    1496.8607   -3135.8752   -3052.4834    7978.9029    9273.7682    7.1981596 
    3690    1470.6133   -3133.5771   -3051.6476    8285.3501    9273.2849    7.2517482 
    3700    1438.3616   -3130.9672   -3050.8345    8257.4259    9274.4032    7.3238948 
    3710    1431.1897   -3129.7419   -3050.0087     8336.316    9276.6746     7.398708 
    3720    1463.9133   -3130.6896   -3049.1333    7594.4164    9279.8851    7.4828369 
    3730    1463.3815   -3129.7668   -3048.2402    8700.7911    9284.7816    7.5995244 
    3740     1458.656   -3128.6203    -3047.357    9464.6755    9292.5642    7.7430402 
    3750    1468.4501   -3128.2635   -3046.4545    8883.9955    9303.1819    7.8984383 
    3760    1562.6329    -3132.587   -3045.5309    7432.1463    9315.9933    8.0635741 
    3770    1556.6554   -3131.3409   -3044.6179    7809.0023    9330.0036    8.2297662 
    3780    1550.6946   -3130.1895   -3043.7985     7160.331    9344.9806    8.3906038 
    3790    1521.9388   -3127.8011   -3043.0121    6088.2954    9360.8949    8.5557061 
    3800    1498.9444   -3125.7881   -3042.2803    7136.4899    9377.9059    8.7412074 
    3810    1517.1515   -3126.0464   -3041.5242    7479.9293    9396.7554    8.9490115 
    3820    1601.7327   -3129.9586   -3040.7243    4714.1539    9417.6846    9.1595262 
    3830    1633.5396   -3130.9138   -3039.9074    3473.8055    9439.2614    9.3479122 
    3840    1608.5252   -3128.7719   -3039.1591    4679.6398     9459.941     9.513806 
    3850    1606.1842   -3127.9775   -3038.4952    4527.2696    9479.7726    9.6688091 
    3860    1577.2486   -3125.7262    -3037.856    4042.1497    9499.2546    9.8240357 
    3870    1550.7412   -3123.6293   -3037.2358    3546.7937    9518.5649    9.9865926 
    3880    1586.2685   -3124.9172   -3036.5444    3025.5361    9536.7808    10.164307 
    3890    1633.9634   -3126.8771   -3035.8471    3421.0744    9553.4838    10.368782 
    3900    1586.0413   -3123.5326   -3035.1725    4292.5431    9569.3262    10.599146 
    3910    1582.3657   -3122.6875   -3034.5321    4575.9739    9585.1585    10.856374 
    3920    1537.8658    -3119.538   -3033.8618     5178.536    9601.1538    11.144212 
    3930    1521.4152   -3117.9095   -3033.1498    5432.1579    9617.3556    11.441239 
    3940    1520.8052   -3117.0669   -3032.3411    5386.3937    9633.5252    11.714442 
    3950    1576.8646   -3119.3023   -3031.4534    3746.8671    9649.3248    11.947456 
    3960    1551.2682   -3116.9444   -3030.5215    3847.5317    9664.4882    12.155185 
    3970    1557.4295   -3116.3868   -3029.6207    4416.0931    9679.8269     12.36073 
    3980    1548.5713   -3114.9904   -3028.7178     4766.591    9696.7504    12.574986 
    3990    1603.7979   -3117.1191   -3027.7697    3022.5672    9714.7744    12.778585 
    4000     1649.247   -3118.7098   -3026.8284    1988.1612    9732.3957    12.962832 
    4010    1659.6318   -3118.4102   -3025.9502     1183.241    9749.2208    13.131441 
    4020    1644.8369   -3116.7632   -3025.1275    1064.9102    9764.2226    13.279194 
    4030    1675.4681   -3117.7301   -3024.3879    958.59815    9776.6242    13.426562 
    4040    1588.9612   -3112.2327   -3023.7099    3134.9659    9786.8062    13.570033 
    4050    1618.7732   -3113.2485   -3023.0648    2862.3386    9795.9974    13.686723 
    4060     1700.485   -3117.1029    -3022.367    910.86877    9804.1769    13.786045 
    4070    1704.1283    -3116.656   -3021.7171    -314.3209     9810.242     13.88941 
    4080    1635.7904    -3112.259   -3021.1273    94.605989    9813.7467    14.001137 
    4090    1554.1424   -3107.1366   -3020.5536    1187.9703    9814.7525     14.11486 
    4100    1562.3209   -3106.9468   -3019.9081     1288.397     9814.209    14.230466 
    4110    1603.0577   -3108.4569   -3019.1487    2279.1029    9813.1808    14.350227 
    4120    1611.5588   -3108.0975   -3018.3158    3815.9623    9812.1462     14.46927 
    4130    1556.7645   -3104.1777   -3017.4486    5159.5289    9811.7205    14.563348 
    4140     1612.609   -3106.3664   -3016.5261    4193.6317    9811.8919    14.610334 
    4150    1680.3151   -3109.1504   -3015.5382    2994.0395    9811.2752    14.641945 
    4160     1665.249   -3107.3783   -3014.6054    3135.6534    9809.1078    14.678827 
    4170    1666.1619   -3106.5592   -3013.7355     4092.128     9805.196    14.713073 
    4180    1709.3139   -3108.1237   -3012.8959    5008.9483    9800.7583     14.75493 
    4190    1726.5669   -3108.2911   -3012.1022     5093.865    9797.3023    14.821242 
    4200    1712.8318   -3106.8262   -3011.4025    4146.3895    9795.3277    14.901949 
    4210     1755.922   -3108.5889   -3010.7645    2291.4123    9794.2283    14.983855 
    4220    1749.1803   -3107.6366   -3010.1878    2706.6138    9792.6978    15.066393 
    4230    1730.8067   -3106.1131   -3009.6879    3875.1908    9790.7969    15.163895 
    4240     1678.499   -3102.7139   -3009.2028    4862.8968    9788.7799    15.288661 
    4250    1632.2484   -3099.6192   -3008.6848     4542.572    9787.0244    15.431164 
    4260    1652.6664   -3100.1828   -3008.1109    5324.5506    9786.7454    15.567643 
    4270    1725.1464   -3103.5715   -3007.4616    5755.7469    9788.7963    15.682616 
    4280    1710.7372   -3102.0974   -3006.7903     6342.205    9793.6101    15.794009 
    4290    1732.8621   -3102.6826   -3006.1429    6358.4166    9802.2506    15.909239 
    4300    1802.0851   -3105.8933   -3005.4971    4659.3848    9814.6501    16.047763 
    4310    1778.3415   -3103.9534     -3004.88    5403.7713    9829.1038    16.226072 
    4320    1815.6444   -3105.5014   -3004.3499    5946.6208    9845.2221    16.443853 
    4330     1832.937   -3105.9895   -3003.8745    4856.8893    9863.7514    16.689853 
    4340     1814.825   -3104.5644   -3003.4585    4444.7055    9883.5637    16.943567 
    4350    1827.4237   -3104.9176   -3003.1098    3633.1119    9903.8257    17.189857 
    4360    1786.2339    -3102.336   -3002.8229    3144.1223    9924.7481    17.430652 
    4370    1791.8901   -3102.3802    -3002.552    1956.0947    9946.1783    17.666205 
    4380     1734.657    -3098.891   -3002.2514     1649.362    9967.1205    17.896716 
    4390     1772.808   -3100.6867   -3001.9215    927.99796    9987.2957    18.133448 
    4400     1781.388   -3100.7774   -3001.5343    2154.1512      10006.2    18.370267 
    4410    1767.0968   -3099.5718   -3001.1249    2892.9148    10023.116    18.606602 
    4420    1769.0458   -3099.2375    -3000.682    3118.5779    10037.844    18.848812 
    4430     1830.348   -3102.1946   -3000.2239    1944.8298     10051.13    19.092758 
    4440    1791.2476   -3099.5525   -2999.7601    1665.3375    10063.677    19.334793 
    4450    1768.4227   -3097.8097   -2999.2889    1800.7007    10075.689     19.53472 
    4460    1780.8266   -3097.9591   -2998.7473    88.463812    10086.841    19.681573 
    4470     1800.983   -3098.4696   -2998.1348   -1740.1918    10096.488    19.788955 
    4480    1809.6682    -3098.302   -2997.4834   -2969.0476    10104.486    19.859077 
    4490    1772.5618   -3095.5535   -2996.8021   -2671.0445    10110.673    19.927735 
    4500    1739.8832   -3092.9689   -2996.0381   -2665.0075     10115.09    20.019992 
    4510    1878.1418   -3099.8294    -2995.196   -4434.7349    10117.064    20.113634 
    4520     1882.545   -3099.1929   -2994.3142   -2950.1778    10116.049    20.191238 
    4530    1874.4876   -3097.9396   -2993.5098   -1110.4355    10112.361    20.241795 
    4540    1916.7162   -3099.5348   -2992.7524   -430.71721    10106.563    20.278763 
    4550    1912.4701   -3098.6078   -2992.0619    219.33457    10099.612    20.350778 
    4560    1867.9669   -3095.5024   -2991.4359    1464.4657     10093.84    20.454678 
    4570     1892.869   -3096.3436   -2990.8897    1200.9108    10090.932    20.540598 
    4580    1969.6074   -3100.1313   -2990.4023    535.12154    10090.396    20.603835 
    4590    1959.7638   -3099.2162   -2990.0355    418.80316    10091.441    20.700435 
    4600    1958.6214   -3098.9275   -2989.8106   -176.42786    10093.004    20.840824 
    4610    1908.3344    -3095.999   -2989.6836   -48.487114    10094.371    21.002009 
    4620     1884.973   -3094.6302   -2989.6163    279.00894    10096.099    21.171116 
    4630    1969.0819   -3099.2971   -2989.5973   -529.74307    10098.271    21.358601 
    4640    1921.4015   -3096.6898   -2989.6464    626.28861    10100.379    21.545661 
    4650    1890.5684   -3095.0749   -2989.7492    391.94847    10103.196     21.71839 
    4660    1856.3179   -3093.2769   -2989.8593    690.49356     10106.77    21.881132 
    4670    1934.7091   -3097.7531   -2989.9683   -114.55673    10110.692    22.042205 
    4680    1934.2117   -3097.8681    -2990.111   -438.81338    10114.386    22.218239 
    4690    1852.7122   -3093.5048   -2990.2881    479.17734    10117.569     22.42121 
    4700    1879.5463   -3095.1613   -2990.4497    33.310741    10120.754    22.663475 
    4710    1888.2968   -3095.7884   -2990.5892     230.8867     10124.16    22.936576 
    4720    1857.0689   -3094.2011   -2990.7417    1331.6034    10128.874     23.21519 
    4730    1817.7286   -3092.1292   -2990.8615    2001.1532    10136.878    23.495469 
    4740    1876.9324   -3095.4938   -2990.9278    1319.7087    10148.828    23.782862 
    4750    1888.4148   -3096.1147    -2990.909    1134.4456    10162.885     24.08937 
    4760    1819.6508   -3092.1893   -2990.8145    2090.9739    10177.608    24.407307 
    4770    1818.7244    -3091.912   -2990.5888    2726.7503    10192.719    24.730551 
    4780    1844.7792   -3092.9272   -2990.1525    2584.8623    10208.768    25.066112 
    4790    1827.4453   -3091.2257   -2989.4167    1567.3128    10226.296    25.436244 
    4800    1884.9316   -3093.3378   -2988.3262   -1037.0759    10244.229    25.840147 
    4810     1856.742   -3090.3513   -2986.9101    -2198.637    10260.362     26.21166 
    4820    1866.2973   -3089.3006   -2985.3271   -2982.1511    10274.392    26.503631 
    4830    1900.4452   -3089.5004   -2983.6244   -4102.1131    10286.571    26.741327 
    4840     1876.996    -3086.514   -2981.9445   -3980.9818    10295.645    26.954933 
    4850    1947.3104   -3088.8766   -2980.3897   -3788.1793     10301.18    27.164988 
    4860    1981.1594   -3089.3222   -2978.9496   -3528.9545    10303.788    27.401242 
    4870    1966.5347   -3087.2861   -2977.7282   -2966.2732    10303.743    27.634298 
    4880    1982.7026   -3087.1286     -2976.67   -3415.9665    10300.724     27.82319 
    4890    1980.6455   -3086.1104   -2975.7664   -1646.5903    10293.799    27.949746 
    4900    1967.6949   -3084.5961   -2974.9736    485.86492    10283.374     28.01384 
    4910    1905.2538   -3080.3621   -2974.2182    3551.2203    10270.639    28.051131 
    4920    1949.6307   -3082.0761     -2973.46    4994.8058    10257.404    28.089462 
    4930    1967.8408    -3082.317   -2972.6864    5235.9536      10244.4    28.123888 
    4940    1977.1196   -3082.0941   -2971.9465    4125.3321    10231.326    28.135335 
    4950    1973.1225   -3081.1573   -2971.2324    2368.4498    10217.545    28.144398 
    4960    1931.5609   -3078.1308   -2970.5213    2739.2041    10203.228    28.178616 
    4970    1970.1752   -3079.5459   -2969.7852    3066.4069    10189.306    28.230464 
    4980     1985.292   -3079.6071   -2969.0042    5756.2225    10176.234    28.285142 
    4990    2068.5402   -3083.4748   -2968.2341    6813.5014    10164.506    28.337794 
    5000    2062.9218   -3082.4524   -2967.5247    7157.2782    10154.552    28.410576 
Loop time of 1770.08 on 16 procs for 5000 steps with 432 atoms

Performance: 0.244 ns/day, 98.338 hours/ns, 2.825 timesteps/s
97.1% CPU use with 16 MPI tasks x 1 OpenMP threads

MPI task timing breakdown:
Section |  min time  |  avg time  |  max time  |%varavg| %total
---------------------------------------------------------------
Pair    | 1221.9     | 1492.3     | 1684.2     | 340.6 | 84.31
Bond    | 0.00080204 | 0.0019851  | 0.003222   |   1.4 |  0.00
Neigh   | 0.043157   | 0.051451   | 0.059109   |   1.8 |  0.00
Comm    | 81.14      | 266.11     | 545.87     | 798.6 | 15.03
Output  | 0.869      | 0.87424    | 0.94899    |   2.1 |  0.05
Modify  | 1.3067     | 10.696     | 28.717     | 329.4 |  0.60
Other   |            | 0.05771    |            |       |  0.00

Nlocal:        27.0000 ave          32 max          23 min
Histogram: 2 1 1 2 4 2 1 2 0 1
Nghost:        368.500 ave         380 max         352 min
Histogram: 2 0 1 1 0 1 6 3 0 2
Neighs:         0.00000 ave           0 max           0 min
Histogram: 16 0 0 0 0 0 0 0 0 0
FullNghs:      1135.38 ave        1337 max         960 min
Histogram: 3 0 1 2 3 3 0 2 1 1

Total # of neighbors = 18166
Ave neighs/atom = 42.050926
Ave special neighs/atom = 0.0000000
Neighbor list builds = 500
Dangerous builds = 500
Setting up Verlet run ...
  Unit style    : metal
  Current step  : 5000
  Time step     : 0.001
Per MPI rank memory allocation (min/avg/max) = 8.897 | 8.899 | 8.900 Mbytes
Step Temp PotEng TotEng Press Volume c_msd[4] 
    5000    2062.9218   -3082.4524   -2967.5247    7157.2782    10154.552    28.410576 
    5010    2023.6848   -3080.2847   -2967.5429    6597.2323    10154.713    28.566832 
    5020    2080.1832   -3083.4958   -2967.6065    4488.9611    10155.059    28.710088 
    5030     2020.363   -3080.2923   -2967.7357    4084.1382    10155.463    28.856265 
    5040    1993.1174   -3078.9487   -2967.9099    4222.3711    10155.849    29.002285 
    5050    1991.2994   -3079.0112   -2968.0737    3954.5525    10156.105    29.154235 
    5060    2050.2996   -3082.4829   -2968.2584    4070.1232    10156.235      29.3119 
    5070    2104.9201    -3085.779   -2968.5115    5270.9744    10156.247    29.419282 
    5080    2182.3129   -3090.5212   -2968.9421    4790.9357     10156.29    29.459968 
    5090    2167.2253   -3090.3655   -2969.6269     3362.033    10156.491    29.506157 
    5100    2102.0749   -3087.6804   -2970.5714    2593.0595    10156.856    29.621927 
    5110    2022.0055   -3084.3259   -2971.6777    1751.6547    10157.401    29.801846 
    5120    1984.1492   -3083.4136   -2972.8744    1738.9883    10158.184    30.026469 
    5130    1929.7581   -3081.5862   -2974.0773    2739.6894    10159.171     30.27419 
    5140    1947.8794   -3083.7453   -2975.2267    3154.1108    10160.273    30.526624 
    5150    1978.1926   -3086.5427   -2976.3354    2615.4099    10161.485    30.786269 
    5160    1949.2201   -3085.9641   -2977.3709    2847.1709    10162.872    31.052393 
    5170    1942.4328   -3086.5189   -2978.3038     2922.455    10164.471    31.284515 
    5180    1969.6985   -3088.8419   -2979.1078    3026.1533    10166.145     31.46627 
    5190    2050.7054   -3094.0988   -2979.8517    466.22622    10167.823    31.602042 
    5200    1953.6026   -3089.3827   -2980.5453   -563.57922    10169.501    31.724045 
    5210    1863.4909   -3084.9097   -2981.0925   -775.91691     10171.18    31.862365 
    5220    1868.0507   -3085.5043   -2981.4331    96.363667    10172.914     32.03677 
    5230    1904.8901   -3087.7213   -2981.5977    1165.6202    10174.831    32.221498 
    5240    1954.3893   -3090.5385   -2981.6573    1662.2906    10177.017    32.399622 
    5250    1948.1768   -3090.1811    -2981.646    2212.1065    10179.575    32.582664 
    5260    2018.0718   -3094.0497   -2981.6206    1888.9557    10182.569    32.778277 
    5270    1978.7439   -3091.8226   -2981.5845    2119.0958      10185.9    33.030279 
    5280    1923.7871   -3088.7287   -2981.5524    643.68529    10189.463    33.328136 
    5290    1886.1236      -3086.5   -2981.4219   -1079.3217    10193.243     33.61556 
    5300    1906.3836   -3087.4222   -2981.2155   -2489.9423    10197.156    33.852457 
    5310    1890.4183   -3086.2481   -2980.9308   -1820.2619    10201.153    34.057688 
    5320    1868.5902   -3084.6581   -2980.5568   -398.12469    10205.222    34.246309 
    5330    1953.7015   -3088.9641   -2980.1212   -530.29364    10209.448    34.419379 
    5340    1948.9394   -3088.2268   -2979.6492    234.52665    10213.756      34.5848 
    5350    1915.0131   -3085.8718   -2979.1842     770.5865     10218.06    34.730841 
    5360    1918.1691   -3085.5461   -2978.6828    213.93702    10222.297    34.868755 
    5370    1901.2574   -3084.0553   -2978.1341   -490.61264     10226.36    35.036976 
    5380    1867.4854   -3081.5737    -2977.534    -479.5692    10230.257    35.254097 
    5390    1958.7266   -3086.0028   -2976.8799   -1247.9631    10233.964    35.491424 
    5400    1982.2781   -3086.6334   -2976.1984   -1245.8686      10237.4    35.700766 
    5410    1906.1126   -3081.7422   -2975.5505   -320.99395    10240.519    35.866184 
    5420    1962.5612   -3084.2516   -2974.9151    -181.5182    10243.488     35.99555 
    5430     2017.497   -3086.6506   -2974.2536    -470.0492    10246.392     36.12413 
    5440    1968.8036   -3083.3426   -2973.6583   -24.704311    10249.301    36.259761 
    5450    1920.4551   -3080.1109   -2973.1202    910.65528    10252.293    36.440817 
    5460    1911.4448   -3079.0578   -2972.5691     899.8576    10255.442    36.672899 
    5470    1891.7513   -3077.3725   -2971.9809    18.719763    10258.888     36.92071 
    5480    1905.7322   -3077.4934   -2971.3229   -379.18156    10262.629    37.126733 
    5490    1885.6705   -3075.6835   -2970.6307    536.96863    10266.562    37.295816 
    5500     1964.989   -3079.3827    -2969.911   -578.73808    10270.683    37.498722 
    5510    2081.9382   -3085.1718   -2969.1847   -2635.5077    10274.871     37.76646 
    5520    2073.7216   -3084.0995   -2968.5702   -1753.9302    10278.911    38.054589 
    5530    2123.6478    -3086.449   -2968.1382   -506.13496    10282.932    38.329896 
    5540    2057.7395    -3082.502   -2967.8631    1083.4986    10287.232    38.646487 
    5550     1962.877   -3077.0403   -2967.6862    2845.6121    10292.005      39.0152 
    5560     1977.063   -3077.6641   -2967.5197     2354.318    10297.411    39.361425 
    5570    1957.4056   -3076.3692   -2967.3199    2459.5969     10303.45    39.638684 
    5580    1913.2147   -3073.6885   -2967.1012     4172.704    10310.091    39.855834 
    5590      1998.95   -3078.2019   -2966.8381    3354.6173    10317.422    40.043373 
    5600    2002.4202   -3078.0877   -2966.5306    3552.4073    10325.326     40.20283 
    5610    2070.8825   -3081.6483   -2966.2771    2692.3512    10333.746     40.36091 
    5620    2056.9837   -3080.6741   -2966.0772    1640.5485    10342.641    40.543949 
    5630    2039.4305   -3079.5844   -2965.9654     658.2123    10351.992    40.745758 
    5640    2022.8846    -3078.579   -2965.8818    -633.0659    10361.589    40.947199 
    5650    1989.5768   -3076.6292   -2965.7877   -894.28437    10371.124    41.143079 
    5660    1988.4395   -3076.4727   -2965.6945   -2438.2804    10380.485    41.329658 
    5670    2008.2925   -3077.4779   -2965.5937    -2998.262    10389.541    41.495987 
    5680    2001.4493   -3077.0033   -2965.5003   -2019.5854    10398.324    41.636422 
    5690    1995.8489   -3076.6107   -2965.4197   -2128.6721     10407.03     41.81156 
    5700     2065.725   -3080.4063   -2965.3224   -4736.7537    10415.583    42.031557 
    5710    2113.2734   -3083.0001   -2965.2673   -5674.9581    10423.656    42.275072 
    5720    2099.7273   -3082.3252   -2965.3471   -5775.4567     10431.05    42.511894 
    5730    2088.5868   -3081.9166   -2965.5591   -5781.9065    10437.707    42.716919 
    5740    2105.6185   -3083.2512   -2965.9448   -5301.4307    10443.706    42.898734 
    5750    2053.1811   -3080.8804   -2966.4953   -4096.7587    10449.143    43.069665 
    5760    2024.3744   -3079.9817   -2967.2015   -3400.4842    10454.121    43.241121 
    5770    2056.8666   -3082.6926   -2968.1022   -3462.8459    10458.704     43.39665 
    5780    2022.5996   -3081.8919   -2969.2106   -3291.6358    10462.912    43.528327 
    5790    2013.0479   -3082.7086   -2970.5594   -3624.4544    10466.799    43.693499 
    5800    1990.1983   -3082.9679   -2972.0917   -3254.0855    10470.386     43.93319 
    5810    1964.1452   -3083.1318    -2973.707   -3355.7339    10473.649    44.212516 
    5820    2000.4129   -3086.8052     -2975.36   -5278.2132    10476.451    44.511652 
    5830    1919.9859   -3083.8676    -2976.903   -5498.5592    10478.558    44.812653 
    5840    1893.8261   -3083.7066   -2978.1994   -5637.4274    10479.935    45.081394 
    5850    1883.1054   -3084.1193   -2979.2094   -4923.2934    10480.685    45.299074 
    5860    1855.2215   -3083.2929   -2979.9364   -4483.3912    10480.887    45.451227 
    5870    1877.9496   -3085.0456   -2980.4229   -5404.4412    10480.602    45.578821 
    5880    1895.6079   -3086.3166   -2980.7101   -5568.4805    10479.729    45.692742 
    5890    1921.0726   -3087.8904   -2980.8653   -4846.2613    10478.213    45.760344 
    5900    1884.4417   -3085.8997   -2980.9154   -4852.8859    10476.043    45.795103 
    5910    1877.8386   -3085.4669   -2980.8504   -5903.6289    10473.107    45.831159 
    5920    1919.7315   -3087.6283   -2980.6779   -6551.8496     10469.47    45.906698 
    5930    1962.6195    -3089.774   -2980.4342   -6513.6073    10465.273    46.042948 
    5940    1926.4035   -3087.4933   -2980.1712   -4380.1492    10460.611    46.238927 
    5950    1944.4136   -3088.1793   -2979.8539   -3646.0925    10455.634    46.488235 
    5960    1980.8553   -3089.8473   -2979.4916   -4729.8642    10450.434    46.760203 
    5970    1959.9195   -3088.3143    -2979.125   -4247.4992    10444.969     47.00205 
    5980     1899.047   -3084.5216   -2978.7235   -3055.8262    10439.316    47.170595 
    5990    1900.3671   -3084.1209   -2978.2493    -3106.778    10433.583    47.266943 
    6000    1925.2772   -3084.9527   -2977.6934   -2710.4025    10427.689    47.300036 
    6010    1933.3631   -3084.7717   -2977.0618    -2011.259    10421.648    47.333004 
    6020      1926.71   -3083.7219   -2976.3827    -447.4126    10415.568    47.409013 
    6030    1914.0751    -3082.261   -2975.6257    674.80322     10409.76    47.497966 
    6040    1869.4969   -3078.9679   -2974.8161    773.40838    10404.369    47.584252 
    6050    1944.6695   -3082.3011   -2973.9614   -600.99383     10399.24    47.677201 
    6060    1924.0984   -3080.2468   -2973.0532   -678.15846    10394.133    47.789862 
    6070    1970.0251   -3081.9105   -2972.1582    -2386.674    10388.909    47.867676 
    6080    2014.1494   -3083.5048   -2971.2943   -4612.2766     10383.25    47.871564 
    6090    2060.6416   -3085.3506     -2970.55   -6402.8554    10376.779    47.848591 
    6100     2052.844   -3084.3078   -2969.9415   -5739.5367    10369.307    47.818645 
    6110     2086.342   -3085.7152   -2969.4827   -4459.2974    10360.841    47.791481 
    6120    2021.3073   -3081.7344   -2969.1251    -1775.481    10351.609    47.827406 
    6130    2057.7688   -3083.4757   -2968.8351    571.03766    10342.069    47.933066 
    6140    2088.4725   -3084.9614   -2968.6102    2020.6368    10332.642    48.061451 
    6150    1976.7281   -3078.5956   -2968.4698    3890.9806    10323.501    48.149405 
    6160    1973.8965   -3078.3201   -2968.3521    3464.4606     10314.65    48.148309 
    6170    2040.4187   -3081.9085   -2968.2345    950.30604    10305.905    48.106442 
    6180     2058.663   -3082.8496   -2968.1591     530.0146    10297.092    48.057341 
    6190    2076.3682   -3083.8273   -2968.1505    516.35562    10288.243    48.004833 
    6200    2069.4808   -3083.5224   -2968.2293   -641.06927    10279.429     47.98245 
    6210    2019.4907   -3080.8719   -2968.3638   -184.84801    10270.636    47.973515 
    6220    2025.6083   -3081.3636   -2968.5147    1183.6376    10262.054    47.966238 
    6230     2028.488   -3081.6675   -2968.6582    2078.6756    10254.035    48.021511 
    6240    2065.7561   -3083.9255   -2968.8399    2174.6217    10246.711    48.139549 
    6250    2070.0564   -3084.4361   -2969.1109     2520.929    10239.923    48.257003 
    6260    2078.8741   -3085.2852   -2969.4688     2527.425    10233.418    48.374241 
    6270    2068.9698   -3085.1688   -2969.9041    3334.7081    10227.156     48.48347 
    6280    2037.1634   -3083.8803   -2970.3877    3616.2152    10221.436    48.546905 
    6290     2075.273   -3086.5391   -2970.9233    1752.7386    10216.377     48.55883 
    6300    2097.0838    -3088.389   -2971.5581    646.81569    10211.747    48.539067 
    6310     2055.146   -3086.8126   -2972.3181    1226.4198    10207.455     48.54066 
    6320    1953.7251   -3081.9171   -2973.0728    2836.2095    10203.561    48.614518 
    6330    1989.0731   -3084.6111   -2973.7976    2027.0419    10200.158    48.731215 
    6340    1997.4383   -3085.7771   -2974.4975    1785.4888    10197.148    48.857987 
    6350    1938.8118   -3083.1721   -2975.1587    1239.4876     10194.43    49.025784 
    6360    1914.8578   -3082.4075   -2975.7286   -964.60358     10191.79    49.239907 
    6370    1940.0539   -3084.2739   -2976.1914   -3704.5575     10188.97    49.435735 
    6380    1944.4493   -3084.9099   -2976.5824   -5078.2696     10185.82    49.572777 
    6390    1934.4829   -3084.6587   -2976.8864   -4543.5069    10182.238    49.657283 
    6400    2008.9171   -3089.0513   -2977.1323   -4097.0682    10178.141    49.696001 
    6410    1996.4166   -3088.5728   -2977.3502   -2415.1812    10173.623    49.705013 
    6420    1966.2922   -3087.0874    -2977.543   -100.29512     10168.94    49.698679 
    6430    1951.4474    -3086.429   -2977.7117    958.73982    10164.235     49.71903 
    6440    1857.9274   -3081.2882    -2977.781    2064.1975    10159.506    49.757772 
    6450    1804.7045   -3078.2223   -2977.6802    2451.7759    10154.979    49.772689 
    6460     1826.912   -3079.1983    -2977.419    1999.6428    10150.849    49.771073 
    6470    1906.7615   -3083.2466   -2977.0188     1217.892    10146.952    49.758907 
    6480      1932.12    -3084.211   -2976.5704    53.665746     10142.96     49.77378 
    6490    1947.3825   -3084.6283   -2976.1374   -123.59831    10138.711    49.842414 
    6500    1996.4479   -3086.9468   -2975.7224    794.53656    10134.239    49.950821 
    6510    1950.4324   -3084.0368    -2975.376     3500.455    10129.671    50.084688 
    6520    1917.2112   -3081.8765   -2975.0665    5134.7403    10125.227    50.183884 
    6530    1945.5866   -3083.1512   -2974.7604    5256.0149    10121.028    50.207149 
    6540    1978.5865   -3084.6987   -2974.4694    3181.5759    10116.992    50.176342 
    6550     1972.063   -3084.0745   -2974.2086    1971.2452    10113.026    50.112954 
    6560    1941.9983   -3082.1571   -2973.9662    2443.4013    10109.143    50.064222 
    6570    1955.5287    -3082.664   -2973.7193    3664.3607    10105.316    50.092689 
    6580    1965.8209   -3082.9652   -2973.4471     5471.425    10101.496    50.218829 
    6590    2027.4756   -3086.1133   -2973.1604    6012.0099    10097.752    50.429768 
    6600    2055.9076   -3087.4543   -2972.9174    6653.1296    10094.167    50.698846 
    6610    2032.9913   -3086.0144   -2972.7541    8137.2873    10090.883    50.988342 
    6620    2035.9219   -3086.0517   -2972.6283    8753.1394    10088.032     51.21855 
    6630    2043.0158   -3086.3739   -2972.5552    7600.8235    10085.618    51.380708 
    6640    2046.5515   -3086.5486    -2972.533    6051.8791     10083.54    51.496273 
    6650    2025.8387   -3085.4187   -2972.5569    5147.1465    10081.711    51.616231 
    6660    2030.7407    -3085.751   -2972.6162    4341.1379    10080.151    51.812351 
    6670     2048.645   -3086.8447   -2972.7123    3725.6352    10078.843    52.021747 
    6680    2002.2935   -3084.4065   -2972.8565    3817.1362    10077.728    52.205106 
    6690    1965.1494   -3082.4825   -2973.0019    3170.0531    10076.837    52.388848 
    6700    2041.2301   -3086.8596   -2973.1404    1506.2734    10076.267    52.594155 
    6710    2074.8202    -3088.906   -2973.3155    629.11709    10075.991    52.843145 
    6720    2031.9253   -3086.7959   -2973.5951    609.00296    10075.887    53.099227 
    6730    1906.4844   -3080.0981   -2973.8857    1927.8766    10075.884    53.339946 
    6740    1964.9484   -3083.6054   -2974.1359    2450.5619    10075.999     53.55845 
    6750    1965.7499   -3083.8399   -2974.3258    4380.9659    10076.298    53.726513 
    6760    1953.6735   -3083.3519   -2974.5106    5684.7138    10076.935    53.842083 
    6770    1991.3143   -3085.5981   -2974.6598    4300.6491    10077.964     53.97459 
    6780     2027.639   -3087.7807   -2974.8186    2560.8994    10079.147    54.125009 
    6790    2001.5099   -3086.5109   -2975.0045     2832.349    10080.354    54.256289 
    6800    1997.0456   -3086.4793   -2975.2217    3716.3254     10081.75    54.354005 
    6810    2003.9125   -3087.1089   -2975.4687    3405.7463    10083.469    54.479323 
    6820    1973.0177   -3085.6482   -2975.7292    3163.6762    10085.473    54.683664 
    6830    1923.3698   -3083.1221    -2975.969    3401.6357    10087.724    54.917752 
    6840    1898.4938   -3081.9383    -2976.171    3417.3215    10090.264    55.105824 
    6850    1919.4239    -3083.214   -2976.2808    2959.8164    10093.055    55.231728 
    6860    2037.8716   -3089.8587   -2976.3266    1889.2545    10095.918    55.345361 
    6870    2065.7017   -3091.4839   -2976.4013    2867.7382    10098.705    55.487406 
    6880    1993.6415   -3087.6287   -2976.5607    5259.2819    10101.577    55.628184 
    6890    1948.8926    -3085.322    -2976.747    5219.2062    10104.819    55.744349 
    6900    1935.2226   -3084.7217   -2976.9083    2605.6996    10108.566    55.883159 
    6910    1958.0946   -3086.1056    -2977.018   -331.37881    10112.681    56.045189 
    6920    1926.3037   -3084.3759   -2977.0593    62.410948    10116.808    56.208986 
    6930    1958.5474    -3086.168   -2977.0551    1418.9064    10120.868    56.389238 
    6940    1987.9525   -3087.7325   -2976.9814    1825.8678    10125.025    56.612779 
    6950    2084.8625   -3093.0606   -2976.9106    445.21815    10129.283    56.900912 
    6960    2056.3249   -3091.4601   -2976.8999    1897.2284    10133.642    57.149151 
    6970    1946.3562   -3085.3855   -2976.9518    3278.8366    10138.313    57.294117 
    6980    1906.1959   -3083.1839   -2976.9876    3056.2877    10143.449     57.40867 
    6990    1874.2538   -3081.3102   -2976.8935    2145.3501    10149.065    57.550978 
    7000     1935.197   -3084.4774   -2976.6654   -234.36411    10154.939    57.717336 
Loop time of 674.942 on 16 procs for 2000 steps with 432 atoms

Performance: 0.256 ns/day, 93.742 hours/ns, 2.963 timesteps/s
97.8% CPU use with 16 MPI tasks x 1 OpenMP threads

MPI task timing breakdown:
Section |  min time  |  avg time  |  max time  |%varavg| %total
---------------------------------------------------------------
Pair    | 556.24     | 603.71     | 635.88     |  98.8 | 89.45
Bond    | 0.00013924 | 0.00045326 | 0.0011225  |   0.0 |  0.00
Neigh   | 0.014533   | 0.01577    | 0.016581   |   0.4 |  0.00
Comm    | 37.701     | 69.775     | 117.12     | 290.7 | 10.34
Output  | 0.078718   | 0.080469   | 0.10584    |   2.3 |  0.01
Modify  | 1.2333     | 1.3512     | 1.4824     |   9.2 |  0.20
Other   |            | 0.008286   |            |       |  0.00

Nlocal:        27.0000 ave          32 max          22 min
Histogram: 1 1 0 3 2 3 2 0 2 2
Nghost:        370.188 ave         390 max         339 min
Histogram: 1 0 1 3 2 1 1 1 2 4
Neighs:         0.00000 ave           0 max           0 min
Histogram: 16 0 0 0 0 0 0 0 0 0
FullNghs:      1134.75 ave        1324 max         909 min
Histogram: 2 0 1 1 4 1 1 2 1 3

Total # of neighbors = 18156
Ave neighs/atom = 42.027778
Ave special neighs/atom = 0.0000000
Neighbor list builds = 200
Dangerous builds = 200
Setting up Verlet run ...
  Unit style    : metal
  Current step  : 7000
  Time step     : 0.001
Per MPI rank memory allocation (min/avg/max) = 8.897 | 8.899 | 8.900 Mbytes
Step Temp PotEng TotEng Press Volume c_msd[4] 
    7000     1935.197   -3084.4774   -2976.6654   -234.36411    10154.939    57.717336 
    7010    1961.4808   -3085.9023    -2976.626   -1272.2519    10154.847    57.834118 
    7020    1934.8524   -3084.3449   -2976.5521   -892.37198     10154.66    57.995271 
    7030    1996.7445   -3087.6489    -2976.408   -868.85315    10154.668    58.173656 
    7040     2035.424    -3089.676   -2976.2803    1148.1283    10154.994    58.336284 
    7050    1945.6984   -3084.5459   -2976.1489    5284.5874    10155.749    58.457674 
    7060    2040.3429   -3089.7017   -2976.0319    4486.7469    10157.231    58.538029 
    7070    2083.6714   -3092.0178   -2975.9342    3068.1535    10159.391    58.639698 
    7080    1978.6007   -3086.1572   -2975.9272    3605.0493    10162.067    58.810854 
    7090    1947.9134   -3084.4446   -2975.9242    2524.7736    10165.245    58.992959 
    7100    1954.8453   -3084.7699   -2975.8632    1937.8652    10168.779    59.173926 
    7110     1923.955   -3082.9501   -2975.7644    2328.2706    10172.442    59.356421 
    7120    1968.7974   -3085.2522   -2975.5683    2328.4611    10176.163    59.513607 
    7130    1989.1541   -3086.1685   -2975.3505    2595.2008    10180.073    59.685037 
    7140    1923.0626   -3082.2306   -2975.0946    2537.6352    10184.274    59.867535 
    7150    1917.9087   -3081.5988     -2974.75     1387.982    10188.824    60.083029 
    7160    1904.4372   -3080.3413    -2974.243    2117.2068    10193.597    60.365945 
    7170    1924.9439   -3080.8166   -2973.5758    1377.4488    10198.463    60.642064 
    7180    1965.5079   -3082.2205   -2972.7199    21.271013     10203.39    60.816095 
    7190    2040.8371   -3085.3658   -2971.6685   -1624.5622    10208.414    60.941249 
    7200    2113.5485   -3088.3189   -2970.5707   -1914.6772      10213.5    61.059812 
    7210    2098.8654   -3086.4434   -2969.5132   -14.953398     10218.61     61.15408 
    7220    2069.8961   -3083.8804   -2968.5642    776.13572    10223.743     61.27354 
    7230    2079.4838   -3083.5756   -2967.7253    250.64518    10228.975    61.507009 
    7240    2115.8137   -3084.8692   -2966.9948   -1519.1785    10234.516    61.783148 
    7250    2141.6121   -3085.7275   -2966.4159   -2790.4319    10240.371    62.048962 
    7260     2085.563   -3082.2158   -2966.0267   -2388.9154    10246.412     62.31367 
    7270      2004.19   -3077.4495   -2965.7939   -1431.4856    10252.534    62.559296 
    7280    1975.4717   -3075.6802   -2965.6245   -1020.6397    10258.649    62.743305 
    7290    1960.0525   -3074.6613   -2965.4646   -353.00889     10264.75    62.857156 
    7300    1974.2775   -3075.2992     -2965.31    76.656476    10270.927    62.997705 
    7310    2034.9967   -3078.5581   -2965.1861   -546.03234    10277.169    63.265655 
    7320    2035.8626   -3078.5648   -2965.1446   -238.71813    10283.464    63.615556 
    7330    2016.3884   -3077.5597   -2965.2244    187.42566    10289.987    63.984497 
    7340    2018.2684   -3077.8236   -2965.3836    1246.1379    10296.804     64.35743 
    7350    2114.5566   -3083.4987   -2965.6943    1728.8437    10303.875    64.714614 
    7360    2075.2477   -3081.8421   -2966.2278    2805.8012     10311.17    65.015793 
    7370    2045.8884   -3080.9946   -2967.0158    1489.7099    10318.806    65.241289 
    7380    1947.2376   -3076.4427   -2967.9599    922.19312    10326.799    65.422375 
    7390    1913.8454   -3075.6162   -2968.9937    147.88002    10335.156    65.616916 
    7400    1953.0064   -3078.8862    -2970.082   -1056.1132    10343.688    65.901552 
    7410    1983.7415   -3081.7647   -2971.2483   -2053.3269    10352.175    66.223404 
    7420    1960.5327   -3081.7141   -2972.4906   -1974.4719    10360.421    66.454421 
    7430    1910.4403   -3080.1581   -2973.7253   -1316.9436    10368.348    66.612848 
    7440    1942.9184   -3083.1295   -2974.8873   -2152.3848    10375.973    66.791802 
    7450    1969.7425   -3085.7619   -2976.0254   -3377.8315    10383.299    67.024891 
    7460    1925.0282   -3084.3358   -2977.0903     -3605.28    10390.463    67.300616 
    7470    1877.2394   -3082.5895   -2978.0064    -2509.378    10397.597    67.643883 
    7480    1922.5109   -3085.8837   -2978.7785   -2928.7565    10404.852    68.075285 
    7490    1904.8882   -3085.5526   -2979.4291   -2869.4754    10412.183    68.570486 
    7500     1877.964   -3084.5721   -2979.9486   -2760.4742    10419.452    69.066564 
    7510    1903.0397   -3086.3802   -2980.3597   -3276.0011    10426.518    69.482476 
    7520    1929.5257   -3088.2133   -2980.7173   -3287.6601     10433.26    69.860786 
    7530    1884.4448   -3085.9989   -2981.0143   -3396.9481    10439.652    70.211618 
    7540    1909.8725   -3087.6673   -2981.2661   -5453.8034     10445.61    70.493259 
    7550     1911.634   -3087.9751   -2981.4758   -6711.0052    10450.929    70.681531 
    7560    1878.1673   -3086.3079   -2981.6731    -5344.543    10455.462    70.793666 
    7570    1832.5431   -3083.9151   -2981.8221    -4434.583     10459.28    70.949137 
    7580    1827.4449   -3083.7093   -2981.9003   -4773.4116    10462.557     71.19361 
    7590     1863.852   -3085.7472   -2981.9099   -5469.2401     10465.51     71.42471 
    7600    1842.3042      -3084.5   -2981.8632   -5293.2943    10468.237    71.596216 
    7610     1873.986   -3086.1786   -2981.7768   -5693.1396    10470.655    71.729624 
    7620     1897.246   -3087.3457    -2981.648   -6687.0311    10472.537    71.818163 
    7630    1908.9116   -3087.8812   -2981.5336   -6316.0054    10473.668    71.873492 
    7640    1899.3343   -3087.2456   -2981.4315   -4727.8513    10474.088    71.954291 
    7650    1931.2287   -3088.9507   -2981.3598   -4188.0067    10473.856    72.084922 
    7660    1882.1791   -3086.1601   -2981.3018   -3444.7535     10473.08    72.203628 
    7670    1903.8192    -3087.326   -2981.2621   -3889.7048    10472.104    72.305009 
    7680    1974.7182   -3091.2501   -2981.2363   -5875.9822    10471.016    72.388972 
    7690     1997.934   -3092.6236   -2981.3165   -7129.0998    10469.557    72.455632 
    7700    1967.4209   -3091.1423   -2981.5351   -6914.4094    10467.622    72.540927 
    7710    1922.0036   -3088.9523   -2981.8754   -6223.4436    10465.349    72.624779 
    7720    1881.2499   -3087.0928   -2982.2862   -4989.6649    10462.932    72.656176 
    7730    1850.9084   -3085.8487   -2982.7325   -2805.7471    10460.589    72.664769 
    7740    1850.8885   -3086.3222   -2983.2072   -1790.4941    10458.443    72.689464 
    7750    1850.0199   -3086.7836    -2983.717    -3038.855    10456.358     72.71268 
    7760    1855.3531   -3087.6464   -2984.2826   -5329.2235    10454.125     72.76181 
    7770    1789.5857   -3084.5843   -2984.8844   -6019.4398    10451.539      72.8441 
    7780    1759.3139   -3083.5015   -2985.4882   -6347.6334    10448.539    72.922539 
    7790    1792.9571   -3085.9582   -2986.0706   -7475.3682    10445.086    72.966847 
    7800    1776.0669   -3085.6139   -2986.6672   -7069.5681    10441.072    73.009669 
    7810    1757.9547   -3085.1887   -2987.2511   -6211.6194    10436.461    73.121646 
    7820    1798.1776   -3087.9942   -2987.8157   -6625.4986     10431.35    73.351397 
    7830    1847.0945   -3091.3032   -2988.3994   -7483.9273    10425.828    73.591981 
    7840    1874.5466   -3093.5169   -2989.0838   -7619.9138     10419.88     73.76841 
    7850    1820.4003   -3091.2784   -2989.8619   -5897.9642    10413.418    73.940569 
    7860    1817.9653   -3091.9582   -2990.6773   -5689.9454    10406.528    74.140459 
    7870    1820.1332   -3092.9547    -2991.553   -4728.9863    10399.296    74.355403 
    7880    1810.1623   -3093.2938   -2992.4476   -3622.6185    10391.723     74.56592 
    7890    1849.8092   -3096.4536   -2993.3987   -5368.4318    10383.781    74.730756 
    7900    1806.1573   -3094.9982   -2994.3751   -5925.9454    10375.304    74.845229 
    7910    1823.1356    -3096.928    -2995.359   -6585.1384    10366.197     74.89991 
    7920     1832.284   -3098.4213   -2996.3427   -6888.0947    10356.411     74.91786 
    7930     1769.795   -3095.8606   -2997.2633   -5383.6178    10345.945    74.942188 
    7940    1789.2847   -3097.7897   -2998.1067   -4695.8011     10334.91     74.98565 
    7950    1806.0044   -3099.4849   -2998.8704   -3718.8917    10323.328    75.050332 
    7960    1775.2436   -3098.4598   -2999.5589   -2723.0971    10311.302     75.15274 
    7970    1728.3598   -3096.4177   -3000.1289   -1989.7795    10298.982    75.297187 
    7980    1707.0793   -3095.6524   -3000.5491   -1154.9597    10286.455    75.430217 
    7990    1698.0036   -3095.4168   -3000.8191   -1568.7377    10273.817      75.5012 
    8000    1720.1005   -3096.7845   -3000.9558   -3031.2137    10261.053    75.530975 
    8010    1739.2142   -3097.8788   -3000.9852   -2833.7339    10248.047    75.536971 
    8020     1706.798   -3096.0059   -3000.9182   -1016.2575    10234.688    75.553906 
    8030    1717.6878   -3096.4277   -3000.7334   -565.00999     10221.09    75.578741 
    8040    1672.5429   -3093.5752   -3000.3959    564.32341    10207.496    75.546026 
    8050    1703.4322   -3094.8102   -2999.9101      1536.73    10194.135    75.374204 
    8060     1776.746   -3098.2792   -2999.2946    2538.7578    10181.101     75.15532 
    8070    1741.7372   -3095.5975   -2998.5634    3774.0043    10168.448    75.032921 
    8080    1775.7876   -3096.7015   -2997.7704    2808.1958    10156.371    75.049615 
    8090    1717.1976   -3092.6013   -2996.9343    3268.5454     10144.92    75.159903 
    8100    1760.0073   -3094.0994   -2996.0474     3441.146    10134.121    75.301995 
    8110    1794.4953   -3095.0974    -2995.124    3021.6039    10124.011     75.48317 
    8120    1824.1548   -3095.8725   -2994.2468    2191.4231    10114.492     75.69695 
    8130    1883.3328   -3098.3923   -2993.4697    379.62309    10105.303    75.914717 
    8140     1863.318   -3096.6612   -2992.8537   -224.33682    10096.236    76.078969 
    8150    1909.2928   -3098.7771   -2992.4082   -234.16904    10087.264    76.172218 
    8160    1884.9151   -3097.1378   -2992.1271    3180.8537     10078.41    76.250196 
    8170    1850.8034   -3095.0498   -2991.9395    5929.8774    10069.956    76.375328 
    8180    1894.3725   -3097.3917   -2991.8541    6156.1604    10062.234    76.605564 
    8190    1864.8263    -3095.751   -2991.8594    6258.4944    10055.327    76.941142 
    8200    1846.5387    -3094.806   -2991.9333    5414.5644    10049.126    77.272134 
    8210    1857.7824   -3095.5474   -2992.0483     4415.071     10043.55    77.477008 
    8220    1881.3382   -3097.0242   -2992.2128    3634.7709    10038.612    77.518165 
    8230    1912.4086   -3099.0083   -2992.4659    2921.0631    10034.306     77.46204 
    8240    1869.1615   -3096.9233   -2992.7902    3342.5521    10030.544       77.414 
    8250    1879.8056   -3097.9172   -2993.1911     4411.053    10027.218     77.40257 
    8260    1829.7823   -3095.5604   -2993.6212    5314.9579    10024.284    77.452436 
    8270    1786.0339   -3093.5654   -2994.0634     4342.957    10021.824    77.621151 
    8280    1737.7087   -3091.2452   -2994.4355    3152.6767     10019.86    77.892159 
    8290    1769.8685   -3093.3619   -2994.7605    1307.1513    10018.275     78.16121 
    8300    1783.2642    -3094.394   -2995.0463    80.240024    10016.815    78.395384 
    8310    1876.7097   -3099.9126    -2995.359   -684.19513    10015.288    78.560722 
    8320      1877.38   -3100.3404   -2995.7494    253.39641    10013.638    78.655166 
    8330     1843.148   -3098.9327   -2996.2488    1694.9334     10011.94    78.699933 
    8340    1766.9446   -3095.2106   -2996.7721    3623.1616    10010.301    78.707711 
    8350    1736.0706   -3093.9774    -2997.259    4388.6398    10008.925    78.748373 
    8360    1757.8487   -3095.6351   -2997.7034    3180.8235    10007.877    78.912703 
    8370    1772.2144   -3096.8706   -2998.1386    1792.9355    10006.997    79.151464 
    8380    1728.9631   -3094.8699   -2998.5474    1773.0874    10006.136    79.357064 
    8390     1788.332   -3098.5626   -2998.9326     1328.683    10005.273    79.494552 
    8400    1836.3172   -3101.6508   -2999.3475    488.60223     10004.39    79.566148 
    8410    1814.8188   -3100.9312   -2999.8256    336.26385    10003.499    79.582357 
    8420    1844.7565   -3103.1638   -3000.3903    408.97641    10002.653    79.575122 
    8430     1835.499   -3103.2994   -3001.0417    1512.6409    10001.849    79.577645 
    8440    1808.5244   -3102.5201   -3001.7651    1974.9641    10001.125    79.644237 
    8450    1813.6799   -3103.5808   -3002.5387     2864.721     10000.45    79.726374 
    8460    1860.7676   -3107.0394   -3003.3739    3198.6727    9999.7987    79.805951 
    8470    1871.5423   -3108.5793   -3004.3135    2229.6024      9999.08    79.902514 
    8480    1773.4004   -3104.0828   -3005.2847    2352.8171    9998.2765    79.995643 
    8490    1733.6341    -3102.742   -3006.1593     1045.786    9997.4795    80.092617 
    8500    1812.7002   -3107.9619   -3006.9744   -1514.9988     9996.644    80.162356 
    8510    1792.2437   -3107.5857   -3007.7378   -707.67196    9995.6646    80.242381 
    8520    1757.6703   -3106.3547   -3008.4329     1229.131    9994.6561    80.400228 
    8530    1671.6315   -3102.1172   -3008.9888    3050.7252    9993.8359    80.601913 
    8540    1672.2343    -3102.558   -3009.3959    2387.1316    9993.3372    80.774337 
    8550    1659.4256   -3102.1061   -3009.6576    2250.2248    9993.0412    80.874722 
    8560    1648.3896   -3101.6312   -3009.7976    2050.3381    9992.8763    80.891519 
[...]
   24890    314.64341   -3215.3334   -3197.8043    635.32134    8505.1086    106.82178 
   24900    322.88208   -3215.7585   -3197.7704    216.06554    8511.4986    106.91042 
   24910    312.59602   -3215.1757   -3197.7606   -379.66944     8518.712    107.01914 
   24920    294.12657   -3214.1482    -3197.762   -1234.3322    8526.5891     107.1258 
   24930     300.3868   -3214.4906   -3197.7557     -2450.74    8534.7507    107.20959 
   24940     317.6295   -3215.4392   -3197.7437   -3606.1692    8542.5931      107.281 
   24950    318.41179   -3215.4838   -3197.7447   -4006.6038    8549.5593    107.37028 
   24960    312.24295   -3215.1613   -3197.7659    -4310.435    8555.2488    107.48856 
   24970    305.80761   -3214.8403   -3197.8034   -4251.2183    8559.3178    107.60819 
   24980     296.8786   -3214.3918   -3197.8524    -3725.288    8561.6857    107.69126 
   24990    286.00922    -3213.836   -3197.9021   -3117.3735    8562.4752    107.72294 
   25000     282.9991   -3213.7098   -3197.9436   -2915.7864    8561.7576    107.71781 
   25010    290.14799   -3214.1406   -3197.9761   -2747.9603    8559.5049    107.70733 
   25020    295.81037   -3214.4817   -3198.0018   -2400.8316    8555.8436    107.71189 
   25030    304.81891   -3215.0085   -3198.0267   -2294.8012    8551.2322    107.72626 
   25040    309.40577   -3215.2987   -3198.0614   -2273.7683    8546.1014    107.72338 
   25050    306.86564   -3215.2152   -3198.1194   -2068.0303    8540.6065    107.67887 
   25060    301.59261   -3215.0103   -3198.2082   -1413.5939    8534.7271    107.59979 
   25070    293.96119    -3214.706   -3198.3291   -586.53184    8528.5499    107.51353 
   25080    287.85784   -3214.5108   -3198.4739   -119.52381    8522.3292    107.43996 
   25090     302.7477   -3215.5129   -3198.6465   -648.36659    8516.2841    107.37394 
   25100     317.5631   -3216.5549   -3198.8631   -1105.1586    8510.3426     107.3025 
   25110    318.34958   -3216.8566    -3199.121    -975.3251    8504.4291      107.218 
   25120    313.30652   -3216.8546   -3199.3999   -665.68061    8498.6885    107.12154 
   25130    301.58648   -3216.4685   -3199.6668   -44.169799    8493.4002    107.03047 
   25140     293.3882   -3216.2448   -3199.8999    737.04455    8488.8209    106.96407 
   25150    293.31651   -3216.4364   -3200.0954    1100.6146    8485.0389    106.93257 
   25160    294.46164   -3216.6657   -3200.2609     1002.729    8481.9773    106.94022 
   25170    291.20752   -3216.6236   -3200.4001    547.16973    8479.4473    106.96209 
   25180    291.58269   -3216.7603   -3200.5159   -197.70301    8477.2851    106.94805 
   25190     290.4948   -3216.7983   -3200.6145   -802.41932    8475.3076    106.88496 
   25200    277.42884   -3216.1469    -3200.691   -525.41445    8473.4008    106.80342 
   25210    278.73916   -3216.2701   -3200.7413    70.211909    8471.7083    106.72548 
   25220    289.65442   -3216.9065   -3200.7695    339.74618    8470.5074    106.65745 
   25230    293.91707   -3217.1612   -3200.7867    532.20404    8470.1081    106.61799 
   25240    288.15141     -3216.85   -3200.7968    877.01645    8470.7783    106.63222 
   25250    290.27248   -3216.9698   -3200.7984    702.92495    8472.6891    106.70917 
   25260    296.85552   -3217.3302    -3200.792   -413.62563    8475.8015    106.82938 
   25270     285.1457   -3216.6617   -3200.7759   -1608.7011    8479.6693    106.94853 
   25280     268.8311   -3215.7155   -3200.7386   -2374.5003    8483.4902    107.01495 
   25290    273.95181    -3215.933   -3200.6708   -2939.6565    8486.4063    107.00676 
   25300    283.54424   -3216.3704   -3200.5738   -2976.8068    8487.8925    106.93844 
   25310    285.21408   -3216.3461   -3200.4565   -2506.2323    8488.0008     106.8372 
   25320    293.41435   -3216.6696   -3200.3232   -2201.1738    8487.2764    106.73445 
   25330    298.95046   -3216.8331   -3200.1783   -2098.4474    8486.2558    106.66157 
   25340    294.32535   -3216.4298   -3200.0326   -1895.4034    8485.1413    106.62817 
   25350    292.32564   -3216.1729   -3199.8871   -1741.6763    8484.0676    106.61195 
   25360    295.54037    -3216.204   -3199.7392   -1888.4904    8483.2903    106.58104 
   25370     300.6601   -3216.3431    -3199.593   -2146.9934    8482.8624    106.52269 
   25380    286.32606   -3215.4054   -3199.4538   -1313.7292    8482.5458    106.44226 
   25390    277.39756   -3214.7712   -3199.3171    201.44755    8482.4985    106.36489 
   25400    298.62442   -3215.8077    -3199.171    1072.8625    8483.2904    106.31714 
   25410     310.6094   -3216.3311   -3199.0267    1222.3698    8485.3201    106.31417 
   25420    299.18369   -3215.5745   -3198.9066    992.34447    8488.7093    106.35943 
   25430    291.08112   -3215.0215    -3198.805    501.47694    8493.4589     106.4458 
   25440    297.93919   -3215.3048   -3198.7063   -348.86658    8499.4132    106.56336 
   25450    294.24455   -3214.9989   -3198.6062   -1111.2152    8506.1023     106.6926 
   25460    288.09521   -3214.5554   -3198.5053   -1944.2718    8513.0069    106.81243 
   25470    297.06981   -3214.9461    -3198.396   -2898.9475    8519.5907    106.91498 
   25480    311.01883    -3215.611   -3198.2838   -3502.1762    8525.2245    107.00675 
   25490    309.29165   -3215.4179   -3198.1869   -3350.0923     8529.454    107.09565 
   25500    304.70264   -3215.0871   -3198.1118   -3195.3266    8532.3768    107.19059 
   25510    301.75601   -3214.8608   -3198.0496   -3015.6228    8534.2741    107.29866 
   25520    296.49098   -3214.5106   -3197.9928   -2717.3112    8535.3752    107.41968 
   25530    309.92137   -3215.2056   -3197.9395   -2945.5973    8535.8826    107.54759 
   25540      313.643   -3215.3682   -3197.8948   -3150.8666    8535.7933    107.66418 
   25550     311.3742   -3215.2145   -3197.8675   -3080.0832    8534.9182    107.73585 
   25560    316.54497   -3215.4923   -3197.8572   -2727.6378    8533.0221    107.74159 
   25570    319.14772    -3215.646   -3197.8659    -1971.821    8530.1492    107.70005 
   25580    318.75816   -3215.6526   -3197.8943   -1515.5754    8526.8391    107.65089 
   25590    314.26171   -3215.4517   -3197.9438   -1662.5538    8523.5976    107.61858 
   25600    307.46323   -3215.1381   -3198.0089    -1802.412    8520.4339    107.58754 
   25610    311.83482   -3215.4628   -3198.0902   -2125.6123    8517.0632    107.53178 
   25620    309.49846   -3215.4299   -3198.1874   -2209.1074     8513.127     107.4571 
   25630    309.78616   -3215.5612   -3198.3027   -2259.4833     8508.359     107.3873 
   25640    305.28678   -3215.4404   -3198.4325   -1968.9779    8502.6197    107.32769 
   25650    301.61994   -3215.3692   -3198.5656   -1190.9283    8496.1377    107.26974 
   25660    303.58925   -3215.6096   -3198.6963   -173.10155    8489.6596    107.20879 
   25670    299.90542   -3215.5316   -3198.8235    750.21489    8484.0882    107.14913 
   25680    301.13052   -3215.7298   -3198.9535    766.74225     8479.987    107.08039 
   25690     299.4622   -3215.7698   -3199.0865    271.48362    8477.2317    106.97705 
   25700    301.91316   -3216.0381   -3199.2181   -448.38498    8475.3897    106.84525 
   25710    311.25496    -3216.693   -3199.3527   -1301.6218     8474.137    106.72116 
   25720    309.37473   -3216.7281   -3199.4925   -1642.8325    8473.2138    106.62621 
   25730    296.03445   -3216.1202   -3199.6278   -1319.7235    8472.6206    106.56253 
   25740     274.5871   -3215.0353   -3199.7377    -761.1998    8472.7917    106.52633 
   25750    266.99216   -3214.6838   -3199.8094   -678.38522    8474.2158    106.50997 
   25760    279.34616   -3215.4089   -3199.8462   -1313.3377    8476.8558    106.50093 
   25770    284.55172   -3215.7066   -3199.8539   -1761.6045    8480.0768    106.48563 
   25780     293.1809   -3216.1777   -3199.8443   -1940.4834    8483.2303    106.46345 
   25790    302.56786   -3216.6857   -3199.8293   -1762.4757     8485.987    106.45771 
   25800    295.61813   -3216.2856   -3199.8164   -909.74255    8488.3257    106.49213 
   25810    287.76264   -3215.8339   -3199.8023    37.150667    8490.4468    106.57288 
   25820    291.98789   -3216.0485   -3199.7815    502.00115    8492.6656    106.69519 
   25830    297.86709   -3216.3518   -3199.7573    502.81307    8495.3651    106.84447 
   25840    302.16022   -3216.5694   -3199.7357   -40.785624    8498.8445     106.9844 
   25850    301.19371   -3216.4992   -3199.7194   -716.42042    8503.0252    107.08279 
   25860    287.93838   -3215.7428   -3199.7014   -1360.7869    8507.5738    107.13033 
   25870    294.81622   -3216.1005    -3199.676   -2105.5523    8512.1877    107.12359 
   25880     308.4731   -3216.8312   -3199.6458   -2520.7558    8516.5697    107.07825 
   25890     302.2573   -3216.4622   -3199.6231   -2060.5615    8520.4887    107.02924 
   25900      292.944   -3215.9255   -3199.6053   -1708.3829    8523.9874     107.0111 
   25910    303.38064   -3216.4864   -3199.5848   -2463.2883    8527.1312    107.03826 
   25920    314.21866   -3217.0725    -3199.567   -3972.9013     8529.612    107.08709 
   25930    302.92868    -3216.439   -3199.5625   -4890.5988    8530.9041    107.11961 
   25940    292.83449   -3215.8794   -3199.5653   -5138.7001    8530.7203    107.11438 
   25950    291.86212   -3215.8256   -3199.5657   -5250.7427    8528.9522    107.06979 
   25960     291.7362   -3215.8143   -3199.5613    -5069.179    8525.5322    107.00105 
   25970    294.60019   -3215.9654   -3199.5529    -4635.789    8520.4755    106.93578 
   25980    287.67469   -3215.5642   -3199.5375   -4222.7149    8513.9533    106.88664 
   25990    285.51326    -3215.413   -3199.5068   -3681.4943    8506.3614    106.84667 
   26000    292.74475   -3215.7655   -3199.4563   -3039.7803    8498.2044    106.81042 
   26010    290.87488   -3215.5922   -3199.3873   -1946.3076    8489.9396     106.7823 
   26020    296.31999   -3215.8098   -3199.3015   -571.39902    8482.1114    106.76782 
   26030    296.77629   -3215.7358   -3199.2021    510.32295    8475.2856    106.76563 
   26040    301.75789     -3215.91   -3199.0987    802.63047    8469.7432    106.75753 
   26050    303.62837   -3215.9088   -3198.9934    956.16193     8465.487    106.71676 
   26060     305.8883   -3215.9317   -3198.8904    1081.9972    8462.5238    106.64515 
   26070    315.37297    -3216.362   -3198.7922    780.30091    8460.7846    106.57241 
   26080     313.4548   -3216.1684   -3198.7055    564.32512    8460.1419    106.52394 
   26090    306.42018   -3215.7032   -3198.6322    433.73961    8460.6644    106.50604 
   26100    307.26735   -3215.6844   -3198.5662    39.843758    8462.4496    106.51521 
   26110    304.52127   -3215.4663   -3198.5011    175.26577    8465.2572     106.5415 
   26120    303.32988   -3215.3338    -3198.435    613.47878    8468.7972    106.57219 
   26130    306.82672   -3215.4574   -3198.3638    977.58451    8472.9987    106.59775 
   26140    319.62103   -3216.0946   -3198.2881    561.19584    8477.8181    106.62478 
   26150    327.23701   -3216.4485   -3198.2177   -437.49288    8483.1124    106.66702 
   26160    321.55164   -3216.0795   -3198.1655   -1110.8477    8488.8284    106.71936 
   26170    321.36337   -3216.0369   -3198.1334   -1743.1298    8495.0958    106.76264 
   26180    319.31495   -3215.9098   -3198.1204   -2215.9928    8501.9674    106.78467 
   26190    301.50571   -3214.9194   -3198.1221   -2491.7538    8509.3118    106.79107 
   26200    296.11791   -3214.6225   -3198.1254   -2780.4449    8516.8814    106.79466 
   26210    303.77283   -3215.0455    -3198.122    -3049.879    8524.2834    106.81287 
   26220    297.88041   -3214.7117   -3198.1164   -2959.8408    8531.1108    106.87615 
   26230    289.48393   -3214.2363   -3198.1088   -3074.9704    8537.2155    107.00211 
   26240    299.22223   -3214.7625   -3198.0925   -3930.6407    8542.5494       107.16 
   26250    304.93107   -3215.0575   -3198.0695   -4579.9581    8546.8059     107.2975 
   26260    311.03733   -3215.3816   -3198.0533   -4791.4334     8549.629    107.39039 
   26270     305.9822   -3215.0975   -3198.0509   -3870.8886    8550.8889    107.43969 
   26280    296.59761   -3214.5809   -3198.0571   -2645.0427    8550.8681    107.44944 
   26290    304.24504   -3215.0148    -3198.065   -1852.9011    8549.9056    107.42542 
   26300    313.35344   -3215.5367   -3198.0794   -1496.9433    8548.1142    107.37045 
   26310    310.37743   -3215.3994   -3198.1079   -1343.6071    8545.6416    107.29265 
   26320    306.78905   -3215.2417   -3198.1501   -1430.2333    8542.7862    107.20963 
   26330    306.31131   -3215.2676   -3198.2026   -1729.6098    8539.7159    107.13418 
   26340    312.62006   -3215.6849   -3198.2685   -2002.2151    8536.3133    107.06141 
   26350    320.79147   -3216.2289   -3198.3573   -1848.5985    8532.2891    106.99126 
   26360    319.55488   -3216.2768   -3198.4741   -1257.1606    8527.5923     106.9332 
   26370    308.56436   -3215.8001   -3198.6096   -337.54344    8522.6812    106.88589 
   26380    294.14655   -3215.1335   -3198.7462    446.27405    8518.3378     106.8433 
   26390    291.70836   -3215.1261   -3198.8747    558.92088    8515.0465    106.78856 
   26400     298.4245   -3215.6255        -3199    348.95905    8512.6826    106.71611 
   26410    295.39288   -3215.5777    -3199.121   -140.83158    8510.9499    106.65822 
   26420    299.48059   -3215.9216   -3199.2372   -806.44573    8509.5289     106.6442 
   26430    302.03595   -3216.1803   -3199.3536   -1433.9933    8508.0784    106.66996 
   26440    288.05519   -3215.5103   -3199.4624   -1703.9268    8506.4297    106.71792 
   26450    291.97102   -3215.8224   -3199.5564    -2200.506    8504.6515    106.76558 
   26460    309.36945   -3216.8822   -3199.6469   -2968.1441    8502.6762    106.79286 
   26470    308.10326   -3216.9103   -3199.7455   -3342.5838     8500.201    106.78521 
   26480    304.46744   -3216.8145   -3199.8523   -3345.4481    8496.9659    106.74218 
   26490    303.31368   -3216.8617   -3199.9637   -3208.2078    8492.8295    106.68706 
   26500    296.37068    -3216.584   -3200.0728   -2772.3556    8487.9039    106.64712 
   26510    287.20344   -3216.1683   -3200.1679   -2392.3085    8482.6085    106.61532 
   26520    287.78992   -3216.2758   -3200.2427    -2148.234      8477.52    106.56401 
   26530    292.86121   -3216.6194   -3200.3038   -2086.5511    8473.0531    106.48073 
   26540    289.56796   -3216.4885   -3200.3563   -1761.2307    8469.1496    106.38433 
   26550    291.01085   -3216.6129   -3200.4003   -1637.2124    8465.4432    106.30837 
   26560    294.42771   -3216.8407   -3200.4378   -1541.5422    8461.5678    106.28001 
   26570     284.3341   -3216.3063   -3200.4658   -1237.3911    8457.3761    106.29561 
   26580    280.90504   -3216.1253   -3200.4757     -752.955    8453.1027    106.31519 
   26590    288.31079   -3216.5269   -3200.4648   -375.97078    8449.1935    106.29845 
   26600    291.05876    -3216.653   -3200.4378      18.4533    8446.0321    106.22702 
   26610    298.46563   -3217.0286   -3200.4008    20.229253    8443.8999    106.11874 
   26620    311.94258   -3217.7409   -3200.3623   -337.81593    8442.8622    106.02527 
   26630    310.40087   -3217.6259   -3200.3331   -623.56912    8442.7314     105.9929 
   26640     296.2513   -3216.8175   -3200.3131   -424.02716    8443.2629    106.03429 
   26650    295.36021   -3216.7454   -3200.2906    -324.4041    8444.3714    106.11862 
   26660    298.23776   -3216.8756   -3200.2605   -358.81315    8445.9856    106.20309 
   26670    287.28823   -3216.2246   -3200.2194   -50.295522    8447.9564    106.26205 
   26680    294.21785   -3216.5532    -3200.162   -168.26301    8450.2005    106.28876 
   26690    305.90219    -3217.125   -3200.0829   -672.17213    8452.5747    106.29899 
   26700     305.2783    -3216.998   -3199.9906   -808.90817    8454.8792    106.32979 
   26710    304.80944   -3216.8694   -3199.8881   -891.13352    8457.0017    106.40687 
   26720    306.55466   -3216.8504   -3199.7719   -975.93546    8458.8113      106.527 
   26730    303.73237   -3216.5653    -3199.644   -860.53258    8460.4433    106.66177 
   26740    289.13548    -3215.612    -3199.504   -159.76834    8462.4033    106.77831 
   26750    289.68916    -3215.483   -3199.3441    278.16752    8465.2255     106.8532 
   26760     299.2616   -3215.8267   -3199.1545    28.185168    8469.0886    106.88118 
   26770    301.52284   -3215.7462   -3198.9481   -503.27045    8473.8851    106.87414 
   26780    304.74594   -3215.7169   -3198.7391   -1020.5811    8479.3805    106.84548 
   26790    311.25954   -3215.8761   -3198.5354   -1558.2999    8485.1716    106.81634 
   26800    313.36116   -3215.8074   -3198.3497   -1910.6984    8490.7696     106.8159 
   26810    317.06577   -3215.8559   -3198.1918   -2499.7066    8495.8127    106.86063 
   26820    323.24322   -3216.0741   -3198.0659   -3513.1367    8500.0833    106.95312 
   26830    327.46128   -3216.2192    -3197.976   -4353.0321    8503.4235    107.07571 
   26840      331.538   -3216.3973    -3197.927   -4865.0316    8505.6831     107.1852 
   26850    325.08687   -3216.0299   -3197.9189   -4774.4281    8506.8043    107.24649 
   26860    314.44327   -3215.4591   -3197.9411   -4574.8306    8506.9205    107.24993 
   26870    313.09625   -3215.4244   -3197.9815   -4439.5054    8506.0111    107.19298 
   26880    311.62825   -3215.3989   -3198.0377   -3942.2569    8503.8644    107.09208 
   26890    298.51992   -3214.7329    -3198.102    -3024.776    8500.5219    106.98772 
   26900    294.31491   -3214.5578   -3198.1612   -2411.0482    8496.2945    106.91068 
   26910    307.62677   -3215.3533   -3198.2151   -1933.3413    8491.4796    106.87009 
   26920    319.52303   -3216.0778   -3198.2768   -1389.5813    8486.3421    106.86658 
   26930    316.47378   -3215.9878   -3198.3567   -1160.0212    8481.1469    106.88187 
   26940    308.46276   -3215.6365   -3198.4517   -828.64905    8476.0482    106.89151 
   26950    307.51465   -3215.6892   -3198.5572   -727.28368    8470.9443    106.88357 
   26960    305.28923   -3215.6807   -3198.6727   -460.69203     8465.465    106.85369 
   26970    294.38194   -3215.1864   -3198.7861    290.91643    8459.4355    106.81105 
   26980    297.44188   -3215.4583   -3198.8874    704.32408    8453.1392    106.78543 
   26990    307.16025   -3216.0952    -3198.983    709.66051    8446.9935    106.78976 
   27000    308.83887   -3216.2869   -3199.0811    712.19835    8441.2829    106.80736 
Loop time of 3230.54 on 16 procs for 10000 steps with 432 atoms

Performance: 0.267 ns/day, 89.737 hours/ns, 3.095 timesteps/s
96.9% CPU use with 16 MPI tasks x 1 OpenMP threads

MPI task timing breakdown:
Section |  min time  |  avg time  |  max time  |%varavg| %total
---------------------------------------------------------------
Pair    | 2231.2     | 2846       | 3157.7     | 417.5 | 88.10
Bond    | 0.00074005 | 0.0021611  | 0.004667   |   2.2 |  0.00
Neigh   | 0.072589   | 0.083539   | 0.090981   |   1.6 |  0.00
Comm    | 65.285     | 375.82     | 991.85     |1150.5 | 11.63
Output  | 0.38458    | 0.39588    | 0.55928    |   6.7 |  0.01
Modify  | 2.9267     | 8.1552     | 15.568     | 161.0 |  0.25
Other   |            | 0.03945    |            |       |  0.00

Nlocal:        27.0000 ave          30 max          23 min
Histogram: 2 0 1 0 3 4 0 0 5 1
Nghost:        413.375 ave         430 max         400 min
Histogram: 1 0 3 4 2 2 1 2 0 1
Neighs:         0.00000 ave           0 max           0 min
Histogram: 16 0 0 0 0 0 0 0 0 0
FullNghs:      1370.62 ave        1596 max        1129 min
Histogram: 1 1 1 1 4 2 1 4 0 1

Total # of neighbors = 21930
Ave neighs/atom = 50.763889
Ave special neighs/atom = 0.0000000
Neighbor list builds = 1000
Dangerous builds = 1000
System init for write_data ...
Total wall time: 2:31:23
