LAMMPS (29 Sep 2021 - Update 3)
OMP_NUM_THREADS environment is not set. Defaulting to 1 thread. (src/comm.cpp:98)
  using 1 OpenMP thread(s) per MPI task
Reading data file ...
  orthogonal box = (0.0000000 0.0000000 0.0000000) to (15.612583 15.612583 31.225167)
  1 by 2 by 4 MPI processor grid
  reading atoms ...
  432 atoms
Finding 1-2 1-3 1-4 neighbors ...
  special bond factors lj:    0        0        0       
  special bond factors coul:  0        0        0       
     0 = max # of 1-2 neighbors
     0 = max # of 1-3 neighbors
     0 = max # of 1-4 neighbors
     1 = max # of special neighbors
  special bonds CPU = 0.001 seconds
  read_data CPU = 0.006 seconds
Neighbor list info ...
  update every 1 steps, delay 10 steps, check yes
  max neighbors/atom: 2000, page size: 100000
  master list distance cutoff = 6.22
  ghost atom cutoff = 6.22
  binsize = 3.11, bins = 6 6 11
  1 neighbor lists, perpetual/occasional/extra = 1 0 0
  (1) pair quip, perpetual
      attributes: full, newton on
      pair build: full/bin
      stencil: full/bin/3d
      bin: standard
Setting up Verlet run ...
  Unit style    : metal
  Current step  : 0
  Time step     : 0.001
Per MPI rank memory allocation (min/avg/max) = 8.908 | 8.915 | 8.920 Mbytes
Step Temp PotEng TotEng Press Volume c_msd[4] 
       0          300   -3221.2609   -3204.5475   -60435.673    7611.2206            0 
      10    363.34178   -3225.8221   -3205.5799   -53983.346    7582.5343 0.0061230031 
      20    508.90849   -3236.3497   -3207.9978   -38494.223    7503.3228  0.024624649 
      30    634.68824   -3245.9032   -3210.5441   -16774.558    7391.6833  0.053958659 
      40    647.98369    -3248.375   -3212.2751    5320.0713    7272.5626  0.089742864 
      50    531.99787   -3242.2594   -3212.6212    24293.936    7169.3485   0.12773332 
      60    386.22733   -3233.4619   -3211.9448    38642.234    7097.8464   0.16112321 
      70    388.10484   -3233.1879   -3211.5661    44091.459    7065.2972   0.17879807 
      80    491.36823   -3239.6374   -3212.2628    41075.496    7070.7741   0.17612265 
      90    586.80188   -3246.7175   -3214.0261    32076.352    7107.7043   0.15762792 
     100    603.29611    -3249.955   -3216.3447    21426.326    7166.3534   0.13367784 
     110     536.1101   -3248.3687   -3218.5014    12671.624    7236.6106   0.11352231 
     120    434.26484    -3244.252   -3220.0586    6105.0411    7310.3268   0.10034505 
     130    379.03488   -3242.1216   -3221.0052   -626.48463    7381.4612  0.092620939 
     140    384.53736   -3242.9679   -3221.5449   -7213.8767    7444.5975  0.089509676 
     150    404.21734   -3244.4529   -3221.9335   -12215.966    7495.0274  0.091555997 
     160    410.59694    -3245.255   -3222.3802   -15044.761    7529.7966  0.097853593 
     170    397.71405   -3245.1182   -3222.9611   -16434.798    7547.9257    0.1062161 
     180     378.3089   -3244.7489   -3223.6729   -16208.846    7549.6644   0.11499097 
     190    346.55462   -3243.7507   -3224.4438   -13082.293    7536.6398    0.1236308 
     200    336.05934   -3243.8935   -3225.1712   -8537.4436    7512.6299   0.13030158 
     210     341.8668   -3244.8709   -3225.8251   -4648.7071     7482.331   0.13361399 
     220    357.50386   -3246.3384   -3226.4215   -1930.8419    7449.6126   0.13297845 
     230    381.95444   -3248.2976   -3227.0185   -388.38529    7417.0372   0.12893549 
     240    390.88863    -3249.432   -3227.6552     702.2617    7385.9905   0.12389989 
     250     385.4944   -3249.7813   -3228.3049    2220.1317    7357.3933   0.12019291 
     260    376.72822   -3249.9273   -3228.9394    3649.6339    7332.3375   0.11875063 
     270    365.92884   -3249.9284   -3229.5421    5402.4481    7311.8636   0.11933422 
     280    358.79331   -3250.1029   -3230.1141    7042.3917    7297.1688   0.12087473 
     290    362.09859   -3250.8567   -3230.6838    7146.5601    7289.2228   0.12209532 
     300    377.21174   -3252.3155   -3231.3006    5513.6319    7287.7168   0.12277421 
     310    362.31436    -3252.133   -3231.9481    4397.2995    7291.1197   0.12408763 
     320    338.41794   -3251.4126   -3232.5589    3440.2413    7298.2126   0.12509331 
     330    322.05379   -3251.0511   -3233.1091    2105.3912    7307.9792   0.12459728 
     340    321.30891   -3251.5019   -3233.6015    400.27644    7319.1714   0.12252395 
     350    332.34168   -3252.5853   -3234.0702   -1908.0342    7330.2067   0.11971521 
     360     325.3704   -3252.6519   -3234.5251   -3363.9572    7339.1989   0.11745314 
     370    317.25827   -3252.6402   -3234.9654   -4135.8515    7344.9197   0.11538365 
     380    302.38754    -3252.225   -3235.3786   -4378.6324    7346.7975   0.11314822 
     390    289.13394    -3251.857    -3235.749   -4738.0725    7344.7142   0.11026862 
     400    294.26552   -3252.4876   -3236.0938   -5610.5814    7338.4751    0.1070449 
     410    301.34113   -3253.2255   -3236.4375   -5315.1425    7327.6269   0.10564735 
     420    295.68057   -3253.2377    -3236.765   -2807.8435    7312.7265   0.10711047 
     430    296.21326   -3253.5457   -3237.0433    83.739287    7296.0022   0.11006032 
     440    306.23221   -3254.3404   -3237.2799    2203.4314    7279.9955   0.11319208 
     450    304.92134   -3254.4874   -3237.4999    3899.9018    7266.5604   0.11598188 
     460    296.96714     -3254.26   -3237.7156    4842.4367    7256.9998   0.11714131 
     470    296.25718     -3254.44   -3237.9352    4856.2747    7251.9318   0.11571466 
     480    296.75239   -3254.6931   -3238.1607    4151.3997     7251.212   0.11262691 
     490    299.52689   -3255.0769   -3238.3899    2380.8492    7254.0191   0.10911073 
     500    302.84163   -3255.4874   -3238.6158    406.21779    7258.7635   0.10556571 
     510    304.58381   -3255.8067    -3238.838    -1332.498    7263.7121   0.10202414 
     520    304.00936   -3255.9962   -3239.0595   -2832.4734    7267.3523  0.098974258 
     530    296.60322    -3255.806   -3239.2819   -3360.0335    7268.4797  0.097419006 
     540    279.41598   -3255.0568   -3239.4903   -2342.9471    7266.7688  0.097851218 
     550    269.94976   -3254.7062    -3239.667   -721.36152    7263.1382  0.099538113 
     560    263.32775   -3254.4698   -3239.7995     758.2439    7259.0076   0.10195815 
     570    262.22704   -3254.4925   -3239.8835     1652.632    7255.6499    0.1043615 
     580    270.57898   -3255.0023    -3239.928    1197.4354    7253.7331   0.10632096 
     590    275.94571   -3255.3165   -3239.9432    430.60007    7252.8959   0.10847217 
     600    273.70439   -3255.1818   -3239.9334    367.32949     7252.532   0.11085004 
     610    277.64288   -3255.3677   -3239.8999   -176.54127     7252.459   0.11184092 
     620    291.52933   -3256.0891   -3239.8477   -1370.4874     7252.181   0.11047385 
     630    298.11938   -3256.3959   -3239.7874   -1779.6853     7250.791   0.10785369 
     640    289.20511   -3255.8369   -3239.7249   -1131.6389    7247.9867   0.10536764 
     650    282.18174   -3255.3728   -3239.6521   -489.38714    7244.3022   0.10328892 
     660    286.63324   -3255.5297    -3239.561   -468.10426    7240.2574   0.10207994 
     670    283.66921   -3255.2548   -3239.4512    770.32078    7236.0461   0.10270977 
     680    279.29011   -3254.8825   -3239.3229    2497.3892    7232.6793    0.1043822 
     690      282.379   -3254.9074   -3239.1757     3157.158    7231.4952   0.10559214 
     700    292.84415   -3255.3293   -3239.0147    2881.1166    7233.0175   0.10586724 
     710    299.90558   -3255.5529   -3238.8448    1876.0368    7236.9288   0.10573847 
     720    303.35244   -3255.5727   -3238.6726    331.71651    7242.2998    0.1056235 
     730    299.63876   -3255.1939   -3238.5007   -762.87975    7247.8444   0.10571232 
     740      289.462   -3254.4572   -3238.3309   -933.68506    7252.6442   0.10589077 
     750    288.92579   -3254.2541   -3238.1577    -700.6877    7256.5203   0.10583304 
     760     300.8376   -3254.7353   -3237.9753   -392.64231    7259.6735   0.10598206 
     770    295.57393   -3254.2587   -3237.7919    575.42784    7262.4654   0.10691879 
     780    283.51041   -3253.4102   -3237.6155    1140.1484    7265.6638   0.10686557 
     790     294.5864   -3253.8415   -3237.4297    278.74379    7269.6636   0.10431568 
     800    306.52355   -3254.3057   -3237.2289   -687.96409    7273.7867   0.10140536 
     810    297.89781   -3253.6292    -3237.033   -668.60086    7277.2852     0.100283 
     820    294.73591   -3253.2673   -3236.8472   -449.91173     7280.129   0.10025266 
     830    296.46263   -3253.1774   -3236.6612   -415.65966    7282.4988   0.10074596 
     840    302.10503   -3253.3055   -3236.4748    -1020.392    7284.3912   0.10167073 
     850    316.45041   -3253.9211   -3236.2913   -1710.2958    7285.3421   0.10311538 
     860    320.29885   -3253.9679   -3236.1237   -1135.0638    7284.8808   0.10587402 
     870    317.49796   -3253.6684   -3235.9803    648.37743    7283.5396   0.10967588 
     880    321.36628   -3253.7616    -3235.858    2261.9729    7282.7917   0.11339013 
     890    318.56799   -3253.5102   -3235.7624    3359.9535    7284.0309   0.11645825 
     900    307.49819   -3252.8266   -3235.6956     3136.552       7288.1   0.11802845 
     910    312.25696   -3253.0379   -3235.6417    1120.0506     7294.682   0.11767577 
     920    313.78572   -3253.0704    -3235.589   -522.33437    7302.1241   0.11740015 
     930    304.29107   -3252.4986   -3235.5462   -151.46871    7309.1062   0.11835473 
     940    306.24375   -3252.5781   -3235.5169    951.53131    7315.8591   0.11954833 
     950    302.46923   -3252.3495   -3235.4986    1788.2281    7323.2837   0.12044694 
     960    302.18924   -3252.3221   -3235.4868    1299.1779    7332.0209   0.12003157 
     970    312.11966   -3252.8613   -3235.4727   -735.61847     7341.594   0.11815876 
     980    309.67876     -3252.71   -3235.4574   -2706.3918    7350.3089   0.11653979 
     990    304.19391   -3252.3956   -3235.4486   -3665.3748    7356.4867   0.11587566 
    1000    311.66799   -3252.8154    -3235.452   -3540.0429    7359.3294   0.11600616 
    1010    311.21074   -3252.8144   -3235.4765   -1974.2339    7359.0603   0.11725809 
    1020    295.67321   -3251.9841   -3235.5118   -590.09828    7357.0231   0.11843676 
    1030    305.18123   -3252.5514   -3235.5494   -1381.4406    7354.3292   0.11754967 
    1040    313.41596   -3253.0578    -3235.597     -1983.69    7350.4905   0.11615149 
    1050    297.98761   -3252.2555   -3235.6543    -1369.219    7345.0819   0.11562633 
    1060    302.65425   -3252.5754   -3235.7141   -2078.4568    7338.4558   0.11438894 
    1070    319.58185    -3253.597   -3235.7927    -2893.158     7330.117   0.11293545 
    1080    310.79318   -3253.2047   -3235.8901   -1169.7824    7319.6462   0.11310232 
    1090    310.67992   -3253.2959   -3235.9876    662.11305    7308.3805   0.11374112 
    1100    318.83886   -3253.8559   -3236.0931    1829.2134    7297.9191   0.11421947 
    1110    303.04542   -3253.0906   -3236.2076    2352.3467    7289.2898   0.11472224 
    1120    298.29544   -3252.9404    -3236.322    1708.7945    7282.8509    0.1135383 
    1130    312.05369   -3253.8272   -3236.4423    473.55735    7278.0092   0.11074735 
    1140    307.45139   -3253.7036   -3236.5751    209.99969    7273.7786   0.10876912 
    1150    296.00963   -3253.1973   -3236.7063    452.03469     7269.863   0.10799763 
    1160    304.62738   -3253.8055   -3236.8344    811.36301    7266.4379   0.10747285 
    1170    308.08834    -3254.132   -3236.9681    1730.5438    7263.8522   0.10755689 
    1180    304.18442   -3254.0568   -3237.1103    2364.3316    7262.8239   0.10770505 
    1190    306.33872   -3254.3311   -3237.2647    1710.6509    7263.7749    0.1068217 
    1200     302.5271   -3254.2792   -3237.4251    638.97893    7266.1809   0.10530394 
    1210    303.03366   -3254.4657   -3237.5834    -920.7869      7269.05   0.10375358 
    1220    306.79394   -3254.8343   -3237.7425   -1759.9178    7271.1165   0.10296306 
    1230    303.36498   -3254.8085   -3237.9077   -1012.0349    7271.7305   0.10340594 
    1240    291.13817   -3254.2874   -3238.0677    660.72553    7271.5428   0.10442924 
    1250    290.19242   -3254.3812   -3238.2142    1199.9455    7271.8613   0.10480369 
    1260    291.93282   -3254.6141   -3238.3502    709.55444    7273.1496   0.10485421 
    1270    282.75598   -3254.2229   -3238.4702    475.66962    7275.0718   0.10528209 
    1280    279.30182   -3254.1296   -3238.5694   -87.397997    7277.3369   0.10553565 
    1290    274.21158   -3253.9208   -3238.6441   -517.50798    7279.4959   0.10538407 
    1300    279.40171   -3254.2585   -3238.6928   -1141.0942    7281.1518   0.10445574 
    1310     299.8367   -3255.4337   -3238.7294    -1994.935    7281.7395   0.10370227 
    1320    288.48694   -3254.8369    -3238.765   -966.94185    7280.7295    0.1053735 
    1330    277.01216   -3254.2249   -3238.7922    174.72611    7278.8975   0.10802958 
    1340    293.82166   -3255.1708   -3238.8016   -107.17663    7277.1442   0.10982316 
    1350    296.96085   -3255.3409   -3238.7969   -506.22197    7275.3194   0.11198272 
    1360    281.59746   -3254.4687   -3238.7806   -152.18755    7273.1556   0.11475575 
    1370    279.21036   -3254.2981    -3238.743   -188.33245    7270.8668   0.11662668 
    1380    289.94839   -3254.8342   -3238.6808   -433.08288     7268.436   0.11749899 
    1390    298.33196   -3255.2245   -3238.6041    18.313924    7265.7256   0.11832233 
    1400    302.02393   -3255.3489   -3238.5228    1128.4596    7263.1384   0.11936217 
    1410    305.65542   -3255.4727   -3238.4443    2063.8449    7261.5794   0.12035089 
    1420    300.12748   -3255.0961   -3238.3756    2716.1783    7261.8448   0.12133995 
    1430    285.71571   -3254.2317   -3238.3142    2989.1443    7264.4493   0.12196672 
    1440    275.02338   -3253.5663   -3238.2444    2491.6672     7269.571   0.12115242 
    1450    282.14886   -3253.8699    -3238.151    894.50869    7276.7211    0.1184998 
    1460    287.75551   -3254.0601   -3238.0289   -782.25038    7284.5412   0.11572626 
    1470    284.52871   -3253.7397   -3237.8883   -1830.3574    7291.6156   0.11423283 
    1480    298.43054    -3254.361   -3237.7351   -2871.6623    7296.9705   0.11379481 
    1490    306.58327   -3254.6589   -3237.5788   -2996.2339    7299.7736   0.11511484 
    1500    296.19312   -3253.9405   -3237.4393   -1598.8348    7300.0084    0.1175944 
    1510    300.61747   -3254.0576   -3237.3099   -619.11169    7298.7811   0.11863949 
    1520    308.69212   -3254.3771   -3237.1796    56.230095    7297.0166   0.11799078 
    1530    308.50054   -3254.2402   -3237.0532    629.23437    7295.3208   0.11675871 
    1540    297.94028   -3253.5303   -3236.9317    1309.7215    7294.2271     0.115811 
    1550    284.94788   -3252.6809   -3236.8062    1647.8928    7294.2839   0.11485996 
    1560    293.46381   -3253.0145   -3236.6653    1055.3842     7295.721   0.11305662 
    1570    309.48725    -3253.749   -3236.5071     99.88062    7298.0396   0.11115878 
    1580    319.11569   -3254.1306   -3236.3524   -544.24593    7300.4418   0.11033325 
    1590    325.29207   -3254.3441   -3236.2217   -658.30972    7302.3668   0.11094444 
    1600    316.13927    -3253.736   -3236.1236    130.84962    7303.7663   0.11261777 
    1610    313.29395   -3253.5067   -3236.0527    221.92416    7305.2009   0.11352023 
    1620    325.05832   -3254.1127   -3236.0033   -464.36782     7306.749   0.11317437 
    1630    316.36603   -3253.6051   -3235.9799   -269.07038    7307.9431   0.11334493 
    1640    303.08555    -3252.864   -3235.9788    501.30759    7308.9164   0.11427703 
    1650    297.90062   -3252.5812   -3235.9848    1612.2424    7310.3383   0.11532975 
    1660    289.53815   -3252.1197   -3235.9892    2586.9384    7313.1725   0.11567118 
    1670    305.81662   -3253.0298   -3235.9924     1374.895    7318.0921   0.11399009 
    1680    317.98205   -3253.7121    -3235.997   -314.74179    7324.1233   0.11198889 
    1690    298.67653   -3252.6507    -3236.011   -411.50097    7329.9332   0.11099034 
    1700    295.48899   -3252.4863   -3236.0243    -1876.255    7335.1677   0.10902143 
    1710    308.77573   -3253.2336   -3236.0313   -4570.4626    7338.5484   0.10616038 
    1720    316.50467   -3253.6891   -3236.0562   -5987.7472    7337.9028    0.1045278 
    1730    316.84798   -3253.7677   -3236.1157   -5585.5663     7332.053   0.10515126 
    1740    313.64286   -3253.6717   -3236.1983   -3326.0099    7321.4632    0.1076231 
    1750    307.33488   -3253.4031   -3236.2811   -224.36708    7308.1593   0.11080995 
    1760    295.68306   -3252.8206   -3236.3478    2273.4374    7294.8448   0.11328731 
    1770    293.07841   -3252.7277      -3236.4     2908.443    7283.6254   0.11363145 
    1780    310.59232   -3253.7595   -3236.4561    2334.0708    7275.0741   0.11236792 
    1790    307.48184   -3253.6544   -3236.5242    2630.5439    7268.7839   0.11216819 
    1800    297.74817   -3253.1864   -3236.5986    3916.2831    7264.9855   0.11283229 
    1810    309.70276    -3253.939   -3236.6851    3983.7751    7264.5777   0.11256849 
    1820    316.74778   -3254.4408   -3236.7944    3390.5289    7267.6231   0.11173813 
    1830    311.30668   -3254.2701   -3236.9269    2728.3419    7273.6114   0.11082516 
    1840    305.65928    -3254.099   -3237.0704    1699.0467    7281.9077   0.10943483 
    1850    305.16223   -3254.2143   -3237.2133    230.08748    7291.5641   0.10751226 
    1860    300.95964   -3254.1166   -3237.3498    -1272.156    7301.2869   0.10574244 
    1870    291.53628   -3253.7148   -3237.4729   -2478.7044    7309.7884   0.10427679 
    1880    292.75548   -3253.8937   -3237.5839   -4012.2734    7315.9268   0.10286272 
    1890    288.39617    -3253.755   -3237.6881   -4350.2615    7318.5157   0.10248978 
    1900     288.4273   -3253.8556    -3237.787   -3554.8822    7317.2874   0.10331974 
    1910    296.80341   -3254.4158   -3237.8806   -2368.7208    7312.9511   0.10496707 
    1920    297.95001   -3254.5685   -3237.9694   -1309.7299    7306.5721   0.10699237 
    1930    296.44448   -3254.5694   -3238.0542   -407.51093    7299.1208   0.10876266 
    1940    283.41191   -3253.9182    -3238.129    654.42994    7291.4255   0.11055056 
    1950    268.13643   -3253.1175   -3238.1794    1651.1475    7284.4193   0.11224365 
    1960    273.73828   -3253.4532   -3238.2029     1804.895       7278.9   0.11327463 
    1970    282.42696   -3253.9368   -3238.2024    1847.3357    7275.0368   0.11425688 
    1980    284.27441   -3254.0181   -3238.1808    1853.1235    7272.8545   0.11534009 
    1990    293.80501   -3254.5091   -3238.1409    895.33745     7272.252   0.11567386 
    2000    304.60822   -3255.0579   -3238.0878   -429.54134    7272.4103   0.11517577 
    2010    305.82461   -3255.0737   -3238.0359   -861.73379     7272.247   0.11446152 
    2020     294.0144   -3254.3684   -3237.9886   -197.52922     7271.425   0.11376265 
    2030    293.77519    -3254.303   -3237.9365   -28.007267    7270.3918   0.11251818 
    2040    300.53693   -3254.6205   -3237.8772   -147.15347    7269.3311   0.11155933 
    2050    295.54101   -3254.2806   -3237.8157   -68.321429    7268.1749   0.11191715 
    2060    299.31769   -3254.4284   -3237.7531   -110.02798    7266.9532   0.11268799 
    2070    304.19514   -3254.6362   -3237.6892    7.3282679    7265.6684   0.11320674 
    2080    302.32496    -3254.472   -3237.6292    351.08925    7264.4215   0.11324371 
    2090    302.31047   -3254.4158   -3237.5738    776.01696    7263.4959   0.11271636 
    2100    295.46943   -3253.9803   -3237.5194    1490.3254    7263.2923   0.11223812 
    2110    286.57487    -3253.427   -3237.4616    2001.6034    7264.3947   0.11171425 
    2120    294.33087   -3253.7906   -3237.3931    1098.2847    7267.1441    0.1104685 
    2130    306.49527   -3254.3863   -3237.3111   -501.88437     7270.787   0.10911933 
    2140    308.21144   -3254.3986   -3237.2278   -920.42711    7274.0466     0.108508 
    2150    302.19486   -3253.9883   -3237.1527    170.00843    7276.5869   0.10846184 
    2160    290.38132   -3253.2586   -3237.0811    1691.6038    7279.2973   0.10828704 
    2170    290.34961   -3253.1791   -3237.0034      1626.21    7283.3532   0.10722542 
    2180    302.41336   -3253.7598    -3236.912   -116.64302    7288.6798   0.10597884 
    2190    305.86575   -3253.8532   -3236.8131   -1766.0232    7293.8682   0.10579667 
    2200     307.0069   -3253.8214   -3236.7177   -2833.4367    7297.4986   0.10604818 
    2210    318.32279   -3254.3674   -3236.6332   -3561.7393    7298.6014   0.10569774 
    2220    317.80255   -3254.2766   -3236.5715   -2538.3059     7296.673   0.10557083 
    2230    304.82851   -3253.5128   -3236.5305   -199.38545    7292.5972   0.10619472 
    2240    299.96391   -3253.2048   -3236.4935    1999.1182    7288.3709   0.10698675 
    2250     302.0825   -3253.2854    -3236.456    3052.7667    7285.8546   0.10783664 
    2260    296.20829   -3252.9226   -3236.4205    3036.2278     7285.979   0.10869017 
    2270    301.41219   -3253.1781   -3236.3861    2023.5914    7288.7269    0.1085799 
    2280    312.37797   -3253.7546   -3236.3516    520.90822    7293.2122   0.10779963 
    2290    310.08388   -3253.5987   -3236.3236   -484.74215    7298.1828   0.10749565 
    2300    313.10216   -3253.7499   -3236.3066    -1391.178    7302.6977   0.10746932 
    2310    319.13399   -3254.0848   -3236.3055   -1936.8812    7305.9719   0.10800011 
    2320    308.81623   -3253.5287   -3236.3242   -1487.0936    7307.5767    0.1095179 
    2330    297.46553   -3252.9251    -3236.353   -277.86243      7307.92   0.11042065 
    2340    300.15624   -3253.1049   -3236.3829    475.12819    7307.9964   0.10946071 
    2350    297.98537    -3253.016   -3236.4149    765.46235    7308.4768   0.10779515 
    2360      287.995   -3252.4896    -3236.445    798.96691    7309.6357   0.10657567 
    2370    297.20019   -3253.0258   -3236.4684   -427.96852    7311.3931   0.10567802 
    2380    307.44064   -3253.6178     -3236.49   -1870.8514    7312.7483   0.10559599 
    2390    301.61577   -3253.3187   -3236.5153   -2633.2512    7312.4848   0.10594744 
    2400    310.17551   -3253.8301   -3236.5499   -3529.3494    7309.8436   0.10518238 
    2410    313.25962   -3254.0568   -3236.6048   -3231.0767    7304.1674   0.10426922 
    2420    302.89471   -3253.5485   -3236.6738   -1270.1946    7295.7829   0.10430877 
    2430    313.33392    -3254.206   -3236.7498    84.356053    7286.2426    0.1049731 
    2440    314.69524   -3254.3733   -3236.8413    1720.8434    7276.8602   0.10726935 
    2450    301.54618   -3253.7455    -3236.946    3289.6246    7269.0473   0.11049029 
    2460     303.8424    -3253.993   -3237.0656    3366.3831    7264.0571   0.11214274 
    2470    309.82456    -3254.468   -3237.2073    2570.7483    7261.9906   0.11200836 
    2480    303.73199   -3254.2872    -3237.366    2140.0749    7262.2417   0.11123087 
    2490    295.84827   -3254.0077   -3237.5256    1332.1643    7264.3465   0.11012177 
    2500     293.9457   -3254.0508   -3237.6747   -361.69835    7267.5471   0.10890381 
    2510    288.25631   -3253.8653   -3237.8062   -1881.8355    7270.4407   0.10806618 
    2520    289.55591   -3254.0503   -3237.9188   -2931.3656    7271.6908   0.10764156 
    2530    300.18681    -3254.749   -3238.0252    -3218.939    7270.3953   0.10824553 
    2540    295.91416   -3254.6167    -3238.131   -1900.5975    7266.4061   0.11057355 
    2550    294.17446   -3254.6148    -3238.226   -544.60457    7260.7597   0.11326102 
    2560    303.12572   -3255.2016   -3238.3141   -192.29053    7254.5649   0.11561932 
    2570    296.75936   -3254.9322   -3238.3994    871.21336    7248.2801   0.11893431 
    2580    279.53375   -3254.0399   -3238.4668    2797.5337    7242.8521   0.12283843 
    2590    282.62734    -3254.258   -3238.5125    3852.3406    7239.8237   0.12500631 
    2600    296.61933   -3255.0753   -3238.5503    3753.1443    7240.1061   0.12489588 
    2610    294.40321   -3254.9922   -3238.5906    3448.3021    7243.6801   0.12379611 
    2620    287.19583   -3254.6305   -3238.6305    2900.9644    7250.2645   0.12205217 
    2630    292.45141   -3254.9508    -3238.658    1714.1314    7259.3477   0.11952595 
    2640    291.23506   -3254.8902   -3238.6652    640.18887    7269.9572   0.11719346 
    2650    286.67409   -3254.6233   -3238.6524   -386.85654    7281.1548   0.11510244 
    2660    288.70077   -3254.7003   -3238.6164   -2248.3975     7291.921   0.11265626 
    2670    288.95196   -3254.6533   -3238.5555   -4213.0612    7300.6492   0.11039995 
    2680    293.07048   -3254.8082   -3238.4809   -5215.2909    7305.6801   0.10924156 
    2690    292.19076   -3254.6841   -3238.4058   -4306.5141    7306.2134   0.10995768 
    2700    282.56226   -3254.0665   -3238.3246   -2208.8543    7303.0065   0.11181656 
    2710    281.44963   -3253.9009    -3238.221    -866.4686    7297.7945   0.11267848 
    2720    292.41227   -3254.3801   -3238.0895   -682.40404    7291.7558   0.11186319 
    2730    294.87083   -3254.3624   -3237.9349    39.359507    7285.1935   0.11094634 
    2740    286.45577   -3253.7222   -3237.7634    1645.2446    7278.7602   0.11096214 
    2750    283.15886   -3253.3494   -3237.5743    2894.9355    7273.7916   0.11144091 
    2760    301.41006   -3254.1609    -3237.369     2432.674    7271.2591   0.11182716 
    2770    312.61296   -3254.5734   -3237.1574    2255.0692    7270.9076   0.11310587 
    2780    299.71343   -3253.6686   -3236.9713    3193.5426    7272.6501   0.11498001 
    2790     298.4016    -3253.443   -3236.8187    3046.7551    7277.1348   0.11505968 
    2800     310.9551   -3254.0111   -3236.6875    1253.7592    7284.1812   0.11323187 
    2810    312.78143   -3254.0037   -3236.5782   -270.00943    7292.3603    0.1115454 
    2820    303.83407   -3253.4239    -3236.497    -1250.738    7300.3102   0.11069502 
    2830    308.28955   -3253.6097   -3236.4345   -2313.7454    7307.1204   0.10973974 
    2840    325.63519   -3254.5307   -3236.3892    -3490.203    7311.8162    0.1088473 
    2850    319.14766    -3254.157   -3236.3769   -2187.3741    7313.5823   0.10942008 
    2860    304.13794   -3253.3343   -3236.3904    433.61927    7313.4866   0.11044797 
    2870    299.91974   -3253.1168    -3236.408     1665.755    7313.6645   0.11008761 
    2880    302.69683   -3253.2841   -3236.4205    839.46758    7315.1639   0.10827274 
    2890    312.85392   -3253.8647   -3236.4352    -823.8371     7317.346    0.1064343 
    2900    312.42406   -3253.8731   -3236.4676   -1540.1037    7318.8618   0.10651115 
    2910    290.00703   -3252.6699   -3236.5132    -417.5187    7319.1515   0.10855295 
    2920    282.83054    -3252.308   -3236.5512     703.7964    7319.0806   0.10997282 
    2930    300.81502    -3253.335   -3236.5762    446.01385    7319.5317   0.10988181 
    2940    299.11114   -3253.2568    -3236.593    297.94536    7320.4083   0.11012172 
    2950    298.42343   -3253.2303   -3236.6048   -358.48194    7321.5118   0.11028123 
    2960    311.93549   -3253.9957   -3236.6174    -1779.721    7322.2223   0.10972615 
    2970    300.66047   -3253.3872   -3236.6371   -1918.5583    7321.4622   0.10935163 
    2980    298.39957   -3253.2833   -3236.6592   -2112.2908    7318.9837   0.10815677 
    2990    311.12818    -3254.016   -3236.6827   -2517.1392     7314.595   0.10660015 
    3000    300.66219   -3253.4631   -3236.7129   -857.77252    7308.1452   0.10692298 
    3010    287.43579   -3252.7488   -3236.7354     1042.163    7300.9849   0.10806452 
    3020    304.80209   -3253.7342   -3236.7533    768.73065    7294.6144   0.10779227 
    3030    319.79775   -3254.6036   -3236.7873     215.1102    7288.9461   0.10695946 
    3040    314.87417   -3254.3933   -3236.8513    690.09539    7283.5875   0.10654683 
    3050    305.08791    -3253.932   -3236.9352    1087.7492    7278.8639   0.10589942 
    3060    303.35105    -3253.926   -3237.0259    300.75798    7275.0247   0.10455777 
    3070    309.45029   -3254.3645   -3237.1247   -1122.6756    7271.4034   0.10319597 
    3080    317.07459   -3254.9106   -3237.2461   -1008.3155    7266.9294   0.10345398 
    3090    302.26786   -3254.2278   -3237.3881    1552.2165    7261.7909   0.10656348 
    3100    278.22669   -3253.0251   -3237.5248    4089.9067    7258.0426   0.11028262 
    3110    283.38597   -3253.4387    -3237.651    3678.7292    7257.6771   0.11112022 
    3120    304.17491   -3254.7194   -3237.7735    1245.1873    7260.3984   0.10967004 
    3130    301.57615   -3254.6907   -3237.8895   -405.49238    7264.2671   0.10919927 
    3140    282.97664   -3253.7525   -3237.9875    -419.6759    7267.8962   0.11040696 
    3150    285.10899   -3253.9483   -3238.0646   -597.18152    7271.1191   0.11158232 
    3160    292.87615   -3254.4487   -3238.1322   -596.12856    7273.8209   0.11259176 
    3170    285.76614   -3254.1186   -3238.1982    320.48593    7276.0707   0.11366432 
    3180    284.12678   -3254.0932   -3238.2641    387.00428    7278.5258   0.11347001 
    3190    291.70836   -3254.5768   -3238.3254   -859.06592    7281.2163    0.1116934 
    3200    298.38557   -3255.0048   -3238.3814   -2227.3566    7283.1331   0.10979264 
    3210    290.68713   -3254.6213   -3238.4268   -2488.7894    7283.1603   0.10917722 
    3220    281.51794   -3254.1326   -3238.4489   -1818.5501    7281.0684   0.10924051 
    3230    288.89991   -3254.5422   -3238.4472   -1479.6688    7277.3652   0.10879273 
    3240    296.26525   -3254.9366   -3238.4314   -1256.2946    7272.3699   0.10842912 
    3250    290.14056   -3254.5676   -3238.4035     187.0527    7266.4199   0.10865518 
    3260    291.85709    -3254.621   -3238.3613    1655.3725    7260.6966   0.10822791 
    3270    300.67882   -3255.0593   -3238.3081    2018.5953    7256.3917   0.10690084 
    3280    298.89069   -3254.9015     -3238.25      2229.05    7253.8861   0.10578294 
    3290    294.06092   -3254.5723   -3238.1898    2426.5712    7253.3675   0.10484903 
    3300      303.433    -3255.032   -3238.1274     1740.521    7254.9078   0.10369162 
    3310     305.1822   -3255.0588   -3238.0567    1518.0623    7258.0183   0.10328743 
    3320    287.46057   -3253.9873   -3237.9726     1927.173    7262.5033   0.10377076 
    3330    275.92118    -3253.231   -3237.8591    1476.6242    7268.5897   0.10366029 
    3340    289.15656   -3253.7992   -3237.6899   -228.18332    7275.8271   0.10285616 
    3350    293.12586   -3253.7905   -3237.4601   -1096.1018    7282.8701   0.10369681 
    3360     289.4231   -3253.3288   -3237.2047   -711.16671    7288.9915   0.10629653 
    3370    302.86352   -3253.8141   -3236.9413    -937.8509    7294.3714    0.1085627 
    3380    319.98039   -3254.5091   -3236.6826   -1878.8334    7298.8068   0.10999103 
    3390    321.52881   -3254.3752   -3236.4625   -2548.2363    7301.5763   0.11124403 
    3400     319.1555    -3254.079   -3236.2985   -2698.6463    7302.1033   0.11233936 
    3410    314.94681   -3253.7279   -3236.1818   -1887.6371    7300.3132   0.11367442 
    3420    302.66833   -3252.9552   -3236.0932    -357.3925    7296.9419   0.11584442 
    3430    300.77537   -3252.7723   -3236.0158    1020.3432    7293.3009   0.11860434 
    3440    305.15541   -3252.9469   -3235.9464    1978.6736    7290.5905   0.12210719 
    3450    301.73484   -3252.7029   -3235.8929    2701.5273    7289.6548   0.12591957 
    3460     309.5113   -3253.1024   -3235.8592    2611.5441    7291.0482   0.12821204 
    3470    319.77968   -3253.6644   -3235.8491    2115.5867    7294.6937   0.12862354 
    3480    318.49973   -3253.6137   -3235.8697    2157.2031    7300.2176    0.1280735 
    3490    317.83512    -3253.626   -3235.9191    2334.5809    7307.5893   0.12715885 
    3500    305.80319   -3253.0198   -3235.9832    2149.9291    7316.9154   0.12673073 
    3510    296.90138   -3252.5878   -3236.0471    681.78771    7327.9521   0.12631189 
    3520    298.71611   -3252.7322   -3236.0904   -2008.6765    7339.3503   0.12516074 
    3530    291.99154   -3252.3759   -3236.1088   -3783.5523    7348.8764   0.12362634 
    3540    287.90277   -3252.1532   -3236.1138   -4887.3574    7354.9218   0.12124557 
    3550    297.50443   -3252.6925   -3236.1182   -5826.3843    7356.4915   0.11768512 
    3560    310.25515   -3253.4274   -3236.1428   -5776.7103    7352.8751   0.11434524 
    3570    305.10795   -3253.1892   -3236.1913   -3845.7003    7344.2985   0.11280511 
    3580    302.99324   -3253.1219   -3236.2418   -1187.3827    7332.4994   0.11224682 
    3590    306.25424   -3253.3417   -3236.2799    748.16615    7319.8206   0.11168848 
    3600    300.96907   -3253.0779   -3236.3106    1421.7655    7307.9687    0.1108507 
    3610    304.51027   -3253.3131   -3236.3485    748.24678    7297.5108   0.10931574 
    3620    310.38019   -3253.7011   -3236.4095   -36.028245    7287.9139   0.10818376 
    3630    307.63146   -3253.6326   -3236.4941    452.15738    7278.5912   0.10847534 
    3640    306.25942    -3253.656   -3236.5939    1175.0115    7269.8883   0.10939151 
    3650    310.64755   -3254.0188   -3236.7122    1015.9735    7262.3296   0.10971067 
    3660    312.57293   -3254.2732   -3236.8594    499.39788    7255.7836   0.10929747 
    3670    316.90801   -3254.6948   -3237.0395    426.22415    7249.8378   0.10881903 
    3680    314.37126   -3254.7617   -3237.2478    1943.1231    7244.5094   0.10977014 
    3690    289.15984   -3253.5641   -3237.4547    4792.3879     7241.104   0.11227134 
    3700    282.93763   -3253.4061   -3237.6433    4962.1583    7241.7281   0.11318288 
    3710    305.53412   -3254.8454   -3237.8238    2084.0889    7246.4182   0.11126902 
    3720    309.05238   -3255.2081   -3237.9904   -273.10914    7252.8953   0.10899548 
    3730    303.69206   -3255.0595   -3238.1405   -1272.7038    7259.1153   0.10735386 
    3740    299.64624   -3254.9714   -3238.2777   -1195.0874    7264.1753   0.10641833 
    3750    282.78764   -3254.1535   -3238.3991    175.26516    7268.2178   0.10661252 
    3760    274.03881   -3253.7577   -3238.4906    872.19291    7272.2964   0.10688041 
    3770    283.38603   -3254.3352   -3238.5474    314.14255    7276.9712   0.10640597 
    3780    293.71725   -3254.9465   -3238.5832   -590.78809    7281.8141   0.10578475 
    3790     299.8928   -3255.3162   -3238.6088   -1376.1668    7286.0681     0.105555 
    3800    296.84687    -3255.162   -3238.6243   -1539.3449     7289.086   0.10585976 
    3810    290.39663   -3254.8065   -3238.6282   -1112.3987     7290.751   0.10612947 
    3820     288.0857   -3254.6675   -3238.6179   -1121.4229     7291.369   0.10580329 
    3830     278.9899   -3254.1327   -3238.5898   -1330.0108    7290.9797    0.1053586 
    3840    274.84328    -3253.854   -3238.5422   -1840.5428    7289.4013   0.10530089 
    3850    283.15527   -3254.2502   -3238.4753   -1963.1056     7286.262   0.10611984 
    3860    284.83626    -3254.261   -3238.3925   -916.55419    7281.5658   0.10801813 
    3870    286.74943   -3254.2736   -3238.2984   -138.68017    7276.1484   0.10942199 
    3880    298.96129   -3254.8557   -3238.2002   -105.89452    7270.6626   0.10906829 
    3890    300.32753   -3254.8399   -3238.1083    537.39251    7265.2544   0.10817601 
    3900    293.70386   -3254.3925     -3238.03    1300.3167    7260.4367   0.10777744 
    3910    299.42753   -3254.6409   -3237.9595    1259.7044    7256.7773   0.10796841 
    3920    305.42619   -3254.9048   -3237.8891    1974.9175    7254.3619   0.10959188 
    3930     297.8437   -3254.4113   -3237.8181    3679.8102    7253.8148   0.11253722 
    3940    294.49912   -3254.1566   -3237.7497     4238.392     7256.405   0.11478311 
    3950    294.12319   -3254.0681   -3237.6822    2925.6231     7262.517   0.11507697 
    3960     300.3392   -3254.3403   -3237.6081   -151.47293    7270.9251   0.11362789 
    3970    305.20471   -3254.5254   -3237.5221   -2796.7371     7279.072   0.11199263 
    3980    304.26918    -3254.392   -3237.4408   -3333.0557    7284.7718   0.11139806 
    3990    304.45437   -3254.3348   -3237.3733    -2446.594    7287.5232   0.11177891 
    4000    299.45672   -3254.0033   -3237.3202   -738.54732    7288.1339   0.11245868 
    4010    291.02705     -3253.49   -3237.2765    597.10995    7288.0695   0.11228488 
    4020    290.94861   -3253.4421   -3237.2331    499.68591    7288.4308   0.11080293 
    4030    294.92326   -3253.6113   -3237.1808   -1124.6243    7289.1008   0.10917578 
    4040    300.87413   -3253.8845   -3237.1225    -2686.637    7288.7899   0.10871663 
    4050    303.97593    -3254.003   -3237.0682   -2522.0979    7286.2553   0.10973643 
    4060    300.79871   -3253.7749   -3237.0171   -578.67685    7281.7049    0.1112386 
    4070    300.76644   -3253.7187   -3236.9626    1431.8649    7276.7676   0.11149697 
    4080    310.10621   -3254.1868   -3236.9104    2615.9691    7273.1508   0.11002406 
    4090    306.85655   -3253.9643    -3236.869     2899.574    7271.8327    0.1083084 
    4100    297.24506   -3253.3949   -3236.8351    2661.8521     7273.045   0.10718553 
    4110    300.64698   -3253.5506   -3236.8012    1899.9708    7276.5181   0.10680797 
    4120    300.36357   -3253.4997   -3236.7661    1245.0698    7281.5898   0.10771281 
    4130     297.8589   -3253.3242   -3236.7302    1015.2579     7287.679   0.10892543 
    4140    298.09524   -3253.2981   -3236.6909    666.57507    7294.5188   0.10886774 
    4150    300.14592   -3253.3691   -3236.6477   -317.89726     7301.748   0.10721067 
    4160    303.42378   -3253.5065   -3236.6024    -1549.712    7308.5057   0.10513216 
    4170    298.71364   -3253.2033   -3236.5616    -1641.966    7313.8423   0.10423013 
    4180     300.3401    -3253.262   -3236.5297   -1289.3909      7317.64   0.10443548 
    4190    298.79143   -3253.1487   -3236.5027   -803.89055    7320.2221   0.10533661 
    4200    290.27157   -3252.6448   -3236.4735   -825.93436    7322.0071   0.10595051 
    4210    304.45202   -3253.3977   -3236.4363   -2019.1163    7322.9312   0.10537952 
    4220    315.52467   -3253.9702    -3236.392   -2518.8116    7322.1037   0.10544074 
    4230    305.52156   -3253.3629   -3236.3419   -1363.5782    7319.1908   0.10743366 
    4240    301.12209   -3253.0482   -3236.2724    388.83148    7315.1791   0.10979935 
    4250    301.84165   -3252.9859     -3236.17    1600.8764    7311.5778   0.11095393 
    4260    314.15425   -3253.5376   -3236.0357    1500.2518    7309.3859   0.11039546 
    4270    320.52243   -3253.7255   -3235.8689    688.43587    7308.5207   0.10944328 
    4280    316.87502   -3253.3305    -3235.677    -211.0557    7308.2864   0.10927629 
    4290    319.39985   -3253.2624   -3235.4683   -1199.9843    7307.8683   0.10986802 
    4300    319.63593   -3253.0619   -3235.2546   -1587.1424    7306.4383   0.11137364 
    4310    315.50619   -3252.6269   -3235.0497   -956.91337    7303.7283    0.1134763 
    4320    319.15101   -3252.6395   -3234.8592   -276.74257    7300.2432   0.11529414 
    4330    330.73311   -3253.1173   -3234.6918    470.40155    7296.5958   0.11711534 
    4340    327.15769   -3252.7869   -3234.5606    1840.8754    7293.4909   0.12013706 
    4350    310.80488   -3251.7841   -3234.4688    3321.3456    7292.0991    0.1236792 
    4360    312.48862   -3251.8145   -3234.4054     3090.384     7293.515   0.12558622 
    4370    315.94478    -3251.962   -3234.3604    1690.4843    7297.5407   0.12553102 
    4380    318.29676   -3252.0653   -3234.3326   -231.64837     7302.935   0.12381187 
    4390    331.52874   -3252.7965   -3234.3266   -1786.8806    7308.0495   0.12111412 
    4400     337.1142   -3253.1376   -3234.3566   -1727.1452    7311.5999   0.11946193 
    4410    323.23437   -3252.4297   -3234.4219    29.528424     7313.677   0.11972529 
    4420    315.01932   -3252.0616   -3234.5116    1586.8953    7315.7329    0.1199336 
    4430    325.83291    -3252.784   -3234.6315     1180.449    7318.9861   0.11864686 
    4440    324.07688   -3252.8376   -3234.7829    386.41852    7323.2002   0.11724694 
    4450    315.06996   -3252.5059    -3234.953   -338.36245     7327.665   0.11634055 
    4460    308.90517   -3252.3351   -3235.1257   -853.26091    7331.7549     0.115202 
    4470    303.74442   -3252.2146   -3235.2926   -1520.8199    7334.9823   0.11331863 
    4480    306.44646   -3252.5253   -3235.4529   -2503.2926    7336.7599   0.11086664 
    4490     317.6466   -3253.3192   -3235.6227   -3323.3766    7336.2679   0.10910623 
    4500    315.44811   -3253.3812   -3235.8072   -2356.7045    7332.9769   0.10969066 
    4510    305.66668   -3253.0158   -3235.9867   -201.18117    7327.7618   0.11202324 
    4520    297.34036   -3252.7038   -3236.1386     1396.092    7322.4447   0.11391332 
    4530     298.9591   -3252.9183    -3236.263    1268.2683    7318.3372   0.11374814 
    4540    302.57952   -3253.2281    -3236.371    442.76369    7315.3876     0.112131 
    4550    301.33568   -3253.2557   -3236.4679    -7.547112    7312.9179   0.11044359 
    4560    297.18005   -3253.1097   -3236.5534   -447.38404    7310.4997   0.10898145 
    4570    301.85309   -3253.4456   -3236.6291   -1801.8845    7307.6634   0.10710886 
    4580    319.95627   -3254.5337   -3236.7086   -3652.3807    7303.2477   0.10513471 
    4590    326.73067   -3255.0173   -3236.8148   -3819.3267    7295.8211   0.10474197 
    4600    314.70332   -3254.4738   -3236.9414   -1238.3933    7285.4025   0.10613609 
    4610    303.36795   -3253.9583   -3237.0573    1850.5284    7274.1534   0.10748133 
    4620    299.57717    -3253.846   -3237.1562    3810.7711    7264.6739   0.10789901 
    4630    294.50364   -3253.6558   -3237.2487    5071.7007    7258.6783   0.10806275 
    4640    288.71886   -3253.4203   -3237.3355    5284.8365    7257.1554   0.10802778 
    4650    298.51306   -3254.0485    -3237.418    3708.5175    7260.1257   0.10726451 
    4660    301.58889   -3254.2949    -3237.493    2217.2355    7266.3159   0.10659233 
    4670    301.50893   -3254.3593   -3237.5619    1012.4401    7274.3543   0.10602831 
    4680    296.51942   -3254.1433   -3237.6239     507.0319    7283.1965   0.10510037 
    4690    289.87475   -3253.8258   -3237.6765    279.15782     7292.358   0.10324658 
    4700    290.88774   -3253.9212   -3237.7156   -645.24757     7301.547   0.10031825 
    4710    293.16896   -3254.0736   -3237.7408   -2034.7211    7309.9761  0.097422287 
    4720    294.06452    -3254.139   -3237.7563   -3633.0723    7316.4406  0.095482193 
    4730     295.7563   -3254.2465   -3237.7696   -4670.2174    7319.6001  0.094736334 
    4740    295.82913     -3254.27    -3237.789   -4148.1362    7318.6654  0.095311795 
    4750    292.19536   -3254.0885     -3237.81   -2270.8319    7314.1656   0.09697914 
    4760    289.48512   -3253.9466   -3237.8191   -191.92684    7307.7561  0.098844341 
    4770    288.40368   -3253.8771   -3237.8099     900.2497    7301.2308   0.10010457 
    4780    293.04747   -3254.1147   -3237.7887     969.9873    7295.5459   0.10094762 
    4790    289.53353   -3253.8886   -3237.7583    1588.0016    7290.8562   0.10268604 
    4800    278.64888   -3253.2389   -3237.7151    2809.3554    7287.6981   0.10540906 
    4810    280.84888   -3253.2983   -3237.6519    3193.9762    7287.0209   0.10761364 
    4820    298.72751   -3254.2047   -3237.5622     2405.004    7289.0811   0.10882156 
    4830    304.78804   -3254.4317   -3237.4517    1807.4157    7293.2403   0.11017595 
    4840    291.98155   -3253.5951   -3237.3285    1174.0275    7298.9402    0.1115665 
    4850    299.33051   -3253.8565   -3237.1805   -1323.5056    7305.4306    0.1113741 
    4860     307.8687   -3254.1492   -3236.9975   -4112.7377    7310.6192   0.11050644 
    4870    304.71678   -3253.7868   -3236.8107   -5252.8438    7312.2155   0.11038886 
    4880    306.59009   -3253.7227   -3236.6423   -4996.7743    7309.2343   0.11101726 
    4890      314.683   -3254.0213   -3236.4899   -3334.6605     7301.982   0.11281096 
    4900    315.69766   -3253.9356   -3236.3478   -261.39925    7292.0234    0.1168168 
    4910    304.50997   -3253.1717   -3236.2072     3372.702    7282.0858   0.12242662 
    4920    302.13739   -3252.8978   -3236.0653    5110.8005    7275.1617   0.12670218 
    4930    317.67269   -3253.6342   -3235.9363    3774.1249    7272.6127   0.12777419 
    4940    326.01626   -3253.9966   -3235.8339    1880.0981    7273.3827   0.12723598 
    4950    314.50218   -3253.2823   -3235.7611    1419.7339    7275.9006   0.12731856 
    4960    308.36863    -3252.888   -3235.7084    1931.2129    7279.6989   0.12800406 
    4970    308.82653    -3252.878    -3235.673    2688.6926    7285.1504   0.12865082 
    4980     298.5795   -3252.2922    -3235.658    3268.0145    7292.8642   0.12837769 
    4990    300.92671   -3252.4206   -3235.6557    2150.9235    7303.1941   0.12515244 
    5000    313.37182   -3253.1054   -3235.6471   -795.75101    7315.1095   0.11885639 
Loop time of 3916.33 on 8 procs for 5000 steps with 432 atoms

Performance: 0.110 ns/day, 217.574 hours/ns, 1.277 timesteps/s
95.4% CPU use with 8 MPI tasks x 1 OpenMP threads

MPI task timing breakdown:
Section |  min time  |  avg time  |  max time  |%varavg| %total
---------------------------------------------------------------
Pair    | 2916.2     | 3334.9     | 3903.5     | 509.9 | 85.15
Bond    | 0.00062537 | 0.0013116  | 0.0027161  |   1.7 |  0.00
Neigh   | 0.10162    | 0.11366    | 0.14519    |   4.0 |  0.00
Comm    | 8.7659     | 507.29     | 998.31     |1356.9 | 12.95
Output  | 0.67642    | 0.68909    | 0.77689    |   4.0 |  0.02
Modify  | 0.74507    | 73.26      | 288.04     |1448.8 |  1.87
Other   |            | 0.03971    |            |       |  0.00

Nlocal:        54.0000 ave          71 max          43 min
Histogram: 1 2 1 1 0 1 1 0 0 1
Nghost:        650.000 ave         661 max         633 min
Histogram: 1 0 0 1 1 0 1 1 2 1
Neighs:         0.00000 ave           0 max           0 min
Histogram: 8 0 0 0 0 0 0 0 0 0
FullNghs:      3484.25 ave        4728 max        2733 min
Histogram: 1 2 2 0 1 0 1 0 0 1

Total # of neighbors = 27874
Ave neighs/atom = 64.523148
Ave special neighs/atom = 0.0000000
Neighbor list builds = 500
Dangerous builds = 500
System init for write_data ...
Total wall time: 1:05:20
