LAMMPS data file via write_data, version 29 Sep 2021, timestep = 5000

432 atoms
3 atom types

0.05518554623512717 15.55739786463485 xlo xhi
0.10526574717987458 15.50731766369019 ylo yhi
0.29400110986101424 30.931165711879096 zlo zhi

Masses

1 35.45
2 39.0983
3 6.94

Atoms # full

6 0 1 0 2.7821632450197527 2.398288718726439 2.8174852026298853 0 0 0
5 0 1 0 2.7145124519046178 0.2580990292558225 0.3836790092892179 0 0 0
4 0 3 0 2.7086962558783307 2.6541985649420714 0.320215268568937 0 0 0
146 0 3 0 5.164493289402554 2.548330330603462 2.6514533119408976 0 0 0
145 0 3 0 5.335605417251104 0.2834578919158419 0.41290490726303486 0 0 0
150 0 1 0 8.022678382694327 2.898423344844338 2.429748053760023 0 0 0
290 0 3 0 10.501760339403742 2.8810835857214445 2.6333037699257793 0 0 0
295 0 1 0 10.239731222693184 0.2967570288489496 2.603828436055831 0 0 0
2 0 3 0 15.463162501081786 2.5806516342800587 2.6886194489559587 -1 0 0
291 0 3 0 12.990721490451541 0.12214312527931881 2.7572929243004975 0 0 0
294 0 1 0 12.922206337475771 2.551357214656394 2.601110870714721 0 0 0
7 0 1 0 15.485383461076133 0.1437394358887383 2.889145964489283 -1 0 0
52 0 3 0 2.5119206526066877 7.342513236954834 0.5125912229943378 0 0 0
51 0 3 0 2.7936127420755663 4.942087762927427 2.8497353978617364 0 0 0
54 0 1 0 2.3792662792809818 7.411574568998336 3.0117693029151877 0 0 0
53 0 1 0 2.655675385630781 4.9972279607394885 0.49133047992054024 0 0 0
199 0 1 0 5.125748654841713 5.082078465581505 2.6738546211854133 0 0 0
200 0 1 0 5.011067783829309 7.545383571639283 0.5941335148436682 0 0 0
193 0 3 0 5.297283838443613 5.118254951880371 0.39685549989261537 0 0 0
194 0 3 0 5.329832066244406 7.771165786941024 2.8443694131510187 0 0 0
195 0 3 0 7.886951154681584 5.607127791230261 2.562390468087207 0 0 0
343 0 1 0 10.584200511506534 5.326341041848988 2.67098736441385 0 0 0
55 0 1 0 15.55703562125725 4.852752102206995 2.6151755588040206 -1 0 0
339 0 3 0 13.225393378014477 5.220643021288734 2.7993661655424686 0 0 0
340 0 3 0 12.94678607633469 7.71079879676277 0.2981296433234468 0 0 0
15 0 1 0 0.49458785094256696 0.32536577915151016 7.585744407997564 0 0 0
16 0 1 0 0.05901116173520121 2.552589106646909 5.171935209417956 0 0 0
12 0 3 0 2.9753991120307206 2.480818643210491 5.483735461265962 0 0 0
14 0 1 0 2.932508787948259 2.4746268340545625 7.795493025435149 0 0 0
10 0 3 0 0.28794658737915535 2.513844935630916 7.855358880602385 0 0 0
153 0 3 0 5.431714763362168 0.20803137090964968 5.4967349593455355 0 0 0
160 0 1 0 5.2090216924203805 2.7517986689615976 5.221996971430371 0 0 0
297 0 3 0 10.304138121344426 0.1800854327974333 5.236783992007698 0 0 0
156 0 2 0 8.044454230161094 2.802339625434097 5.3783775388223365 0 0 0
304 0 1 0 10.698978774616723 2.4389193374557054 5.526507865369664 0 0 0
301 0 1 0 12.971765109046608 0.15991024039138735 5.1298032125494455 0 0 0
300 0 3 0 13.007208707230632 2.458646930046949 5.253821017107024 0 0 0
302 0 1 0 13.328548998579794 2.994662969703947 7.809339231215004 0 0 0
59 0 3 0 2.85799666306631 5.045471047862022 7.760599067747777 0 0 0
62 0 1 0 2.797259997677558 7.355921730831032 7.756107830636733 0 0 0
61 0 1 0 3.120704622362535 5.083799436674818 5.334228425019726 0 0 0
57 0 2 0 0.16631874826719578 5.380698499290072 5.2513010974424095 0 0 0
60 0 3 0 2.89277401851474 7.699480189689751 5.317216254923983 0 0 0
201 0 3 0 5.4090654738163275 5.328021990386107 5.105250819853206 0 0 0
202 0 3 0 5.655452266492512 7.667005518088339 7.950697247937806 0 0 0
345 0 3 0 10.456354958093026 5.568749327704318 5.037462188704084 0 0 0
205 0 1 0 7.9823818706729 5.726745415104753 5.110364228317761 0 0 0
349 0 1 0 12.741050399649012 5.298146719472539 5.124450716950851 0 0 0
20 0 3 0 2.806603311061942 2.5648553147502238 10.634055993158345 0 0 0
168 0 1 0 5.490090481685056 2.6402478121460735 10.582866119490273 0 0 0
158 0 1 0 7.806138900199019 2.52215386175751 8.216688288929927 0 0 0
159 0 1 0 5.238765783635348 0.1299647445203702 8.03843565019324 0 0 0
154 0 3 0 5.397978562206185 2.5869273550869556 8.224002307959536 0 0 0
161 0 3 0 5.309655365026036 0.2947343971105941 10.609329482199962 0 0 0
164 0 3 0 7.919294689832256 2.651362401920581 10.812487139953474 0 0 0
312 0 1 0 10.406493653518837 2.5959703278266986 10.59313270041917 0 0 0
303 0 1 0 10.3673500877284 0.19911134361224686 8.312057457685365 0 0 0
298 0 3 0 10.30429485459728 2.5935887552310954 7.97465862223508 0 0 0
24 0 1 0 15.368361867009508 2.3090705091599366 10.600725672909771 -1 0 0
308 0 3 0 12.853080961759389 2.722805297651391 10.63464559502998 0 0 0
299 0 2 0 13.249490703605222 0.22243230788795487 7.979976829290509 0 0 0
63 0 1 0 0.4850698160036475 4.818917916492083 8.019415767433866 0 0 0
68 0 3 0 3.1412026932332444 7.656017725148138 10.059963120698228 0 0 0
69 0 1 0 2.9371511049554875 5.377526349504344 10.718208407088657 0 0 0
209 0 3 0 5.351135058948385 5.188588329641658 10.680373729467943 0 0 0
216 0 1 0 5.474826273268297 7.477743210821335 10.404539852011832 0 0 0
203 0 2 0 7.736306401562239 5.424534885871933 8.00290428739693 0 0 0
207 0 1 0 4.9964578574823575 5.0740958875684345 8.169711107776639 0 0 0
351 0 1 0 10.51497252123205 5.002644713806008 8.085043597573494 0 0 0
213 0 1 0 7.893421135497532 5.0771278525489185 10.780387448459688 0 0 0
353 0 3 0 10.423358215760366 5.0169856229778755 10.774192566766025 0 0 0
346 0 3 0 10.223654135493806 7.588828958324749 7.965079302572035 0 0 0
65 0 2 0 15.50105643241167 5.173847908642663 10.732079355390193 -1 0 0
357 0 1 0 12.732059497222156 5.635745581226088 10.729444225646747 0 0 0
58 0 2 0 15.305007603500364 7.442483856870466 8.112468608724487 -1 0 0
350 0 1 0 12.441214266855571 7.673306671839395 7.954451516267146 0 0 0
347 0 3 0 12.767805993374576 5.116389503224762 7.95522107322529 0 0 0
29 0 1 0 2.5880574930747295 0.34170066688880024 15.303483290095059 0 0 0
22 0 1 0 2.872429676137644 2.8554890860575126 12.926768886892821 0 0 0
18 0 3 0 0.0803239581502659 2.6596921951943697 13.207067504582374 0 0 0
32 0 1 0 0.38241593443374844 2.670428916814534 15.354999918587437 0 0 0
19 0 3 0 2.604915336289243 0.2923831447189442 12.888380700157342 0 0 0
28 0 3 0 2.849483390088473 2.7348569488796373 15.434617895030856 0 0 0
163 0 3 0 7.617037396999392 0.12339806970816092 13.204677287000303 0 0 0
162 0 3 0 5.40011364319121 2.6742493835261523 13.163787676737753 0 0 0
167 0 1 0 5.1560267158760285 0.3302287652878355 13.034857191131875 0 0 0
311 0 1 0 10.372200565864244 0.16443253067937902 13.013273841815725 0 0 0
166 0 1 0 7.809591009700459 2.769372408168982 13.264791241661658 0 0 0
306 0 3 0 10.281377003181397 2.6153927692129013 13.158488643253193 0 0 0
310 0 1 0 12.92992191966556 2.7514386561855266 13.165003576285857 0 0 0
25 0 3 0 15.35240721871294 0.3088802319112426 15.31323327784306 -1 0 0
76 0 3 0 2.72375734475345 7.793972604657355 15.55573599716634 0 0 0
70 0 1 0 2.91765064696752 7.365500863423915 13.211074637077965 0 0 0
67 0 3 0 2.8087564640180167 5.1602900701551375 12.898850011740283 0 0 0
214 0 1 0 7.737678827476479 7.712887231686937 13.254756521082152 0 0 0
215 0 1 0 5.21685453588175 5.201703762119355 13.291839451926716 0 0 0
211 0 3 0 7.790200847114112 5.142661096196636 13.509649014348755 0 0 0
210 0 3 0 5.502881858283638 7.75186967589605 13.147362967195894 0 0 0
217 0 3 0 5.183129044399876 5.202843041067497 15.605242133871947 0 0 0
354 0 3 0 10.240134949257165 7.551451105920134 13.22246065766635 0 0 0
359 0 1 0 10.381998611239315 4.945199009246591 13.096199834999608 0 0 0
358 0 1 0 12.753045901233822 7.804929009555847 13.275028209184034 0 0 0
355 0 3 0 12.956799064806365 5.19248527294217 13.262274694076801 0 0 0
71 0 1 0 15.398239926551494 5.206025289002803 13.41827311139167 -1 0 0
66 0 3 0 15.395788824183299 7.472067824728155 13.23188073894942 -1 0 0
80 0 1 0 15.505688057465402 7.706414164476177 15.579810782769641 -1 0 0
30 0 1 0 2.8182968802574533 2.8033694210173796 18.449841309314476 0 0 0
27 0 2 0 2.6150897158795074 0.3051137202738168 18.056877968003803 0 0 0
170 0 3 0 5.204048640148796 2.6787028856246433 18.35238911836452 0 0 0
174 0 1 0 7.8015294683226415 2.547200086669378 18.12923085723813 0 0 0
169 0 3 0 5.34874782673096 0.27243284501357296 15.761757238549924 0 0 0
173 0 1 0 7.674654735345092 0.15136543055565382 15.744148181935278 0 0 0
176 0 1 0 5.32842791199153 2.65408452011158 15.745336973979619 0 0 0
314 0 3 0 10.295744125027397 2.599088797420154 18.21395224714498 0 0 0
172 0 3 0 7.813671287897203 2.5132325686118038 15.683976519155173 0 0 0
320 0 1 0 10.305631273561861 2.6133807234499398 15.644423924339005 0 0 0
171 0 3 0 7.8655708784631315 0.2035315188203708 18.2389449787834 0 0 0
313 0 3 0 10.30510676373806 0.1523819156817649 15.62497136040269 0 0 0
26 0 2 0 15.448686864308513 2.528683998279517 17.98470995379595 -1 0 0
318 0 1 0 12.591739163022016 2.588274236800876 18.26615445900375 0 0 0
316 0 3 0 12.754477614469923 2.7401952308636917 15.63903718430967 0 0 0
317 0 1 0 12.970153997242022 0.33810183330945426 15.693601366421609 0 0 0
77 0 1 0 2.636167399191256 5.066312708476295 15.828580828204306 0 0 0
75 0 3 0 2.569670834746671 5.100469284743401 18.21129914589854 0 0 0
78 0 1 0 2.888203069062197 7.193736430579431 18.565846613006237 0 0 0
73 0 3 0 0.07890306697733251 5.2422664695375865 15.732360511936907 0 0 0
220 0 3 0 7.667965407304703 7.703501260806486 15.646992819141749 0 0 0
223 0 1 0 5.445836495455505 5.068032771527551 18.18405945110811 0 0 0
224 0 1 0 5.222776394455215 7.6364148061396175 15.624531579564085 0 0 0
218 0 3 0 5.239875937553743 7.506335448292897 18.30120158687166 0 0 0
361 0 3 0 10.387345722039608 5.2473345736256105 15.723195561719454 0 0 0
368 0 1 0 10.267947121139958 7.777387198385885 15.61711677854947 0 0 0
219 0 3 0 7.814345310046542 4.9357939073163415 18.138148794057912 0 0 0
367 0 1 0 10.206608765718947 5.146492972009035 18.177321337451087 0 0 0
221 0 1 0 7.928984061467825 5.185921421811322 15.786674394517988 0 0 0
362 0 3 0 10.31757577867548 7.798795794092051 18.083234844651084 0 0 0
79 0 1 0 15.315745790463303 5.432924290459157 18.02743709484326 -1 0 0
363 0 3 0 12.917082344404374 5.227902890485527 18.123063487139355 0 0 0
365 0 1 0 12.928594497368493 5.249037967726524 15.680305302943593 0 0 0
366 0 1 0 12.62841157356096 7.653038944297528 18.162864764663414 0 0 0
74 0 3 0 15.500934106023763 7.678769407501731 18.077060764716357 -1 0 0
364 0 3 0 12.887623286864557 7.709667578067107 15.687674029148035 0 0 0
37 0 1 0 2.3904173272101716 0.22428383045275366 21.04668746431079 0 0 0
36 0 3 0 2.5500209472101565 2.7188119636928154 21.135627470608366 0 0 0
183 0 1 0 5.470176954765542 0.2715654669332016 23.26437935588536 0 0 0
177 0 3 0 5.1975594213949945 0.12092764035454806 20.718885476106447 0 0 0
184 0 1 0 5.064059499021995 2.6689651816112967 20.70525196495261 0 0 0
180 0 3 0 7.800140177590151 2.456911924456569 20.810263392964178 0 0 0
178 0 3 0 5.296875130672567 2.6731982724970487 23.245587299475176 0 0 0
328 0 1 0 10.176765353922065 2.6539166668269827 20.734221583993918 0 0 0
33 0 3 0 15.385744015981267 0.11375540448829824 20.715554107898825 -1 0 0
324 0 3 0 12.850275795067645 2.558054075312839 20.691008799945536 0 0 0
40 0 1 0 15.256525057579672 2.659574408645576 20.913565511057424 -1 0 0
326 0 1 0 12.658830542347907 2.588352330026063 23.204633254651 0 0 0
85 0 1 0 2.366576028416973 5.192127534696911 21.13251823826999 0 0 0
84 0 3 0 2.651738475443879 7.457846472350162 20.941950171845278 0 0 0
81 0 3 0 0.0955812873438533 5.054583239820192 20.69518735562111 0 0 0
229 0 1 0 7.783695383970639 4.82984788161124 20.731244361565924 0 0 0
225 0 3 0 4.978102586946401 4.992865516759542 20.84408195778737 0 0 0
227 0 3 0 7.782154285167552 4.989876739345033 23.050048670819894 0 0 0
232 0 1 0 5.054378953532767 7.527286167176942 20.984665670963654 0 0 0
231 0 1 0 5.261098355668686 4.939290552101756 23.263958905144616 0 0 0
228 0 2 0 7.868586389520136 7.725121044038747 20.60937107638306 0 0 0
369 0 3 0 10.350022290519796 5.004542913807372 20.814924094028303 0 0 0
376 0 1 0 10.582348077734313 7.612992250057374 20.986603795474934 0 0 0
372 0 3 0 13.000019602972841 7.464377752973825 20.598091246703326 0 0 0
373 0 1 0 12.803339247941032 5.01487512450032 20.755388535411008 0 0 0
88 0 1 0 15.515683550507386 7.33808539501323 20.47260384543297 -1 0 0
44 0 3 0 2.7910269661428786 2.703032812551599 25.782218743948377 0 0 0
39 0 1 0 0.29207440766109904 0.1068770506170288 23.389641154100072 0 0 0
48 0 1 0 0.3237021439923066 2.58135899365447 25.816151825352502 0 0 0
35 0 3 0 2.6042437525543543 0.23642138247768144 23.358217523159027 0 0 0
45 0 1 0 2.8791441292515016 0.1961263733721486 25.822153639373717 0 0 0
34 0 3 0 0.15524372292334196 2.6226457090941517 23.2768345896099 0 0 0
41 0 3 0 0.1424471174046289 0.27093004438241564 25.747302381423516 0 0 0
38 0 1 0 2.6410602065897697 2.759462114173334 23.567610790447187 0 0 0
192 0 1 0 5.33064034127382 2.7092444824380695 25.944527973451915 0 0 0
185 0 3 0 5.267979642697127 0.27059623817593026 25.702391321420897 0 0 0
188 0 3 0 7.83240584246361 2.698634044250595 25.94625362136933 0 0 0
329 0 3 0 10.480176534791674 0.2066668184799769 25.771625087483773 0 0 0
336 0 1 0 10.24500598107586 2.727666989185354 25.921374962050546 0 0 0
189 0 1 0 7.938645381141273 0.23210987451314136 25.958388784217675 0 0 0
327 0 1 0 10.441910302217039 0.15304603475700695 23.320335678844717 0 0 0
322 0 3 0 10.363207158089931 2.536276422918488 23.47933909183259 0 0 0
182 0 1 0 8.040373315078126 2.6254657368636423 23.325204299239555 0 0 0
332 0 3 0 13.102479283134386 2.6873030054725544 25.987198695965954 0 0 0
333 0 1 0 12.980408117041385 0.1738624860207152 25.84381327303953 0 0 0
323 0 3 0 12.85502204159312 0.13984766826217196 23.323567027794773 0 0 0
92 0 3 0 2.671363431797479 7.784709278026501 26.189567475713663 0 0 0
96 0 1 0 0.19968176365841275 7.753287456868596 25.935602297988513 0 0 0
93 0 1 0 2.8591080670269258 5.259397238408041 25.99092946040482 0 0 0
82 0 3 0 0.19502647508810061 7.694424507461424 23.401088014876244 0 0 0
87 0 1 0 0.0636132351565241 5.297941199526356 23.404879331699018 0 0 0
83 0 3 0 2.62460875111809 5.21993337441827 23.54174625777732 0 0 0
86 0 1 0 2.435946069869873 7.721115357757693 23.28623549268042 0 0 0
89 0 3 0 0.15213496211587874 5.084062028889802 25.99634034594249 0 0 0
233 0 3 0 5.343864927095915 5.0688083307646545 25.757845868449273 0 0 0
237 0 1 0 7.732821789988097 5.195541272945604 25.90774061544983 0 0 0
240 0 1 0 5.480728756190313 7.607464497247832 25.675189291618018 0 0 0
377 0 3 0 10.125062827149279 5.079041557675429 25.635868170890152 0 0 0
370 0 3 0 10.226399659548946 7.699489166974478 23.485838254036864 0 0 0
375 0 1 0 10.417285868206967 5.327413817989957 23.324625788455148 0 0 0
380 0 2 0 12.935438221935591 7.655170186441255 25.667877186390914 0 0 0
381 0 1 0 13.146690326155962 4.922833793931465 25.7739524320421 0 0 0
371 0 3 0 13.270270712581375 4.940883982954623 23.291511946728022 0 0 0
43 0 3 0 2.769496409799337 0.14649695761183656 28.399600869067903 0 0 0
46 0 1 0 2.570244669161311 2.69310669989968 28.596297760276336 0 0 0
42 0 3 0 0.16198365081302504 2.5845467492142014 28.25770914246183 0 0 0
152 0 1 0 5.124755464798113 2.646158108846596 30.854881702171493 0 0 -1
186 0 3 0 5.238304243223554 2.5911941912212964 28.259761087909087 0 0 0
187 0 3 0 7.82375911941146 0.12788465734937207 28.322388567165525 0 0 0
289 0 3 0 10.286032927843454 0.1486477407975866 30.766879348287155 0 0 -1
296 0 1 0 10.454184727871386 2.760446560080952 30.796409815519073 0 0 -1
335 0 1 0 10.470412779797147 0.18790466168245645 28.15452596477348 0 0 0
148 0 3 0 7.957208829118721 2.7063637586729747 30.853327231547915 0 0 -1
190 0 1 0 8.011168645509656 2.7894332768535732 28.437930268422907 0 0 0
330 0 3 0 10.520576336104547 2.705477631121082 28.174334587717983 0 0 0
47 0 1 0 15.403459339862152 0.2735226326657909 28.17699088330694 -1 0 0
8 0 1 0 15.390065285389184 2.4237504912892587 30.890678768214244 -1 0 -1
334 0 1 0 12.90474670403163 2.8125983971462625 28.239477070997566 0 0 0
293 0 1 0 12.926032963124584 0.13160701231681773 30.816861162101944 0 0 -1
292 0 3 0 12.997338625225893 2.6134237524608426 30.74148153573054 0 0 -1
1 0 3 0 15.46524933380282 0.11697967310269064 30.805082343062043 -1 0 -1
331 0 3 0 12.943310956301104 0.10990459721675983 28.259340566489676 0 0 0
49 0 3 0 0.09729586972577309 5.039687176505535 30.81330444194121 0 0 -1
94 0 1 0 2.4400738808355493 7.557985345372953 28.38663849662338 0 0 0
91 0 3 0 2.8629993874088457 5.009126007936237 28.47558832398197 0 0 0
234 0 2 0 5.328146454237788 7.777190484698058 28.3706347915762 0 0 0
239 0 1 0 5.386951658046896 4.897152188447098 28.405248305720125 0 0 0
197 0 1 0 7.897644763023537 5.525813868574625 30.88093411628437 0 0 -1
235 0 3 0 7.858286140390147 5.224493634986489 28.413517818901273 0 0 0
337 0 3 0 10.37661445004402 5.20835918291718 30.88868123610227 0 0 -1
383 0 1 0 10.484739527694046 5.439386954035562 28.07968919860891 0 0 0
378 0 3 0 10.535999151998379 7.794613251837949 28.274573207572658 0 0 0
56 0 1 0 15.549878890652934 7.362443860184369 30.692639271950604 -1 0 -1
90 0 3 0 15.525075890373763 7.605153553589132 28.33766755660756 -1 0 0
95 0 1 0 15.354547503380928 5.0657916244124115 28.386156052654925 -1 0 0
379 0 3 0 12.883137438295616 5.084286374003205 28.37658909382937 0 0 0
341 0 1 0 13.047554354054455 5.065769479841273 30.917920798634906 0 0 -1
99 0 3 0 2.924673203809724 10.5843022005297 2.8348154498333433 0 0 0
101 0 1 0 2.6328124953016547 9.897762238752096 0.6494399237816357 0 0 0
247 0 1 0 5.535462594997692 10.589788971979424 3.050441703920147 0 0 0
243 0 3 0 7.780816908248111 10.654572501040676 3.0031497069343827 0 0 0
391 0 1 0 10.373076157450079 10.62863605672639 2.6708950422601325 0 0 0
338 0 3 0 10.528690334130854 7.972360679374592 2.7005947641771537 0 0 0
245 0 1 0 8.106064377036166 10.55937257735138 0.30559145861657344 0 0 0
198 0 1 0 7.814992622784661 7.826933163009796 2.627419426624685 0 0 0
344 0 1 0 10.60637893013428 7.837140588242973 0.3649090249913364 0 0 0
50 0 3 0 15.52676585988312 7.905748132843667 2.674017077894644 -1 0 0
103 0 1 0 15.439230818117792 10.414659668528556 2.901159743732178 -1 0 0
387 0 3 0 12.935769750104448 10.412235806062842 2.591023481357318 0 0 0
342 0 1 0 13.272440573788085 7.949900278974407 2.7015802495509806 0 0 0
102 0 1 0 2.552640759000566 13.023121469068988 2.7911092863319604 0 0 0
98 0 3 0 0.08859479481063975 12.828056940547063 2.8152997249319727 0 0 0
3 0 3 0 2.763116190089435 15.466053804824352 2.798458251209973 0 -1 0
100 0 3 0 2.722673357758984 13.317005762402218 0.33113967454222715 0 0 0
242 0 3 0 5.336902383127427 12.996480475459347 2.8437101101914846 0 0 0
248 0 1 0 5.246742416576786 13.342975355154223 0.2981881218916483 0 0 0
151 0 1 0 5.498124334544656 15.45496747527018 2.8506400891693757 0 -1 0
244 0 3 0 8.041994681438883 12.929924002138208 0.47987621653863155 0 0 0
246 0 1 0 8.070428574589354 13.089152824546291 3.015269537912298 0 0 0
386 0 3 0 10.49974718181469 13.063890113677314 2.7760952844298203 0 0 0
147 0 3 0 7.950060966098041 15.456200476721687 2.6635571033250316 0 -1 0
390 0 1 0 12.874137906868999 13.057739032166717 2.569003524726958 0 0 0
109 0 1 0 2.9316715177410324 10.634310829231913 5.070386631244193 0 0 0
107 0 2 0 2.3506479752796805 10.125094219385906 7.57343461356279 0 0 0
249 0 3 0 5.33705333979743 10.431305303170504 5.576329338427759 0 0 0
255 0 1 0 5.511221217541813 10.535723581203209 7.715602829489908 0 0 0
208 0 1 0 5.188247497388151 7.965600815134593 5.2992908784784465 0 0 0
251 0 3 0 8.043699895465153 10.446599835102974 7.9069916570330685 0 0 0
399 0 1 0 10.609391823838255 10.414256070040798 7.734653843051563 0 0 0
253 0 1 0 7.917114895216846 10.344063788718842 5.410506671248056 0 0 0
393 0 3 0 10.409877586372247 10.44138698911129 5.374384013721048 0 0 0
206 0 1 0 7.965197239537886 8.068653938519848 7.870148149029065 0 0 0
204 0 3 0 7.938363350665337 8.03119996396551 5.319945925140092 0 0 0
352 0 1 0 10.41891979064346 8.006061990290966 5.30027762177013 0 0 0
64 0 1 0 15.467816100897263 8.163562896647301 5.412956498618569 -1 0 0
348 0 3 0 12.884338596014192 7.951830518954087 5.371438339224963 0 0 0
105 0 3 0 15.283393073025163 10.442677833879255 5.236669562499208 -1 0 0
397 0 1 0 12.944278219588032 10.462461496981208 4.973047307904691 0 0 0
13 0 1 0 2.757007709441859 15.478899722778504 5.212399502003467 0 -1 0
108 0 3 0 2.8636040509034566 13.12275496472261 5.248321451454591 0 0 0
9 0 3 0 0.15976823619947333 15.480092705933863 5.164531772123021 0 -1 0
256 0 1 0 5.1971985897830315 12.911904246500006 5.278526246291067 0 0 0
394 0 3 0 10.372178356904723 12.92706042446462 7.805612636655821 0 0 0
400 0 1 0 10.308603362468133 12.987804839490694 5.369457236387914 0 0 0
252 0 3 0 7.945598463616668 13.074864679530569 5.400083791327516 0 0 0
157 0 1 0 7.842097009320621 15.335026410080475 5.675121036156109 0 -1 0
398 0 1 0 12.792684460841429 12.869318623286865 7.778889888932992 0 0 0
396 0 3 0 13.018492085783638 12.819014214044469 5.159469693264129 0 0 0
112 0 1 0 15.471089259217077 12.991851953681298 5.193326508239923 -1 0 0
117 0 1 0 2.416465200639569 10.086602022257187 10.341656145745565 0 0 0
257 0 2 0 5.335560956409083 10.360560071142396 10.403945220953199 0 0 0
261 0 1 0 8.057669140965523 10.351628607484486 10.66175782409555 0 0 0
401 0 3 0 10.38593017715197 10.322699394559837 10.640946083101033 0 0 0
360 0 1 0 10.264636417643914 8.00223343332809 10.361218861582241 0 0 0
212 0 3 0 7.838481263017 7.961520308322559 10.59036546723454 0 0 0
113 0 3 0 15.30402013480342 10.681516844406477 10.492715474844445 -1 0 0
405 0 1 0 12.824988686196079 10.51605451612061 10.484752636470052 0 0 0
72 0 1 0 15.228346261639821 8.05650364258792 10.852063309487217 -1 0 0
395 0 3 0 12.833056721986011 10.069876245088345 8.05084432895304 0 0 0
111 0 1 0 15.05129133059787 10.181366655214719 8.126417257651347 -1 0 0
356 0 3 0 12.535887858815876 7.938011264384128 10.732169203450802 0 0 0
116 0 3 0 2.612856645346112 13.188117861283498 10.580290707731972 0 0 0
11 0 3 0 2.6637088884909472 15.400584232413188 8.023140582451978 0 -1 0
110 0 1 0 2.905162534553879 13.097512322562455 8.047401961842287 0 0 0
106 0 2 0 0.07308702875431283 13.051128992970657 8.041635221165983 0 0 0
21 0 1 0 2.623986316912679 15.426215212936004 10.445451945016215 0 -1 0
165 0 1 0 7.654185285364237 15.465901225861392 10.667543431935755 0 -1 0
264 0 1 0 5.277398780904126 13.227948853394107 10.683309263213639 0 0 0
260 0 3 0 7.568923276484088 12.937969164673653 10.621127497615156 0 0 0
254 0 1 0 7.805599612569732 12.789308679052251 8.0380472177119 0 0 0
250 0 3 0 5.258463168845032 13.09724340833693 7.976484237941145 0 0 0
305 0 3 0 10.319431293105882 15.44757189862543 10.62513283869487 0 -1 0
408 0 1 0 10.389308046635495 12.853182132597249 10.61529673610822 0 0 0
155 0 3 0 7.858941410374192 15.308565268436375 8.057585043573361 0 -1 0
120 0 1 0 15.448283888374618 13.080445917548499 10.726322283830212 -1 0 0
404 0 3 0 12.735240745499205 12.856900855060793 10.67689023819516 0 0 0
17 0 3 0 15.503326858382941 15.506485051672788 10.624323743735049 -1 -1 0
309 0 1 0 12.960480613162982 15.440032878148283 10.669991598339415 0 -1 0
115 0 2 0 2.691661447562594 10.105051058251734 13.009124298917197 0 0 0
263 0 1 0 5.455513409101815 10.327388846467036 13.35387777042729 0 0 0
269 0 1 0 7.77062719404904 10.631735757032418 15.562311451439184 0 0 0
259 0 3 0 7.834689733924304 10.580689405471405 13.146180725210165 0 0 0
407 0 1 0 10.341660729636864 10.054939887476044 13.022737637913137 0 0 0
409 0 3 0 10.337562386910065 10.234490327940648 15.609833196513863 0 0 0
121 0 3 0 15.204412301801149 10.361763913583216 15.572310510787783 -1 0 0
119 0 1 0 15.270485598524168 10.639130128637882 13.292950097318744 -1 0 0
403 0 3 0 12.694820043333639 10.345615008061044 13.082739775314515 0 0 0
118 0 1 0 2.70477108010829 13.129111091965544 12.94726834909516 0 0 0
124 0 3 0 2.456463503544563 13.13757713912645 15.463152914010525 0 0 0
23 0 1 0 0.07427304194887212 15.4618203959771 12.986730964530695 0 -1 0
258 0 3 0 5.1917860463938945 13.196434952813755 13.09919033834036 0 0 0
262 0 1 0 7.54135662353796 13.196870758463282 13.264472447968144 0 0 0
402 0 3 0 10.382914740630866 13.034958645749578 13.196528355821943 0 0 0
416 0 1 0 10.356150097712781 13.113344495216763 15.454286335299125 0 0 0
406 0 1 0 12.676600449833629 13.098222234961321 13.121308943854887 0 0 0
114 0 3 0 15.509993600836811 13.005859308375994 13.117781241980346 -1 0 0
412 0 3 0 12.850145095663091 13.072654588723049 15.505406777747345 0 0 0
128 0 1 0 15.521165328200912 13.229030483108914 15.374233655473555 -1 0 0
307 0 3 0 12.985959075729774 15.4732057970351 13.067676741855426 0 -1 0
123 0 2 0 2.5517230631990344 10.06491047305096 18.37774678337139 0 0 0
125 0 1 0 2.1722240425655084 10.291047495301166 15.746155113377005 0 0 0
271 0 1 0 5.3907325343693415 10.028653392157329 18.30948745997929 0 0 0
267 0 3 0 7.7042888827853675 10.499376545295252 18.019027788400933 0 0 0
265 0 3 0 5.34814979947256 10.442723286774426 15.870630394791553 0 0 0
222 0 1 0 7.846040236511602 8.071813411996658 17.86236121962951 0 0 0
415 0 1 0 10.163850171457472 10.32266797158706 18.143320259570793 0 0 0
127 0 1 0 15.17305942534355 10.18457321057237 17.989563366196457 -1 0 0
411 0 3 0 12.6972271623167 10.258967648484909 18.112432269646362 0 0 0
413 0 1 0 12.86793009020797 10.12045714436429 15.803894295702754 0 0 0
126 0 1 0 2.6564459590901803 12.92671193192107 17.816386339350274 0 0 0
266 0 3 0 5.331728949438606 13.127351818213487 18.127642229247144 0 0 0
270 0 1 0 7.654784718379177 12.838381361229644 18.1950612894837 0 0 0
272 0 1 0 5.144343834990953 13.143928717309938 15.683568251727243 0 0 0
175 0 1 0 5.441750469327839 15.503651968943043 18.184339148946812 0 -1 0
268 0 3 0 7.7197558609141925 13.14672261448637 15.623783549324747 0 0 0
410 0 3 0 10.073945406062489 12.810569444147452 18.10753976504842 0 0 0
319 0 1 0 10.319299994119334 15.200863391625111 18.325677115940433 0 -1 0
122 0 3 0 15.092102747190395 12.836548163171082 17.729644586978115 -1 0 0
414 0 1 0 12.803302910464446 12.70340903326217 17.941533020041565 0 0 0
31 0 1 0 15.34947988297845 15.08119212110552 18.284930081373236 -1 -1 0
315 0 3 0 12.773417566283392 15.169515217867293 18.15295122631471 0 -1 0
133 0 1 0 2.9102860277909635 10.186121033100314 21.03633582891658 0 0 0
131 0 3 0 3.0250530512521148 10.367823018628682 23.26772365401708 0 0 0
273 0 3 0 5.387226373803617 10.378662167906947 20.752436260863856 0 0 0
277 0 1 0 7.804021251661408 10.595211467900354 20.92987961289254 0 0 0
417 0 3 0 10.229774675845128 10.186775232697 20.795043454617133 0 0 0
423 0 1 0 10.224738093157626 10.518806160558034 23.120146789177202 0 0 0
419 0 3 0 12.695328786460916 10.706968184337256 23.046632592447693 0 0 0
374 0 1 0 13.299471224529224 8.246560296440496 22.988358774543745 0 0 0
129 0 2 0 15.345403378236607 10.18153180308756 20.927434306003413 -1 0 0
421 0 1 0 12.509813701940793 10.36611457114348 20.68515123825332 0 0 0
132 0 2 0 2.27470367968758 12.94126220411127 20.74593256074664 0 0 0
181 0 1 0 7.473320121125501 15.483718370973314 20.74294326589739 0 -1 0
276 0 3 0 7.677839341972112 13.170672992367182 20.724155242596574 0 0 0
274 0 3 0 5.019554849952555 13.142156119532043 23.203600738048806 0 0 0
280 0 1 0 5.248078733790891 12.91350187488002 20.726033092244304 0 0 0
424 0 1 0 10.083975998532097 13.11301834958265 20.65188185056256 0 0 0
418 0 3 0 10.444143163429395 12.953669390572 23.148173094313325 0 0 0
321 0 3 0 10.342267962685192 15.383981780282049 20.85298230244885 0 -1 0
325 0 1 0 12.702916620182442 15.43224138596207 20.64804619473995 0 -1 0
420 0 3 0 12.701331153398868 12.786388402862546 20.57885288800221 0 0 0
136 0 1 0 15.009510598466438 13.046740358273052 20.77484750028377 -1 0 0
141 0 1 0 2.7973291287983946 10.520308000722078 25.65614399606886 0 0 0
137 0 3 0 0.1291084000263125 10.58839459435356 25.717987731747808 0 0 0
135 0 1 0 0.4441858345109244 10.780125513278144 23.53430357051984 0 0 0
281 0 3 0 5.264221874942875 10.764601022073132 25.634159804808345 0 0 0
236 0 3 0 7.780261569028675 7.961636237746663 25.90168416328858 0 0 0
279 0 1 0 5.394359895181654 10.447219233936414 23.316736194847724 0 0 0
226 0 3 0 5.413028104771419 7.939014161086647 23.333690653445597 0 0 0
285 0 1 0 7.933546491202185 10.663985139958859 25.820761297499438 0 0 0
425 0 3 0 10.299713862816343 10.478208524462087 25.69053048317155 0 0 0
275 0 3 0 7.854833383698718 10.598755908784035 23.357961392684835 0 0 0
384 0 1 0 10.186419424531419 7.932395720945823 25.82950460721262 0 0 0
230 0 1 0 7.889286196450133 8.036889011835893 23.56797153020639 0 0 0
429 0 1 0 12.819880332673353 10.744997593936917 25.43977419235038 0 0 0
140 0 3 0 2.532276250475002 12.982344297355722 25.768097833369175 0 0 0
134 0 1 0 2.757372606370655 13.102508713154021 23.484364294109028 0 0 0
288 0 1 0 5.296678434727017 13.2486858753578 25.632735423068777 0 0 0
179 0 3 0 7.747257055711417 15.415441697513403 23.357152925987805 0 -1 0
284 0 3 0 7.953653277354887 13.113458314379061 25.86869975898933 0 0 0
432 0 1 0 10.397611949045178 13.129371200528187 25.8523726528293 0 0 0
278 0 1 0 7.884291208209357 13.050543172371897 23.3973279134519 0 0 0
144 0 1 0 15.4640444687858 13.092639552672548 25.812986464552925 -1 0 0
428 0 3 0 12.892641727129199 12.98697340689436 25.691275295257103 0 0 0
422 0 1 0 12.858019180051311 12.977752876826797 23.295098582150363 0 0 0
130 0 3 0 15.399423369824756 13.042973822824687 23.520586095691446 -1 0 0
139 0 2 0 2.6144675581195105 10.423617657231114 28.554975345292693 0 0 0
287 0 1 0 5.540621965533053 10.740905486078923 28.042327631747202 0 0 0
241 0 2 0 5.346282098868237 10.448342984325569 30.79419808918061 0 0 -1
196 0 3 0 8.036410747400629 7.894336733350653 30.903429806129765 0 0 -1
238 0 1 0 8.243006078874831 8.159365202532088 28.282925923129277 0 0 0
283 0 3 0 8.144954391866477 10.591845445384651 28.312129592119135 0 0 0
431 0 1 0 10.514420924555978 10.545321785058531 28.364384638606246 0 0 0