LAMMPS (29 Sep 2021 - Update 3)
OMP_NUM_THREADS environment is not set. Defaulting to 1 thread. (src/comm.cpp:98)
  using 1 OpenMP thread(s) per MPI task
units	metal
atom_style	full

read_data	mixed.data
Reading data file ...
  orthogonal box = (0.0000000 0.0000000 0.0000000) to (15.613400 15.650667 60.676648)
  2 by 2 by 4 MPI processor grid
  reading atoms ...
  864 atoms
Finding 1-2 1-3 1-4 neighbors ...
  special bond factors lj:    0        0        0       
  special bond factors coul:  0        0        0       
     0 = max # of 1-2 neighbors
     0 = max # of 1-3 neighbors
     0 = max # of 1-4 neighbors
     1 = max # of special neighbors
  special bonds CPU = 0.002 seconds
  read_data CPU = 0.022 seconds

pair_style	quip
pair_coeff	* * /ocean/projects/cts180021p/wuziqi/clease/mint-PD/PhaseDiagram-Clease/Liquid/GAP_potential/gap_LiKCl.xml "Potential xml_label=GAP_2021_9_27_0_1_17_37_618" 17 19

neighbor	0.3 bin
neigh_modify	delay 10

timestep	0.001
compute	msd all msd
thermo_style	custom step temp pe etotal press vol c_msd[4]
thermo	10
dump	1 all custom 10 xyz-mix.dump type id x y z
dump	2 all custom 10 force-mix.dump type id fx fy fz

fix     1 all nve
run     2000
Neighbor list info ...
  update every 1 steps, delay 10 steps, check yes
  max neighbors/atom: 2000, page size: 100000
  master list distance cutoff = 6.22
  ghost atom cutoff = 6.22
  binsize = 3.11, bins = 6 6 20
  1 neighbor lists, perpetual/occasional/extra = 1 0 0
  (1) pair quip, perpetual
      attributes: full, newton on
      pair build: full/bin
      stencil: full/bin/3d
      bin: standard
Per MPI rank memory allocation (min/avg/max) = 8.889 | 8.898 | 8.908 Mbytes
Step Temp PotEng TotEng Press Volume c_msd[4] 
       0            0    -9417.799    -9417.799   -30975.102    14826.953            0 
      10    165.55627   -9436.2929   -9417.8248   -35808.397    14826.953 0.00030948002 
      20    378.45436   -9460.0599   -9417.8428   -42850.796    14826.953 0.0037274276 
      30    405.69294   -9463.0843   -9417.8287   -44302.105    14826.953  0.012463481 
      40    392.02077   -9461.5541   -9417.8236   -44279.401    14826.953  0.024415468 
      50    417.08826   -9464.3564   -9417.8296    -45973.39    14826.953  0.036982033 
      60    420.75535   -9464.7647   -9417.8288    -47753.74    14826.953  0.049634467 
      70     407.9112   -9463.3278   -9417.8247   -49652.187    14826.953  0.062755472 
      80    419.12468   -9464.5812   -9417.8272   -52906.106    14826.953   0.07687559 
      90    432.06858   -9466.0257   -9417.8278   -56644.554    14826.953  0.092516529 
     100    437.07358   -9466.5845   -9417.8283    -59457.96    14826.953   0.10938904 
     110    434.54866   -9466.3021   -9417.8275   -61104.413    14826.953   0.12652542 
     120    434.14482   -9466.2568   -9417.8273   -62154.885    14826.953    0.1431545 
     130      439.361   -9466.8391   -9417.8277   -63630.197    14826.953   0.15919619 
     140    446.51909   -9467.6387   -9417.8289   -65558.428    14826.953   0.17463459 
     150    447.02916   -9467.6951   -9417.8283   -67360.122    14826.953   0.18924565 
     160    445.88924   -9467.5675   -9417.8279   -69292.957    14826.953   0.20295995 
     170    449.26197   -9467.9437   -9417.8279   -71767.875    14826.953   0.21606234 
     180    456.11765   -9468.7096    -9417.829   -74290.183    14826.953   0.22912636 
     190    454.43711   -9468.5223   -9417.8292    -76612.29    14826.953   0.24280842 
     200    446.62774    -9467.649    -9417.827   -78739.398    14826.953   0.25734039 
     210    454.33781   -9468.5105   -9417.8284   -80806.826    14826.953    0.2725174 
     220    466.39184   -9469.8552   -9417.8285   -82316.213    14826.953   0.28796461 
     230    478.52262   -9471.2093   -9417.8294   -82954.729    14826.953   0.30306018 
     240    481.66435   -9471.5594    -9417.829   -83195.523    14826.953   0.31749982 
     250    481.45071   -9471.5331   -9417.8266    -83193.07    14826.953   0.33144361 
     260    501.18304   -9473.7372   -9417.8295   -82982.381    14826.953   0.34536204 
     270    513.25195   -9475.0851   -9417.8311   -82417.815    14826.953   0.35987885 
     280    501.57666   -9473.7806    -9417.829   -81721.808    14826.953   0.37471171 
     290    492.47305   -9472.7646   -9417.8285   -81146.258    14826.953   0.38855622 
     300    495.01951   -9473.0493   -9417.8292   -80485.485    14826.953   0.40074053 
     310    503.02213   -9473.9419    -9417.829   -79975.837    14826.953   0.41197537 
     320    517.02716   -9475.5049   -9417.8298    -80100.53    14826.953   0.42312641 
     330    528.24549   -9476.7573   -9417.8307   -80345.683    14826.953   0.43452756 
     340    527.46021   -9476.6689   -9417.8299   -79908.329    14826.953   0.44600697 
     350    525.40472   -9476.4395   -9417.8298   -79635.847    14826.953   0.45751829 
     360    526.17025   -9476.5255   -9417.8304   -79296.551    14826.953    0.4690149 
     370    526.91272   -9476.6086   -9417.8307   -78934.771    14826.953   0.47994193 
     380    523.77443   -9476.2591   -9417.8312    -78349.26    14826.953    0.4899244 
     390    515.97368   -9475.3874   -9417.8298   -77628.832    14826.953   0.49901453 
     400    520.05492    -9475.843   -9417.8301   -77188.099    14826.953   0.50752529 
     410    532.56265   -9477.2391    -9417.831   -76589.953    14826.953   0.51614865 
     420    540.25226   -9478.0982   -9417.8322   -75877.581    14826.953   0.52551418 
     430    530.99756   -9477.0645   -9417.8309   -74960.344    14826.953   0.53577624 
     440    520.22454   -9475.8617   -9417.8299   -74047.729    14826.953   0.54643624 
     450    524.10068   -9476.2951   -9417.8308    -73298.66    14826.953   0.55673143 
     460    534.09515   -9477.4108   -9417.8316   -72760.738    14826.953   0.56614172 
     470    540.77118   -9478.1556   -9417.8317   -72524.651    14826.953   0.57446846 
     480    541.24645   -9478.2098    -9417.833   -72632.257    14826.953   0.58202651 
     490    525.98312   -9476.5055   -9417.8313   -72557.778    14826.953   0.58956581 
     500    519.29389   -9475.7579   -9417.8299   -72672.134    14826.953   0.59738896 
     510    536.84993   -9477.7197   -9417.8332   -73590.734    14826.953   0.60540983 
     520    541.07469   -9478.1913   -9417.8336   -74459.431    14826.953   0.61314596 
     530    525.46621    -9476.448   -9417.8314     -75250.3    14826.953   0.61964842 
     540    517.81909   -9475.5943   -9417.8308   -76615.008    14826.953   0.62442657 
     550    530.74801   -9477.0373   -9417.8316   -78518.677    14826.953   0.62810042 
     560    549.85385   -9479.1718   -9417.8347   -80253.367    14826.953   0.63196072 
     570    545.69369   -9478.7044   -9417.8314    -81117.21    14826.953   0.63700617 
     580    550.79507   -9479.2735   -9417.8315   -82215.551    14826.953   0.64324602 
     590    565.64388   -9480.9333   -9417.8349   -83714.176    14826.953   0.65037812 
     600    553.97462   -9479.6301   -9417.8334   -84197.142    14826.953   0.65818616 
     610    534.68082   -9477.4754   -9417.8309    -84240.65    14826.953   0.66624572 
     620    539.88467    -9478.057    -9417.832   -85068.031    14826.953   0.67443063 
     630    557.34145   -9480.0068   -9417.8345   -86385.256    14826.953   0.68307389 
     640    561.99273   -9480.5241    -9417.833   -87221.521    14826.953   0.69206136 
     650    566.38107   -9481.0145   -9417.8338   -87655.782    14826.953   0.70036908 
     660    568.86956   -9481.2918   -9417.8335    -87740.11    14826.953   0.70722977 
     670    575.19383   -9481.9963   -9417.8326   -87866.365    14826.953   0.71303183 
     680    595.54742   -9484.2684   -9417.8342   -88404.913    14826.953   0.71947662 
     690    609.98222   -9485.8807   -9417.8363   -88729.686    14826.953    0.7286457 
     700    596.15452   -9484.3367   -9417.8348   -87868.063    14826.953   0.74132924 
     710     573.7335   -9481.8333   -9417.8324   -86258.222    14826.953   0.75645284 
     720    573.70821   -9481.8317   -9417.8337   -84983.366    14826.953   0.77238493 
     730     586.6623   -9483.2786   -9417.8355   -84422.122    14826.953   0.78843572 
     740    590.84846   -9483.7457   -9417.8357   -83666.343    14826.953   0.80463072 
     750    583.49524   -9482.9245   -9417.8347    -82343.99    14826.953   0.82074782 
     760    583.95649   -9482.9744   -9417.8332   -81187.395    14826.953   0.83649385 
     770    604.11555   -9485.2273   -9417.8373   -80598.713    14826.953   0.85208187 
     780    602.14592   -9485.0071   -9417.8368   -79807.857    14826.953   0.86786713 
     790    583.15212   -9482.8843   -9417.8328   -79182.757    14826.953   0.88337328 
     800    591.98235   -9483.8727   -9417.8362    -79217.67    14826.953   0.89779065 
     810     593.6376   -9484.0604   -9417.8392   -78586.479    14826.953   0.91096518 
     820    564.19404    -9480.769   -9417.8323   -76887.536    14826.953   0.92230305 
     830    578.29071   -9482.3435   -9417.8343    -76070.66    14826.953   0.93079609 
     840    620.21177   -9487.0247   -9417.8391   -76615.231    14826.953   0.93735222 
     850    635.72143   -9488.7531   -9417.8374   -76706.283    14826.953   0.94395854 
     860    638.46305   -9489.0584   -9417.8369   -76335.754    14826.953    0.9515297 
     870    639.16227   -9489.1369   -9417.8374   -76423.443    14826.953   0.96015894 
     880    632.78052   -9488.4255   -9417.8379    -76496.29    14826.953   0.96986761 
     890    619.52962   -9486.9443   -9417.8348   -76440.217    14826.953   0.98065907 
     900    631.58349   -9488.2902   -9417.8361   -77290.162    14826.953   0.99283193 
     910    659.71446   -9491.4297   -9417.8375   -78626.622    14826.953    1.0074175 
     920    682.68232   -9493.9925   -9417.8382   -79649.341    14826.953     1.025539 
     930    692.81423   -9495.1224   -9417.8379   -80089.571    14826.953    1.0472636 
     940    693.68664   -9495.2193   -9417.8375   -80244.074    14826.953    1.0718362 
     950     697.6853   -9495.6642   -9417.8364   -80549.347    14826.953    1.0985217 
     960    720.55047   -9498.2165    -9417.838   -81100.976    14826.953    1.1269795 
     970    736.50661   -9500.0011   -9417.8427   -81178.831    14826.953    1.1574498 
     980    709.64481   -9496.9987   -9417.8368   -80198.822    14826.953    1.1900413 
     990    699.67715   -9495.8872   -9417.8372   -80141.397    14826.953    1.2238706 
    1000    721.55559   -9498.3287    -9417.838   -81850.645    14826.953    1.2577136 
    1010    753.07988   -9501.8503   -9417.8431   -83180.243    14826.953    1.2911781 
    1020      745.493   -9501.0009   -9417.8401   -82863.976    14826.953    1.3253393 
    1030    733.65366   -9499.6762    -9417.836   -82639.661    14826.953    1.3609259 
    1040    758.67379   -9502.4737   -9417.8425   -83602.278    14826.953     1.397925 
    1050    756.83368   -9502.2682   -9417.8422   -83730.377    14826.953    1.4364633 
    1060    728.60541   -9499.1145   -9417.8375   -82787.476    14826.953    1.4761865 
    1070    732.87934   -9499.5908    -9417.837   -82732.658    14826.953    1.5166131 
    1080    772.96075   -9504.0683   -9417.8434   -84026.785    14826.953     1.557623 
    1090    781.69039   -9505.0406   -9417.8419   -84442.056    14826.953    1.5996324 
    1100    771.56221   -9503.9052   -9417.8363   -84299.214    14826.953    1.6430538 
    1110    801.54413   -9507.2546   -9417.8412   -84972.703    14826.953    1.6886146 
    1120    823.54281   -9509.7109   -9417.8435   -85496.656    14826.953    1.7387343 
    1130     822.5412   -9509.5935   -9417.8378   -84712.521    14826.953    1.7953724 
    1140    852.09877   -9512.8966   -9417.8437   -84635.582    14826.953    1.8578542 
    1150    856.32238   -9513.3687   -9417.8447   -83808.928    14826.953    1.9247272 
    1160    829.16843   -9510.3332   -9417.8382   -82252.194    14826.953    1.9939774 
    1170    841.50467   -9511.7132   -9417.8421   -82218.858    14826.953    2.0635991 
    1180    862.29463   -9514.0344   -9417.8441    -82731.26    14826.953    2.1335867 
    1190    866.74056   -9514.5296   -9417.8434   -81686.997    14826.953    2.2053203 
    1200       872.69    -9515.192   -9417.8421   -80417.058    14826.953    2.2796571 
    1210    894.17681   -9517.5923   -9417.8456   -80254.886    14826.953    2.3566684 
    1220    898.69177    -9518.094   -9417.8436   -80269.089    14826.953    2.4365388 
    1230    902.65555   -9518.5356   -9417.8431   -79919.279    14826.953     2.518764 
    1240    911.76859   -9519.5544   -9417.8452   -78985.613    14826.953    2.6023137 
    1250    918.59896   -9520.3146   -9417.8435   -76973.171    14826.953    2.6875029 
    1260    941.81665   -9522.9069   -9417.8458   -75160.665    14826.953    2.7758222 
    1270     961.5063   -9525.1039   -9417.8464   -73045.867    14826.953    2.8682405 
    1280    975.25968   -9526.6366   -9417.8449   -70472.054    14826.953    2.9648404 
    1290    1001.7621   -9529.5952   -9417.8471   -69578.057    14826.953    3.0655448 
    1300    1017.6288   -9531.3669   -9417.8489   -68777.285    14826.953    3.1701834 
    1310     1014.471   -9531.0095   -9417.8438   -66497.248    14826.953    3.2777376 
    1320    1037.6476   -9533.6011     -9417.85   -64366.582    14826.953    3.3877913 
    1330    1036.1698   -9533.4336   -9417.8473   -62062.663    14826.953    3.5023518 
    1340    1033.7099   -9533.1571   -9417.8452   -59413.385    14826.953    3.6220509 
    1350    1054.8214   -9535.5189   -9417.8519   -57213.004    14826.953    3.7454243 
    1360    1037.5641   -9533.5912   -9417.8494   -54687.928    14826.953    3.8711956 
    1370    1024.3347   -9532.1105   -9417.8444   -51863.642    14826.953    3.9979351 
    1380    1062.9789   -9536.4316   -9417.8547   -49837.894    14826.953    4.1246204 
    1390    1057.5859    -9535.828   -9417.8527   -47126.721    14826.953    4.2515344 
    1400    1031.7037   -9532.9346   -9417.8465   -44628.045    14826.953    4.3784738 
    1410    1045.5289   -9534.4845   -9417.8542   -43213.649    14826.953    4.5048283 
    1420    1036.1371   -9533.4348   -9417.8521   -40686.938    14826.953    4.6299533 
    1430    1013.3873   -9530.8963   -9417.8514   -37037.959    14826.953    4.7524242 
    1440    1009.9024   -9530.5043   -9417.8482   -34353.771    14826.953    4.8714929 
    1450      1045.07    -9534.436   -9417.8569   -32718.717    14826.953     4.987903 
    1460     1044.846   -9534.4069   -9417.8527   -30915.035    14826.953    5.1042348 
    1470    1040.0569   -9533.8734   -9417.8535   -30330.474    14826.953    5.2222883 
    1480    1033.2322   -9533.1134   -9417.8548   -30604.537    14826.953    5.3412471 
    1490    1017.9278   -9531.4016   -9417.8502   -29807.511    14826.953    5.4578543 
    1500    1040.2213   -9533.8955   -9417.8572   -28131.475    14826.953    5.5684253 
    1510    1039.3849   -9533.8003   -9417.8554   -25914.416    14826.953    5.6718067 
    1520    1029.0609   -9532.6473    -9417.854   -24594.464    14826.953    5.7682644 
    1530    1031.5004   -9532.9233   -9417.8579   -24254.573    14826.953    5.8578573 
    1540    1019.0107   -9531.5253   -9417.8532   -23531.216    14826.953    5.9413335 
    1550    1035.4455    -9533.363   -9417.8575   -23504.541    14826.953    6.0203438 
    1560    1050.1303   -9535.0005   -9417.8569    -23102.24    14826.953    6.0964063 
    1570     1053.806   -9535.4108   -9417.8571   -22678.296    14826.953    6.1693718 
    1580     1061.119   -9536.2243   -9417.8549   -21883.077    14826.953     6.236789 
    1590    1088.5999   -9539.2973   -9417.8624   -21917.761    14826.953    6.2959336 
    1600      1067.89   -9536.9845   -9417.8598   -22163.429    14826.953    6.3467449 
    1610    1035.4961   -9533.3641    -9417.853   -23136.244    14826.953    6.3901828 
    1620    1056.7784   -9535.7458   -9417.8606   -24690.284    14826.953    6.4275988 
    1630    1066.5554   -9536.8339   -9417.8581   -25692.824    14826.953    6.4607565 
    1640    1082.2069   -9538.5786   -9417.8568   -26490.679    14826.953    6.4897954 
    1650    1116.1576   -9542.3698   -9417.8608   -28025.498    14826.953    6.5134721 
    1660    1130.4022   -9543.9576   -9417.8596   -28776.295    14826.953    6.5310838 
    1670    1144.7697   -9545.5608     -9417.86   -30173.707    14826.953    6.5431878 
    1680    1161.8103    -9547.465   -9417.8633   -32505.604    14826.953    6.5523479 
    1690    1144.3333   -9545.5114   -9417.8593    -33279.31    14826.953    6.5616337 
    1700    1136.3544   -9544.6191    -9417.857   -33690.837    14826.953    6.5724324 
    1710    1176.6035   -9549.1142   -9417.8623   -37361.619    14826.953    6.5842075 
    1720    1198.4999   -9551.5635   -9417.8691   -40786.714    14826.953    6.5951801 
    1730    1154.0225   -9546.5909    -9417.858    -41380.84    14826.953    6.6025599 
    1740    1162.4697   -9547.5365   -9417.8612   -42122.661    14826.953    6.6035206 
    1750    1217.5958   -9553.6894   -9417.8648   -44095.184    14826.953    6.5987402 
    1760    1258.0248   -9558.2033   -9417.8687   -46540.118    14826.953     6.591658 
    1770    1236.8678   -9555.8357   -9417.8612   -48451.256    14826.953    6.5846594 
    1780    1229.6407   -9555.0271   -9417.8588   -50743.073    14826.953    6.5769021 
    1790    1262.7885   -9558.7348   -9417.8689   -53292.589    14826.953    6.5687005 
    1800    1252.0625   -9557.5318   -9417.8623   -54893.743    14826.953    6.5624205 
    1810    1246.8613   -9556.9532   -9417.8639   -56632.643    14826.953    6.5581611 
    1820    1242.3945   -9556.4566   -9417.8657   -58535.832    14826.953    6.5543941 
    1830    1221.3702    -9554.109   -9417.8634   -60009.412    14826.953    6.5499057 
    1840    1212.9357   -9553.1643   -9417.8595   -61556.573    14826.953    6.5428348 
    1850    1263.9969   -9558.8674   -9417.8667   -65435.852    14826.953    6.5324408 
    1860    1285.5884   -9561.2846   -9417.8753    -68660.14    14826.953    6.5212296 
    1870    1214.4221   -9553.3281   -9417.8575   -67913.202    14826.953    6.5108613 
    1880    1240.7292   -9556.2712    -9417.866   -69208.737    14826.953    6.4995978 
    1890    1270.4483   -9559.6022   -9417.8818   -71282.098    14826.953    6.4880409 
    1900    1157.8079   -9547.0093   -9417.8541   -70763.972    14826.953    6.4774151 
    1910     1166.235     -9547.96   -9417.8648   -72850.327    14826.953    6.4654768 
    1920    1214.5736   -9553.3625    -9417.875   -76494.653    14826.953    6.4516584 
    1930    1182.0419   -9549.7195   -9417.8609   -76455.664    14826.953    6.4355978 
    1940    1204.4023   -9552.2203   -9417.8674   -75958.225    14826.953    6.4157942 
    1950    1226.3694   -9554.6747   -9417.8713   -74838.153    14826.953    6.3937969 
    1960    1204.4092   -9552.2146   -9417.8609   -73367.437    14826.953    6.3721901 
    1970    1239.3277   -9556.1157   -9417.8668   -73666.391    14826.953    6.3514773 
    1980    1264.3958   -9558.9153     -9417.87   -74700.467    14826.953    6.3312291 
    1990     1229.627   -9555.0308    -9417.864   -74940.507    14826.953    6.3107868 
    2000    1194.8681   -9551.1533   -9417.8639   -75555.459    14826.953    6.2895403 
Loop time of 1649.67 on 16 procs for 2000 steps with 864 atoms

Performance: 0.105 ns/day, 229.121 hours/ns, 1.212 timesteps/s
95.6% CPU use with 16 MPI tasks x 1 OpenMP threads

MPI task timing breakdown:
Section |  min time  |  avg time  |  max time  |%varavg| %total
---------------------------------------------------------------
Pair    | 1224.5     | 1373.7     | 1599.4     | 341.4 | 83.27
Bond    | 0.00015593 | 0.00046887 | 0.00099349 |   0.0 |  0.00
Neigh   | 0.02549    | 0.032362   | 0.042909   |   3.4 |  0.00
Comm    | 49.948     | 272.01     | 423.2      | 758.3 | 16.49
Output  | 0.21308    | 2.1544     | 6.7349     | 182.4 |  0.13
Modify  | 0.0093522  | 0.010622   | 0.012482   |   0.7 |  0.00
Other   |            | 1.742      |            |       |  0.11

Nlocal:        54.0000 ave          65 max          37 min
Histogram: 1 0 3 1 3 0 0 0 4 4
Nghost:        616.312 ave         727 max         487 min
Histogram: 4 3 1 0 0 0 0 0 0 8
Neighs:         0.00000 ave           0 max           0 min
Histogram: 16 0 0 0 0 0 0 0 0 0
FullNghs:      3255.38 ave        4280 max        2032 min
Histogram: 1 3 4 0 0 0 0 0 3 5

Total # of neighbors = 52086
Ave neighs/atom = 60.284722
Ave special neighs/atom = 0.0000000
Neighbor list builds = 199
Dangerous builds = 198
unfix   1

velocity    all create 1125.0 1312343 dist gaussian
fix     2 all npt temp 1125.0 1125.0 $(100.0*dt) aniso 0.0 1.01325 $(1000.0*dt)
fix     2 all npt temp 1125.0 1125.0 0.10000000000000000555 aniso 0.0 1.01325 $(1000.0*dt)
fix     2 all npt temp 1125.0 1125.0 0.10000000000000000555 aniso 0.0 1.01325 1
run     3000
Per MPI rank memory allocation (min/avg/max) = 8.898 | 8.906 | 8.912 Mbytes
Step Temp PotEng TotEng Press Volume c_msd[4] 
    2000         1125   -9551.1533   -9425.6578   -76116.923    14826.953    6.2895403 
    2010    1114.1816   -9551.0487     -9426.76    -73870.33    14808.417    6.2747877 
    2020    1124.3596   -9555.2776   -9429.8536   -67586.183    14754.052    6.2408364 
    2030    1118.0812    -9558.957   -9434.2334   -57076.608    14667.855    6.1944652 
    2040    1181.5506   -9570.8688   -9439.0651    -46423.08    14556.845    6.1431066 
    2050    1244.9302   -9582.6182   -9443.7444   -35062.589    14429.797    6.0930704 
    2060    1250.3056    -9587.209   -9447.7355    -21139.59    14296.837    6.0488936 
    2070    1268.3039   -9592.2302    -9450.749   -6940.0684    14168.763    6.0153596 
    2080    1297.2687   -9597.7251   -9453.0128    5752.8534    14054.546    5.9986667 
    2090    1286.5658   -9598.3346   -9454.8162    17017.451    13959.734    6.0029022 
    2100    1288.4345   -9600.1381   -9456.4113    24430.334     13886.63    6.0277217 
    2110    1307.7413   -9603.9252   -9458.0447    28113.718    13834.656    6.0697749 
    2120    1295.9379   -9604.2193   -9459.6554    30276.168    13801.574    6.1243537 
    2130     1278.925   -9603.7488   -9461.0828    29254.784    13784.931    6.1865097 
    2140    1304.4567   -9607.9914   -9462.4773    24349.062    13781.835    6.2546726 
    2150    1289.8471   -9607.8157   -9463.9314    19652.042    13788.868    6.3290774 
    2160    1216.7668   -9601.0915   -9465.3593    16907.011    13803.295    6.4053789 
    2170    1208.3375   -9601.4829   -9466.6911    12237.963    13823.337    6.4770254 
    2180    1274.9345   -9610.2652   -9468.0443    5097.2637    13846.832    6.5399429 
    2190    1277.9853   -9612.0886   -9469.5274    -1033.601    13870.907    6.5922014 
    2200    1236.7105   -9609.0425   -9471.0856   -5273.7253    13893.149    6.6330319 
    2210    1234.2348   -9610.3347    -9472.654   -9251.0135    13911.946    6.6622001 
    2220    1261.8448    -9615.057   -9474.2963   -14790.123    13925.783    6.6794263 
    2230    1248.7793   -9615.3601   -9476.0569   -19368.837    13932.731    6.6825494 
    2240    1242.4696   -9616.5241   -9477.9247   -22368.573    13931.226    6.6686546 
    2250    1266.3419   -9621.2251   -9479.9628   -25360.053      13920.3    6.6363416 
    2260    1278.4198    -9624.864   -9482.2543   -26961.148    13899.165     6.585478 
    2270    1291.3365   -9628.8814   -9484.8309   -26281.527    13867.654    6.5173514 
    2280     1259.368   -9628.0133   -9487.5289   -21152.283    13826.711    6.4353813 
    2290    1255.9784   -9630.1915   -9490.0852   -16575.266    13778.853    6.3454723 
    2300    1308.7132   -9638.6382   -9492.6493   -15259.659    13726.366    6.2540011 
    2310    1303.4939   -9640.6748   -9495.2681    -11457.18    13670.524    6.1658225 
    2320    1302.4017   -9643.0875   -9497.8026   -6183.5526    13613.257    6.0834787 
    2330    1320.0477   -9647.5087   -9500.2554   -1702.2467    13556.945    6.0092029 
    2340    1332.8922   -9651.3489   -9502.6628    1279.5672    13503.539    5.9444677 
    2350    1392.5606   -9660.5211   -9505.1789    2019.1605    13454.154    5.8883777 
    2360    1459.0474   -9670.8052   -9508.0463    3009.4689    13408.971    5.8412019 
    2370    1428.5383    -9670.487   -9511.1314    6368.4526    13368.225    5.8058879 
    2380    1411.7607   -9671.5788   -9514.0948    9815.8775     13332.87    5.7838725 
    2390    1490.0127   -9683.3971   -9517.1839    10526.539    13303.679     5.774504 
    2400    1488.2305   -9686.5326   -9520.5183    13438.313    13280.675    5.7761643 
    2410    1544.9323   -9696.4409   -9524.1013    14810.069     13264.34     5.786993 
    2420    1559.4992   -9702.0607   -9528.0962    14529.996    13254.688    5.8085073 
    2430    1459.7991   -9694.9446   -9532.1018     13960.23    13251.184    5.8417086 
    2440    1441.7392   -9696.6972   -9535.8691    9389.6767    13253.065    5.8839325 
    2450    1481.9855    -9704.971   -9539.6532    2213.9956     13258.28    5.9319578 
    2460    1446.7697   -9704.8955   -9543.5062   -1793.1618    13264.134    5.9824798 
    2470    1406.5691   -9704.1488   -9547.2439   -5792.3252    13268.936    6.0312167 
    2480    1407.0378   -9707.8576   -9550.9004   -10221.637     13271.22    6.0740728 
    2490    1415.7654    -9712.495   -9554.5643   -13102.183    13269.529    6.1080096 
    2500    1438.9496   -9718.8711   -9558.3542   -14544.449    13262.962     6.132431 
    2510    1458.7805   -9725.0511    -9562.322   -13399.825    13251.306    6.1482391 
    2520    1472.0918   -9730.6554   -9566.4414   -11075.469    13235.235     6.155383 
    2530    1487.0481   -9736.5957   -9570.7132   -7746.4215    13215.887    6.1549602 
    2540    1468.4627   -9738.8464   -9575.0372   -5039.4328    13194.655    6.1495015 
    2550    1504.3611   -9747.2325   -9579.4187   -5069.4204    13172.603     6.138793 
    2560    1534.8084   -9755.3031   -9584.0929   -4154.5569    13149.901    6.1216229 
    2570    1446.5143   -9750.0512   -9588.6904   -609.25248        13127    6.0982634 
    2580    1464.3004   -9756.4096   -9593.0647    -202.0921    13104.998    6.0690228 
    2590    1483.8471   -9763.1177   -9597.5924    2559.7013    13084.233    6.0359184 
    2600    1405.4817   -9758.7913   -9602.0077    8629.7012    13065.711    6.0009049 
    2610    1372.3982    -9759.202   -9606.1089    12041.799    13051.322    5.9644329 
    2620    1398.8403   -9766.1003   -9610.0575    12260.459    13042.105    5.9264679 
    2630    1452.6557   -9776.2285   -9614.1826    11065.912     13037.89    5.8876101 
    2640    1465.0235    -9781.973   -9618.5474    10299.364    13038.003    5.8507259 
    2650    1446.5507   -9784.3625   -9622.9976    9292.9427    13041.892     5.820344 
    2660    1421.2131   -9785.9061   -9627.3676    7578.3909    13048.968    5.7996584 
    2670    1457.8024   -9794.3495   -9631.7295    3134.9674     13058.33    5.7886744 
    2680     1480.594   -9801.4098   -9636.2474   -1472.4478    13068.304    5.7860214 
    2690     1448.825   -9802.4129   -9640.7943   -3348.4845    13077.251    5.7911019 
    2700    1380.2418   -9799.0739   -9645.1059   -4976.0955    13084.445    5.8023118 
    2710    1365.9027   -9801.5051   -9649.1366   -8148.9184    13089.317    5.8146964 
    2720     1368.141   -9805.7097   -9653.0915   -8939.0393    13090.981    5.8243006 
    2730    1359.4656   -9808.6352   -9656.9848   -9024.2132    13089.246    5.8305946 
    2740     1353.652   -9811.8688   -9660.8668    -8814.038    13084.268    5.8354082 
    2750    1302.0965   -9809.8505   -9664.5997   -7079.9673    13076.369    5.8413682 
    2760    1294.7136   -9812.5492   -9668.1219   -6578.0965    13066.227    5.8479786 
    2770     1342.566   -9821.4331   -9671.6679   -7731.7213    13054.125    5.8532081 
    2780    1326.1803   -9823.2639   -9675.3265   -5007.2572    13039.965     5.859135 
    2790    1261.5322   -9819.5519   -9678.8261    740.15118    13024.838    5.8702246 
    2800    1284.9044   -9825.4691    -9682.136    3609.9925    13010.708    5.8876622 
    2810    1302.1395     -9830.78   -9685.5244    5459.2938    12998.639    5.9103421 
    2820    1199.9226   -9822.5872    -9688.734    9046.6072    12989.296     5.936325 
    2830    1187.9155   -9824.1555   -9691.6418    8589.3954    12983.616    5.9642811 
    2840    1243.0019   -9833.1623   -9694.5035     4944.578    12981.272    5.9954214 
    2850    1220.4284    -9833.482   -9697.3414     3861.204    12980.957    6.0307221 
    2860    1191.2134    -9832.899   -9700.0174    4004.0781    12982.113    6.0680225 
    2870    1162.2569   -9832.1839   -9702.5324    3200.3701    12984.655    6.1038237 
    2880    1115.0831   -9829.1997   -9704.8105     2012.417    12988.237    6.1337504 
    2890    1113.0419   -9831.0252   -9706.8637   -706.92794    12992.319    6.1538687 
    2900    1123.8601   -9834.1317   -9708.7634   -3259.2731    12995.952    6.1646165 
    2910     1166.393   -9840.7196   -9710.6067   -6091.7918    12998.186    6.1692543 
    2920    1213.6076   -9847.9503   -9712.5705    -7297.178    12998.132    6.1700472 
    2930    1118.2887   -9839.3042   -9714.5574   -3405.9356    12995.592    6.1677368 
    2940    1042.6767   -9832.5616   -9716.2494     358.8548    12991.904    6.1603424 
    2950    1124.8034   -9843.2595    -9717.786    820.32803    12988.397    6.1471578 
    2960    1100.4988   -9842.0451   -9719.2828    3368.1346    12985.434    6.1322211 
    2970    1048.1801   -9837.5205   -9720.5944    6134.8537    12983.876    6.1185844 
    2980    1134.6762   -9848.3989   -9721.8241    3009.3946    12984.412    6.1070329 
    2990    1138.1275   -9850.0014   -9723.0416    1009.3588    12986.089    6.0985125 
    3000    1121.8814   -9849.3747   -9724.2272    62.937317    12988.109    6.0920597 
    3010     1099.531   -9848.0184   -9725.3641   -1091.0664    12990.056    6.0862029 
    3020    1058.2225   -9844.4229   -9726.3766   -822.88375    12991.581    6.0800678 
    3030     1048.776   -9844.2308   -9727.2383    6.7656744    12992.762    6.0728881 
    3040    1054.9145   -9845.6104   -9727.9331    177.36789    12993.882    6.0643874 
    3050    1079.8163   -9848.9373   -9728.4822   -754.27558    12994.995    6.0559978 
    3060    1107.9235   -9852.5405   -9728.9499   -1987.9754    12995.777    6.0513505 
    3070    1096.2044   -9851.6649   -9729.3816   -2920.1821    12995.813    6.0525926 
    3080    1092.2957   -9851.6028   -9729.7555   -5341.5277    12994.688    6.0582264 
    3090    1122.7751   -9855.3372   -9730.0899   -6091.5771    12991.673    6.0658216 
    3100    1078.7375   -9850.7171   -9730.3823   -2979.2256    12986.656    6.0743522 
    3110    1027.2558   -9845.1373   -9730.5454    832.96939    12980.752    6.0829156 
    3120    1066.4915   -9849.5061   -9730.5373     1539.388    12975.279    6.0911196 
    3130    1079.0868   -9850.7626   -9730.3889    1312.6063    12970.553    6.0999905 
    3140    1062.3899   -9848.6407   -9730.1295    1189.6106    12966.481    6.1107688 
    3150    1109.2667   -9853.5168   -9729.7764     329.7803    12962.946    6.1246734 
    3160    1070.6382   -9848.7645   -9729.3332    2507.1379    12959.763    6.1429652 
    3170    1048.8954   -9845.8106   -9728.8048    4612.8078    12957.637     6.164554 
    3180    1109.9871   -9851.9641   -9728.1434    2671.3099    12957.143    6.1871159 
    3190    1104.2513   -9850.5768   -9727.3959    1733.5651    12957.704    6.2089448 
    3200    1078.1548   -9846.8995   -9726.6297    2331.0984    12958.943    6.2290198 
    3210       1074.5   -9845.6486   -9725.7865    3026.5009    12961.015    6.2481765 
    3220    1103.6275   -9847.9595   -9724.8482    2732.7694    12964.115    6.2683195 
    3230    1114.9954   -9848.2233   -9723.8438    3180.8439    12968.152    6.2911522 
    3240    1121.2177   -9847.9078   -9722.8343     3540.689    12973.248    6.3164218 
    3250     1128.208   -9847.6747   -9721.8214    1365.2539    12979.414    6.3422094 
    3260    1151.9471   -9849.3182   -9720.8168    -1080.668    12985.889     6.366583 
    3270    1147.5085    -9847.852   -9719.8457   -2077.4122    12991.807    6.3887468 
    3280    1143.2151   -9846.4741   -9718.9467   -1771.5507    12996.832    6.4082474 
    3290    1156.4509   -9847.1108   -9718.1069   -2328.8604    13001.023    6.4256249 
    3300    1109.9815   -9841.1371    -9717.317   -1131.1649    13004.319    6.4411422 
    3310    1138.2551   -9843.5295   -9716.5555   -2203.1908    13007.027     6.453455 
    3320    1182.9997    -9847.762   -9715.7966   -5071.8304    13008.784    6.4614343 
    3330    1159.2804   -9844.4762   -9715.1567   -5892.5439    13008.669    6.4643559 
    3340    1126.9917   -9840.3492   -9714.6316   -6362.7429    13006.373    6.4613776 
    3350    1128.2376   -9840.0116    -9714.155   -7000.7103    13001.782    6.4507402 
    3360    1179.8094   -9845.3277   -9713.7182   -7822.2723    12994.719    6.4322251 
    3370    1233.5621   -9851.0131   -9713.4074   -6591.3887    12985.006    6.4091743 
    3380    1198.2868   -9846.9642   -9713.2935   -1042.3207    12973.265    6.3865799 
    3390    1129.9816   -9839.3064   -9713.2553    5782.2979    12961.547    6.3675573 
    3400    1179.6826    -9844.834   -9713.2386    8548.0527    12952.143    6.3535147 
    3410    1197.5189   -9846.9193   -9713.3342    10932.023    12946.152     6.346409 
    3420    1159.2996   -9842.9213   -9713.5997    11841.666    12944.318    6.3461865 
    3430    1189.0589   -9846.6506   -9714.0093    7405.4093    12946.718    6.3502382 
    3440    1212.0232   -9849.8019   -9714.5989    3981.9504    12951.846    6.3566621 
    3450    1147.2787   -9843.3117    -9715.331    3293.3035    12958.413    6.3656482 
    3460    1137.9989   -9843.0528   -9716.1073     554.4524     12965.94    6.3773782 
    3470    1186.1505    -9849.268   -9716.9511   -2690.5113    12973.481     6.392353 
    3480    1157.6551   -9847.0242    -9717.886   -3397.5034    12979.936    6.4108724 
    3490    1150.0925   -9847.1891   -9718.8945   -4052.2073    12984.959    6.4312515 
    3500    1135.6049   -9846.6207   -9719.9423   -4110.2664    12988.379     6.451643 
    3510    1108.1465   -9844.5946   -9720.9791   -3670.7782    12990.203    6.4706526 
    3520    1105.2714   -9845.2538   -9721.9591   -3312.5734    12990.633    6.4869392 
    3530    1163.6954   -9852.7407   -9722.9287   -5147.6374    12989.738    6.4988193 
    3540     1158.799   -9853.2379   -9723.9721   -4798.4364    12987.034    6.5054239 
    3550    1089.0926   -9846.4706   -9724.9807   -1968.8697    12982.712    6.5079099 
    3560    1083.9931   -9846.8065   -9725.8854   -963.52022    12977.697    6.5088364 
    3570    1119.5813   -9851.6147   -9726.7237   -277.48181    12972.432    6.5109749 
    3580    1122.5893   -9852.7771   -9727.5506    646.24929    12967.197    6.5162415 
    3590    1082.8605   -9849.1198    -9728.325    1925.3944    12962.358     6.523981 
    3600    1054.0621   -9846.5677   -9728.9855    3328.3288    12958.368    6.5311738 
    3610    1050.7247   -9846.6895   -9729.4796     3503.386    12955.659     6.536141 
    3620    1089.1508   -9851.3502   -9729.8537    1773.2672    12954.258    6.5390606 
    3630    1095.9887   -9852.4055   -9730.1463   -589.20903    12953.518    6.5407057 
    3640    1101.5232   -9853.2735    -9730.397   -1192.8072    12952.633    6.5416318 
    3650    1073.1648    -9850.299   -9730.5859    399.91819    12951.401    6.5425047 
    3660    1056.2605   -9848.5021   -9730.6747    3141.8098    12950.398    6.5430012 
    3670    1070.3789   -9850.0385   -9730.6361    3409.5941    12950.513    6.5433883 
    3680    1066.0932    -9849.393   -9730.4687    1669.0049    12951.851    6.5445453 
    3690    1072.4386   -9849.8108   -9730.1787   -111.97913     12953.78    6.5471057 
    3700    1100.4919   -9852.5272   -9729.7657   -949.08603    12955.658    6.5519078 
    3710    1145.8893   -9857.1077    -9729.282   -1996.4687    12957.122    6.5592686 
    3720     1109.774   -9852.5704   -9728.7734    298.31106    12957.954    6.5698737 
    3730    1065.1566   -9847.0576   -9728.2377    2438.0392    12958.879    6.5846279 
    3740       1094.6   -9849.7235   -9727.6193     1467.603    12960.583    6.6026143 
    3750    1103.7408   -9850.0532   -9726.9293    346.54667    12962.792    6.6205635 
    3760    1085.2248   -9847.2714   -9726.2129   -222.92601      12965.1     6.634842 
    3770    1086.6126   -9846.6599   -9725.4466     -830.753    12967.298    6.6450656 
    3780    1133.6589   -9851.0658   -9724.6045   -3201.1068    12969.071    6.6550727 
    3790    1153.0086   -9852.3679    -9723.748   -4046.4557    12969.689    6.6687719 
    3800     1140.166   -9850.1398   -9722.9526   -4010.5571    12968.812    6.6862484 
    3810     1103.562   -9845.2993   -9722.1953   -2262.7704    12966.521    6.7035995 
    3820    1092.7744   -9843.3009   -9721.4003   -434.30725    12963.442    6.7164478 
    3830    1131.0181   -9846.7119   -9720.5451    -420.6094    12960.189    6.7235916 
    3840    1118.0195   -9844.3879   -9719.6711    428.07994    12956.881     6.726863 
    3850    1127.4612   -9844.5908   -9718.8209     1188.224    12953.779     6.727023 
    3860    1149.5889   -9846.2262   -9717.9878    1832.8459    12951.166    6.7229593 
    3870    1133.4094   -9843.6501   -9717.2166    2397.2029    12949.281    6.7132199 
    3880    1159.9911   -9845.9253   -9716.5266    2148.6142     12948.29    6.6983827 
    3890    1155.2961   -9844.7821   -9715.9071    3158.8375    12948.175    6.6816051 
    3900    1145.2296    -9843.129    -9715.377    3818.1397    12949.241    6.6646031 
    3910    1128.8504   -9840.8094   -9714.8844    2736.7679    12951.644    6.6466685 
    3920    1111.8203   -9838.4044   -9714.3792    2002.0012    12955.065      6.62539 
    3930    1161.5639   -9843.3982    -9713.824   -72.671665    12959.124    6.6002305 
    3940    1206.0466   -9847.8278   -9713.2915   -2130.7995    12963.097    6.5746444 
    3950    1197.5762   -9846.5004   -9712.9089   -3968.3518    12966.232    6.5526316 
    3960    1156.4037   -9841.6956    -9712.697   -4866.4359    12967.876    6.5361018 
    3970    1148.7454   -9840.7528   -9712.6085   -4315.2757    12967.734    6.5237872 
    3980    1145.3575   -9840.3527   -9712.5863   -2576.0588    12966.023    6.5123474 
    3990     1195.751   -9846.0583   -9712.6705   -1040.0681    12963.357    6.4987209 
    4000    1183.1452   -9844.8731   -9712.8914    374.38356    12960.342    6.4839237 
    4010    1174.0984   -9844.2225   -9713.2501    261.04121    12957.462    6.4696811 
    4020    1179.3352   -9845.2749   -9713.7183   -2123.6139    12954.625    6.4572698 
    4030    1164.8208   -9844.2228   -9714.2853   -2193.1174    12951.138    6.4468238 
    4040    1170.0127   -9845.4624   -9714.9457   -1079.5308    12946.947    6.4371652 
    4050    1175.7294    -9846.873   -9715.7187   -1224.7951    12942.373    6.4274103 
    4060    1131.8197   -9842.8352    -9716.579   -1157.0951    12937.407    6.4154902 
    4070    1116.9205   -9842.0169   -9717.4227   -462.64166    12932.121    6.3986275 
    4080    1177.2937   -9849.6413   -9718.3124   -1858.0392    12926.649    6.3775954 
    4090    1173.1149   -9850.1669   -9719.3042   -693.25252    12920.682     6.355634 
    4100    1173.6123   -9851.3214   -9720.4032   -41.993748    12914.512    6.3341912 
    4110     1146.281   -9849.4245   -9721.5552    1314.1845    12908.434    6.3140125 
    4120    1124.9085   -9848.1539   -9722.6687    2877.5473     12902.93    6.2942558 
    4130    1164.2313   -9853.6727   -9723.8009    2750.6231    12898.519    6.2736426 
    4140    1135.4761   -9851.6401   -9724.9761    3725.8626    12895.242    6.2529122 
    4150    1095.7662   -9848.3269   -9726.0925    4502.9592    12893.381     6.232881 
    4160     1103.716   -9850.2304   -9727.1092    3216.9143    12893.144    6.2153584 
    4170    1121.5129   -9853.1571   -9728.0506    1924.6633    12894.122      6.20249 
    4180    1130.2003   -9855.0446   -9728.9691    525.38233    12895.778    6.1952259 
    4190    1110.1827   -9853.7067   -9729.8641    1181.0034    12897.684    6.1941962 
    4200      1098.06   -9853.1842   -9730.6939    1213.3921    12899.981    6.1994834 
    4210    1106.8465   -9854.9347   -9731.4643   -371.60461    12902.638    6.2087124 
    4220    1107.8593   -9855.7881   -9732.2047   -1501.6017    12905.154    6.2176076 
    4230    1100.1947   -9855.6445   -9732.9162   -3085.2143    12907.057    6.2232009 
    4240    1094.2423   -9855.6383   -9733.5739   -4989.6652    12907.798     6.224731 
    4250    1105.4487   -9857.4798   -9734.1654   -7418.3151    12906.664    6.2230859 
    4260    1118.0667   -9859.4277   -9734.7057   -7821.4375    12902.868    6.2194253 
    4270    1110.0758   -9859.0534   -9735.2228   -4533.6668    12896.367    6.2140949 
    4280    1096.1225   -9857.9611    -9735.687   -258.54345    12888.299    6.2069119 
    4290    1107.6674   -9859.6426   -9736.0806    2978.6886    12880.204    6.1977731 
    4300     1071.254    -9855.888    -9736.388    5409.4963    12873.279    6.1870886 
    4310    1048.9287    -9853.579   -9736.5694     5951.154     12868.36    6.1744324 
    4320    1079.1069   -9856.9955   -9736.6195    4294.8292    12865.626    6.1598084 
    4330    1077.2982   -9856.7442   -9736.5699    3454.6564    12864.552     6.144211 
    4340    1075.7387   -9856.4344   -9736.4341    2295.7658     12864.75    6.1277867 
    4350    1093.4119    -9858.182   -9736.2103   -33.009313    12865.748    6.1092593 
    4360    1087.8545   -9857.2624   -9735.9106   -2833.2294    12866.703    6.0861754 
    4370    1097.4646   -9857.9889    -9735.565   -5003.3653    12866.639    6.0562431 
    4380    1091.3358   -9856.9297   -9735.1895   -4786.7081    12864.799     6.019282 
    4390    1076.0768   -9854.7998   -9734.7618   -2871.9276     12861.27    5.9766254 
    4400    1117.4943   -9858.8991   -9734.2409    -2399.061    12856.687    5.9316476 
    4410    1124.8285   -9859.1112   -9733.6349   -927.21196    12851.331    5.8890134 
    4420    1122.3488    -9858.218   -9733.0184    996.31004    12845.712    5.8501017 
    4430    1119.1899    -9857.237   -9732.3897    3276.7283    12840.544    5.8135289 
    4440    1094.1877   -9853.7572   -9731.6989    5490.4291    12836.653    5.7792963 
    4450    1106.2164   -9854.3188   -9730.9187    5215.7352     12834.73    5.7494252 
    4460    1107.1644   -9853.5834   -9730.0776     4182.158    12834.723    5.7255748 
    4470    1107.7751   -9852.8063   -9729.2324    3305.0158    12836.251    5.7059871 
    4480    1110.9832   -9852.3132   -9728.3814    2445.7812    12838.963    5.6874994 
    4490    1097.7288   -9849.9791   -9727.5258    1492.1326    12842.537    5.6689479 
    4500    1097.4639   -9849.0723   -9726.6485     462.9683    12846.613    5.6504578 
    4510    1127.0156   -9851.4631   -9725.7428   -1843.3344    12850.773    5.6326846 
    4520     1129.471   -9850.8331   -9724.8389   -3655.0377    12854.233    5.6164529 
    4530    1111.8755   -9848.0128   -9723.9815   -4316.1767    12856.367    5.6012974 
    4540    1149.2342   -9851.3346   -9723.1358   -6650.9852    12856.835    5.5858959 
    4550    1153.9032   -9851.0367   -9722.3171   -7474.1233    12854.922    5.5698696 
    4560    1114.3594   -9845.8865   -9721.5781    -6272.938    12850.371     5.553892 
    4570    1143.7291   -9848.4686   -9720.8839   -7288.1727    12843.485    5.5389082 
    4580    1135.4518   -9846.8748   -9720.2134   -6756.0035    12834.077    5.5240165 
    4590    1166.7709   -9849.7551   -9719.6001   -5108.9372    12822.343    5.5062125 
    4600    1199.5694   -9852.8668    -9719.053   -1078.3123    12808.972    5.4861435 
    4610    1140.4383     -9845.81   -9718.5924    4713.7197    12795.444    5.4672304 
    4620    1140.1724   -9845.3722   -9718.1843    7330.3829      12783.7    5.4505471 
    4630     1185.724   -9850.1039   -9717.8346     7752.263    12774.686    5.4362147 
    4640    1165.8074   -9847.6463   -9717.5988    9310.9883     12768.63    5.4250568 
    4650    1180.7572   -9849.2189   -9717.5036    10716.847    12765.997     5.416536 
    4660    1159.1222   -9846.8367   -9717.5349    12559.992     12767.31    5.4112909 
    4670     1165.569   -9847.7144   -9717.6934    11590.146    12773.078     5.410745 
    4680    1195.0992   -9851.2994   -9717.9843    7999.9515    12782.897    5.4152779 
    4690    1144.8142   -9846.0927    -9718.387    6811.6414    12795.636    5.4231281 
    4700    1145.2745   -9846.6055   -9718.8484    3595.1554    12810.674    5.4316488 
    4710     1160.005   -9848.7266   -9719.3263   -1885.9626    12826.815    5.4399953 
    4720    1142.2768   -9847.2386   -9719.8159   -6822.2051    12842.151    5.4469597 
    4730    1139.1375   -9847.4113   -9720.3388   -11361.803    12854.848     5.449765 
    4740    1103.3215   -9843.9338   -9720.8566   -14316.699    12863.327    5.4457514 
    4750    1152.4809    -9849.979    -9721.418   -18965.471    12866.379    5.4328234 
    4760    1150.9394   -9850.4862   -9722.0972   -19499.465    12862.572    5.4124687 
    4770    1139.5216   -9850.0105   -9722.8952    -16196.63    12851.764    5.3876909 
    4780    1178.2918   -9855.2433    -9723.803   -12633.888    12835.135    5.3604195 
    4790    1136.2573   -9851.5246   -9724.7733   -6577.9844    12814.172    5.3315235 
    4800    1089.7547   -9847.1815   -9725.6177    598.39781    12791.145     5.299891 
    4810    1132.9101   -9852.6963   -9726.3185    5087.6857    12768.558    5.2647437 
    4820    1123.8838   -9852.3037   -9726.9327    9764.3779    12748.144    5.2277209 
    4830    1098.2257   -9849.9724   -9727.4637    13270.997    12731.506    5.1907437 
    4840    1124.8439   -9853.4584   -9727.9804    14179.221    12719.809    5.1550095 
    4850    1098.9315   -9851.0853   -9728.4979    14391.719    12713.365    5.1220263 
    4860    1120.3981   -9854.0058   -9729.0237    13199.763    12712.127    5.0936079 
    4870    1151.4748     -9858.08   -9729.6313    12054.645    12715.637    5.0730211 
    4880    1107.5054   -9853.8619    -9730.318    12699.846    12723.493     5.062221 
    4890    1128.8954    -9856.955    -9731.025    10811.509    12735.719    5.0592364 
    4900    1140.6165   -9858.9445   -9731.7071    6283.3782    12751.601    5.0618246 
    4910     1090.611   -9853.9919   -9732.3326    2953.1104    12769.633    5.0677111 
    4920    1076.6745   -9852.9344   -9732.8297   -2269.2284    12788.454    5.0746339 
    4930    1097.9447   -9855.6409   -9733.1635   -9144.9176    12806.153    5.0823307 
    4940    1075.2331   -9853.3035   -9733.3596   -13521.111    12820.373    5.0906002 
    4950    1092.1432    -9855.317   -9733.4867   -15456.621    12829.554    5.0968327 
    4960    1125.8314   -9859.2071   -9733.6189   -17785.601    12832.936    5.0988231 
    4970    1092.4036   -9855.6508   -9733.7915   -16938.264    12829.894    5.0956042 
    4980    1088.5933   -9855.4042     -9733.97   -14219.928     12820.78    5.0868863 
    4990    1089.9557   -9855.6699   -9734.0837   -9717.2417    12806.694    5.0743163 
    5000     1091.887   -9855.8901   -9734.0884    -5362.204    12789.297     5.060843 
Loop time of 2580.83 on 16 procs for 3000 steps with 864 atoms

Performance: 0.100 ns/day, 238.966 hours/ns, 1.162 timesteps/s
96.7% CPU use with 16 MPI tasks x 1 OpenMP threads

MPI task timing breakdown:
Section |  min time  |  avg time  |  max time  |%varavg| %total
---------------------------------------------------------------
Pair    | 1284.1     | 2089.9     | 2543.6     | 826.8 | 80.98
Bond    | 0.00019693 | 0.00077817 | 0.0023568  |   0.0 |  0.00
Neigh   | 0.037843   | 0.058957   | 0.073663   |   5.5 |  0.00
Comm    | 35.016     | 480.46     | 1267.1     |1682.0 | 18.62
Output  | 0.1884     | 0.19127    | 0.23291    |   2.5 |  0.01
Modify  | 1.4937     | 10.161     | 29.438     | 357.8 |  0.39
Other   |            | 0.01333    |            |       |  0.00

Nlocal:        54.0000 ave          65 max          34 min
Histogram: 1 0 1 2 2 2 0 0 2 6
Nghost:        642.188 ave         761 max         519 min
Histogram: 6 2 0 0 0 0 0 0 0 8
Neighs:         0.00000 ave           0 max           0 min
Histogram: 16 0 0 0 0 0 0 0 0 0
FullNghs:      3443.12 ave        4406 max        2044 min
Histogram: 1 2 1 2 2 0 0 0 4 4

Total # of neighbors = 55090
Ave neighs/atom = 63.761574
Ave special neighs/atom = 0.0000000
Neighbor list builds = 300
Dangerous builds = 300
unfix   2

fix     3 all npt temp 1125.0 1125.0 $(100.0*dt) aniso 1.01325 1.01325 $(1000.0*dt)
fix     3 all npt temp 1125.0 1125.0 0.10000000000000000555 aniso 1.01325 1.01325 $(1000.0*dt)
fix     3 all npt temp 1125.0 1125.0 0.10000000000000000555 aniso 1.01325 1.01325 1
run     20000
Per MPI rank memory allocation (min/avg/max) = 8.898 | 8.906 | 8.912 Mbytes
Step Temp PotEng TotEng Press Volume c_msd[4] 
    5000     1091.887   -9855.8901   -9734.0884    -5362.204    12789.297     5.060843 
    5010    1123.1388   -9859.3752   -9734.0873   -7167.4025    12788.201    5.0620805 
    5020    1098.9667   -9856.6691   -9734.0777   -6355.4386    12784.598    5.0649795 
    5030    1084.8151   -9855.0419   -9734.0291   -5624.3863    12778.664    5.0686925 
    5040    1112.3434   -9857.9889   -9733.9053   -4664.6261    12770.681    5.0715346 
    5050    1102.0197   -9856.6357   -9733.7038   -904.05498    12761.083    5.0719631 
    5060     1096.887   -9855.7779   -9733.4185    2488.8412    12751.135    5.0699238 
    5070    1077.1861   -9853.1881   -9733.0263    5295.9495    12742.088    5.0672783 
    5080    1058.0853   -9850.5194   -9732.4884    8436.5988    12735.008    5.0648121 
    5090    1131.9249   -9858.0746   -9731.8067    8756.9872    12730.876    5.0618491 
    5100     1117.474   -9855.6929    -9731.037    10563.071    12729.973    5.0588592 
    5110    1091.9079   -9852.0659   -9730.2619     10887.19    12732.855    5.0564863 
    5120    1154.6722   -9858.2306   -9729.4252    7278.9232    12739.567     5.056531 
    5130    1140.7107   -9855.8191   -9728.5711    5021.5725    12748.989     5.060652 
    5140     1109.296   -9851.5073   -9727.7637    1623.9817    12760.228    5.0664248 
    5150    1148.1154   -9855.0078   -9726.9338   -3986.8324    12772.011    5.0705426 
    5160    1126.2848   -9851.7462   -9726.1075   -7179.2711    12782.436    5.0734994 
    5170    1114.3796   -9849.6625   -9725.3518   -8359.1267     12790.33    5.0775423 
    5180    1145.7175   -9852.4462   -9724.6397    -9837.069    12795.178    5.0848926 
    5190    1148.9863   -9852.1887   -9724.0175    -9689.636    12796.493    5.0956503 
    5200    1123.5391   -9848.8441   -9723.5116   -7552.2928    12794.325    5.1069202 
    5210    1140.6693   -9850.3464    -9723.103   -5318.4033    12789.403    5.1155542 
    5220    1151.3531   -9851.2141    -9722.779   -2196.8339     12782.57    5.1214688 
    5230    1170.1004   -9853.0928   -9722.5663    694.38089    12774.927    5.1275462 
    5240    1173.0453    -9853.343    -9722.488    3208.9134    12767.523    5.1367657 
    5250    1126.1245   -9848.1214   -9722.5005    4571.3453    12761.243     5.149001 
    5260    1131.0052   -9848.7095   -9722.5442    2916.4166    12756.519     5.162496 
    5270     1145.303   -9850.3599   -9722.5996    2156.9824    12752.901    5.1767833 
    5280    1142.9791   -9850.1646   -9722.6636    2352.7355    12750.104    5.1911982 
    5290    1134.9501   -9849.3294    -9722.724    2667.4221    12748.185    5.2039483 
    5300    1139.1727   -9849.8586   -9722.7821    3019.9179    12747.247    5.2124588 
    5310    1160.7575   -9852.3503    -9722.866    2956.1643    12747.397    5.2157345 
    5320    1151.2989   -9851.4396   -9723.0105    2669.6431     12748.63    5.2158873 
    5330     1133.376   -9849.6347   -9723.2049    2066.9128    12750.842    5.2157834 
    5340    1124.0004   -9848.8053   -9723.4214    516.28504    12753.773    5.2170469 
    5350    1101.4946   -9846.4976   -9723.6242    -216.5846    12756.938    5.2181933 
    5360    1128.6393   -9849.7041   -9723.8027   -1213.1164    12760.021    5.2156867 
    5370    1163.8274   -9853.8333   -9724.0066   -1859.6784    12762.685    5.2094868 
    5380    1142.0463   -9851.6642   -9724.2673    -2401.977    12764.682    5.2027755 
    5390    1118.6569    -9849.321   -9724.5331   -2523.0271    12765.847    5.1971621 
    5400    1129.2985   -9850.7483   -9724.7734   -2254.3391    12766.108    5.1925794 
    5410    1115.8413     -9849.44   -9724.9662    -1330.885    12765.565    5.1883795 
    5420    1148.0735   -9853.2117   -9725.1424    -1334.713    12764.501    5.1825723 
    5430    1136.2366   -9852.0929    -9725.344   -822.88265     12762.99    5.1747187 
    5440    1100.9305   -9848.3609   -9725.5504   -472.34256    12761.193    5.1669472 
    5450    1141.5079   -9853.0839    -9725.747   -2794.6092    12759.133    5.1625901 
    5460    1152.2179   -9854.5198   -9725.9881     -3687.88    12756.121    5.1627785 
    5470    1140.0178    -9853.484   -9726.3133   -1201.2728    12751.885    5.1654191 
    5480    1144.9124   -9854.4179   -9726.7012    1171.1243    12747.215     5.168297 
    5490    1147.4765   -9855.1761   -9727.1733    1399.7658    12742.897    5.1705993 
    5500    1122.2163   -9852.8781   -9727.6932    1584.4512    12739.092    5.1737157 
    5510    1129.9876   -9854.2878   -9728.2359    494.93384    12735.781    5.1787937 
    5520    1090.0381   -9850.3499   -9728.7545    2833.4904    12732.782     5.185883 
    5530    1079.3881   -9849.5776   -9729.1703    5537.3218    12730.838     5.194783 
    5540    1150.2688   -9857.8675   -9729.5533     3827.429    12730.745    5.2059005 
    5550    1151.5064   -9858.4754   -9730.0231    2224.0757    12732.062    5.2200767 
    5560    1118.5842   -9855.3681   -9730.5884    250.13397    12734.176      5.23544 
    5570    1104.9996   -9854.4559   -9731.1915   -3159.7138    12736.311    5.2480284 
    5580    1103.2821   -9854.9067   -9731.8339   -4506.2124     12737.38    5.2563986 
    5590     1111.102   -9856.4887   -9732.5436   -3730.6577    12736.872    5.2631616 
    5600    1110.1602   -9857.1522   -9733.3122   -487.15079      12735.1    5.2714844 
    5610    1106.0448   -9857.5076   -9734.1266    2028.4529    12733.118    5.2815396 
    5620    1091.9625   -9856.7831    -9734.973    2715.3441    12731.823    5.2908153 
    5630    1084.0617   -9856.7593   -9735.8306    1690.4276    12731.461    5.2968403 
    5640    1060.6243   -9854.9364   -9736.6221    1685.6029    12731.777    5.2996111 
    5650    1084.7879   -9858.3375   -9737.3278   -667.45932     12732.63    5.3012513 
    5660    1136.7168   -9864.8414   -9738.0389   -4773.8507    12733.178    5.3042447 
    5670       1109.1   -9862.5565   -9738.8347   -4296.4774    12732.188    5.3092216 
    5680    1065.1531   -9858.4675    -9739.648    -2580.828    12729.674    5.3146737 
    5690    1076.7336   -9860.5322   -9740.4209   -1520.4039    12726.204    5.3195782 
    5700    1086.3845   -9862.3461   -9741.1583   -897.51294    12722.155    5.3246892 
    5710    1082.8936   -9862.6882   -9741.8898     484.6559    12717.805    5.3299799 
    5720    1070.7928   -9862.0291   -9742.5805    1952.8931    12713.624    5.3340443 
    5730    1076.5104   -9863.2971   -9743.2107    2278.6245    12710.087    5.3361579 
    5740    1054.2572   -9861.3487   -9743.7447    2442.2806    12707.362    5.3374329 
    5750    1050.5216   -9861.3404   -9744.1531    2074.7378    12705.485    5.3390927 
    5760    1100.2402   -9867.2041   -9744.4706    1399.4488    12704.353    5.3422866 
    5770    1087.2476    -9866.029   -9744.7449    2630.7362    12703.784    5.3480674 
    5780    1008.1534   -9857.3676   -9744.9066    3798.4168    12704.148     5.355948 
    5790    1040.6457   -9860.9781   -9744.8925    167.15048     12705.71    5.3651018 
    5800    1067.4361   -9863.7254   -9744.6513   -2226.0594     12707.39    5.3772805 
    5810    1060.6747   -9862.5243   -9744.2044   -1595.4279    12708.372    5.3926438 
    5820    1077.3781   -9863.6906   -9743.5075   -1347.5585    12708.765    5.4070716 
    5830    1068.9067   -9861.7368   -9742.4986   -995.11742    12708.679    5.4154577 
    5840    1039.9493   -9857.1896   -9741.1817   -1012.8808    12708.228    5.4156719 
    5850     1067.277   -9858.6392   -9739.5828   -1688.9252    12707.383    5.4104814 
    5860    1094.4666    -9859.931   -9737.8416   -535.47671    12705.969    5.4058684 
    5870    1054.2765   -9853.8473   -9736.2412    3915.8172    12704.463    5.4053715 
    5880    1091.8762   -9856.6649   -9734.8644    6441.0329    12704.302    5.4079881 
    5890    1146.1347   -9861.5213   -9733.6682    6495.3193    12706.403    5.4134054 
    5900    1091.9574   -9854.5437   -9732.7342    6237.9875     12710.88    5.4214981 
    5910    1110.6272    -9855.876   -9731.9838    1889.9811    12717.472    5.4294481 
    5920    1099.9054   -9853.9556   -9731.2595   -2276.1137     12724.81    5.4341712 
    5930     1109.948   -9854.3886   -9730.5723   -5545.0927    12731.384    5.4338638 
    5940    1145.0259   -9857.6738   -9729.9444   -7435.6083    12736.012    5.4316665 
    5950    1099.7171    -9852.083   -9729.4079   -5737.4117    12738.096    5.4318952 
    5960    1104.9003   -9852.1595   -9728.9062   -5302.0026    12738.075     5.434825 
    5970    1157.7552   -9857.5385   -9728.3891   -6949.1627    12736.062    5.4399507 
    5980    1110.9187   -9851.8242   -9727.8996   -6662.9566    12731.616    5.4458274 
    5990    1147.8056   -9855.5012   -9727.4617   -7114.7808     12724.69    5.4489353 
    6000    1164.0071   -9856.9004   -9727.0537   -3975.9152    12715.255    5.4486512 
    6010    1093.4218   -9848.6435   -9726.6707      2511.38    12704.456     5.445654 
    6020    1130.4254   -9852.3469   -9726.2462    5472.6146    12694.387    5.4406532 
    6030    1192.0831   -9858.7899   -9725.8112    6162.9009    12686.173    5.4364387 
    6040     1153.223   -9854.1304   -9725.4867    7669.3348    12680.165    5.4344453 
    6050    1131.7282   -9851.5035   -9725.2575    8349.6115     12676.85    5.4338793 
    6060    1168.0045   -9855.3833   -9725.0907    7894.1721    12676.486    5.4350973 
    6070    1163.0312   -9854.7552   -9725.0173    7003.7364    12678.945    5.4399901 
    6080    1147.9531   -9853.1017   -9725.0458    5399.7571    12683.939    5.4498717 
    6090    1149.1871   -9853.3263   -9725.1327    813.64955    12690.824    5.4640944 
    6100    1154.1716   -9854.0238   -9725.2742   -4242.0148    12698.043    5.4801697 
    6110    1140.7484   -9852.7183   -9725.4661   -5470.1523    12703.925    5.4956489 
    6120    1145.1736   -9853.4661   -9725.7203   -3780.3517    12707.978    5.5087893 
    6130    1134.9878   -9852.6079   -9725.9983   -3031.1904    12710.665    5.5187211 
    6140    1155.6472   -9855.2286   -9726.3144    -3768.373    12712.233    5.5259501 
    6150    1128.2792   -9852.5432    -9726.682   -4159.5684    12712.451    5.5330575 
    6160    1100.5023   -9849.7992   -9727.0365   -4152.5042    12711.202    5.5408065 
    6170    1152.9111   -9855.9946   -9727.3856   -4829.9305    12708.433    5.5490084 
    6180    1157.0768   -9856.8954   -9727.8218   -3113.2165    12703.987    5.5576123 
    6190     1134.724   -9854.9083   -9728.3281   -1118.8157    12698.408    5.5632012 
    6200    1186.2753   -9861.2873   -9728.9565   -1885.5146    12692.295    5.5633753 
    6210    1122.2949   -9854.8895   -9729.6958   -427.51579    12685.547    5.5607284 
    6220    1072.5682   -9850.0641   -9730.4175    2319.0928    12678.633    5.5563693 
    6230    1128.6603   -9856.9913   -9731.0875    3153.8703    12672.431    5.5502867 
    6240    1161.1383   -9861.2926   -9731.7659    3777.3714    12667.328    5.5445064 
    6250    1143.0376   -9859.9741   -9732.4666    4776.2335     12663.56    5.5411628 
    6260    1132.5708   -9859.5059   -9733.1659    3763.2112    12661.412    5.5409972 
    6270    1097.0434   -9856.1744   -9733.7976    2667.8757    12660.615    5.5439789 
    6280    1099.6777   -9857.0004   -9734.3297    2195.8661    12660.794    5.5480536 
    6290    1122.4793   -9860.0164   -9734.8021    1882.7352    12661.778    5.5499312 
    6300    1111.2983   -9859.2167   -9735.2497    2575.4627    12663.507    5.5468575 
    6310    1125.0231   -9861.1997   -9735.7017    1074.5599    12666.071    5.5384144 
    6320    1107.8724   -9859.7273   -9736.1425    594.60425    12669.122    5.5273339 
    6330     1106.646   -9860.0038   -9736.5558   -723.96045    12672.393    5.5158535 
    6340    1104.7146   -9860.1778   -9736.9452   -394.44285     12675.52    5.5052544 
    6350    1050.3634   -9854.4223   -9737.2527    988.43955    12678.583    5.4970231 
    6360    1060.3639   -9855.7013   -9737.4161   -96.917658     12681.96    5.4925059 
    6370    1101.8749   -9860.3494   -9737.4336    -3941.395    12685.235    5.4927471 
    6380    1100.6917   -9860.1227   -9737.3389   -6761.5249    12687.149    5.4962736 
    6390    1113.1601   -9861.3413   -9737.1666   -7603.8042    12686.698    5.4992312 
    6400    1101.3432   -9859.7956   -9736.9391   -5232.2174    12683.626     5.499175 
    6410    1065.2238   -9855.4553    -9736.628    -1746.197    12678.699    5.4954121 
    6420    1083.8485   -9857.1097   -9736.2047    -248.7302     12673.03    5.4878226 
    6430    1090.0835   -9857.2918   -9735.6913    832.85632    12667.219    5.4779118 
    6440    1109.6808   -9858.9268   -9735.1402    731.58435    12661.614    5.4678519 
    6450    1134.3225   -9861.0996   -9734.5642    817.85651    12656.226    5.4593726 
    6460    1096.7441   -9856.2885    -9733.945    1310.5558    12651.099    5.4524017 
    6470    1121.9657   -9858.4038   -9733.2468   -202.55708    12646.335    5.4459924 
    6480    1151.4572   -9860.9301   -9732.4833    -2437.593    12641.427    5.4413947 
    6490    1064.1063   -9850.4011   -9731.6985   -701.82986    12635.744    5.4395648 
    6500    1108.1444   -9854.4505   -9730.8353    440.46569    12629.747    5.4381177 
    6510     1179.435     -9861.43   -9729.8623    388.22829    12623.813    5.4350848 
    6520    1121.3824    -9854.061   -9728.9691    2510.8247    12618.058    5.4293156 
    6530    1149.8231   -9856.4559   -9728.1914    1452.7263    12613.025    5.4194617 
    6540    1169.9962   -9858.0304   -9727.5156    1142.1228    12608.518    5.4075429 
    6550    1127.2272   -9852.7456   -9727.0017    3260.1913    12604.481    5.3960018 
    6560    1138.0612   -9853.5728   -9726.6204    4371.3191    12601.524    5.3856462 
    6570    1120.6175   -9851.3421   -9726.3356     6858.561    12600.135     5.377624 
    6580    1114.4572   -9850.4488   -9726.1295    7916.1344    12601.116    5.3706355 
    6590    1163.2155   -9855.7406   -9725.9822    5153.1846    12604.804    5.3624795 
    6600    1197.9139   -9859.5781    -9725.949    2162.1742    12610.359    5.3536075 
    6610    1136.5438    -9852.829   -9726.0458    2927.6934    12616.888    5.3466852 
    6620    1100.1698   -9848.8711   -9726.1455    2425.4093    12624.493    5.3427469 
    6630    1158.2488    -9855.404   -9726.1996    -1105.363     12632.93    5.3401602 
    6640    1120.4225   -9851.1762   -9726.1914   -2668.0397    12641.133    5.3367604 
    6650    1139.9918   -9853.3055   -9726.1377   -6674.4043    12648.362    5.3304721 
    6660    1186.4736    -9858.457   -9726.1041   -13008.504    12653.175    5.3233248 
    6670    1131.7593   -9852.4244   -9726.1749   -14719.186    12653.519    5.3185781 
    6680    1090.7626   -9847.9861   -9726.3099   -13424.034    12648.686     5.315686 
    6690    1116.0138   -9850.9496   -9726.4566   -13184.538    12638.985    5.3125166 
    6700    1149.6926   -9854.8988   -9726.6489   -12323.684    12624.548    5.3079015 
    6710    1136.9048   -9853.7325   -9726.9091   -8125.0476     12605.74    5.3016711 
    6720    1103.9847   -9850.2701    -9727.119   -1770.3746    12584.038    5.2934092 
    6730     1160.604   -9856.7397   -9727.2725    1163.8975    12561.501     5.281707 
    6740    1165.8785   -9857.4842   -9727.4287     4869.769     12539.35     5.266554 
    6750    1177.6718   -9859.0044   -9727.6333    7474.5185      12518.8      5.24772 
    6760    1161.6966   -9857.5048   -9727.9158    9827.9233     12500.81    5.2266219 
    6770    1130.5873   -9854.3474   -9728.2287     13270.49    12486.279    5.2068094 
    6780    1150.7131   -9856.9645   -9728.6007    13888.246    12476.241    5.1908515 
    6790     1148.837   -9857.2215    -9729.067    15283.647    12471.041     5.179715 
    6800    1154.9233   -9858.4875   -9729.6541    15274.445    12471.087    5.1725362 
    6810    1143.3497   -9857.9064    -9730.364     14578.32    12476.443    5.1683347 
    6820    1112.0029   -9855.1867   -9731.1412    13216.449    12486.891    5.1656306 
    6830    1128.6547   -9857.8315   -9731.9283    10382.276    12501.988     5.162918 
    6840    1141.3602   -9860.0286   -9732.7082     5188.487    12520.718    5.1592771 
    6850    1120.4847   -9858.4364   -9733.4446   -497.33709    12541.374     5.153188 
    6860    1096.5912   -9856.3761   -9734.0497   -8412.5146    12561.885    5.1439559 
    6870     1093.342   -9856.4516   -9734.4877   -16713.392    12579.493    5.1329206 
    6880    1084.1558   -9855.7644   -9734.8252   -22786.133    12591.305    5.1225325 
    6890    1085.2063   -9856.1739   -9735.1175   -25380.623    12595.186    5.1145071 
    6900    1090.6856   -9857.0827   -9735.4151   -24053.109    12590.196    5.1088723 
    6910    1098.6225    -9858.256    -9735.703   -20584.393     12576.78    5.1034323 
    6920    1163.0199   -9865.7545   -9736.0178   -18072.948    12556.092    5.0951305 
    6930    1133.3878   -9862.7787   -9736.3476   -12950.984    12529.217     5.083869 
    6940     1073.449   -9856.3222   -9736.5774   -6579.7561    12498.022    5.0707044 
    6950     1101.643   -9859.5296   -9736.6396   -1182.8611    12464.773    5.0574533 
    6960     1145.309   -9864.3378   -9736.5769    4365.4548    12431.476    5.0457936 
    6970    1121.7504   -9861.5667   -9736.4337    11031.179    12400.139    5.0348609 
    6980    1105.1217   -9859.4971   -9736.2191    16610.537    12372.977     5.022395 
    6990    1118.9288   -9860.7749   -9735.9567    20140.401    12351.813    5.0077704 
    7000    1168.2715    -9866.084   -9735.7615    21061.393    12337.712    4.9924418 
    7010    1174.9185   -9866.8163   -9735.7524    19343.746    12330.848     4.979453 
    7020    1133.8767   -9862.4346   -9735.9489    17548.034    12330.612    4.9699847 
    7030    1112.7235   -9860.3608   -9736.2348    13269.312    12336.209    4.9624429 
    7040    1155.4742   -9865.4569    -9736.562    6759.4407    12346.126    4.9566291 
    7050    1126.0643   -9862.5338   -9736.9197    2652.4103    12358.266    4.9535975 
    7060    1130.8022   -9863.4512   -9737.3085   -2188.7084     12371.09    4.9515066 
    7070    1147.9565    -9865.797   -9737.7407   -5512.3488    12383.036    4.9495588 
    7080    1099.2643    -9860.882   -9738.2574   -7091.2261    12392.975    4.9483465 
    7090    1075.5053   -9858.8081   -9738.8339   -11112.539    12400.251    4.9472707 
    7100    1101.1848   -9862.3119   -9739.4731   -16197.122    12403.577    4.9470144 
    7110    1136.1281    -9867.059   -9740.3222   -18961.198    12401.388    4.9501835 
    7120     1092.455   -9863.2908   -9741.4258   -17862.073    12392.932    4.9577676 
    7130    1097.8335   -9865.2171   -9742.7521   -16118.152    12378.597    4.9680501 
    7140    1072.1245   -9863.7558   -9744.1587   -11773.821    12359.214    4.9800076 
    7150    1066.7584   -9864.4778   -9745.4793   -7927.2857    12336.304    4.9917971 
    7160    1103.8478   -9869.8226   -9746.6867   -5910.1018    12311.249    5.0019181 
    7170    1122.2035   -9872.9727   -9747.7892   -2758.4812    12284.911    5.0109892 
    7180    1092.7729   -9870.6346   -9748.7341     2262.421     12258.45    5.0202801 
    7190    1060.7235   -9867.7408   -9749.4155    6881.8285    12233.518    5.0296455 
    7200    1108.8597   -9873.5882   -9749.8932    8296.8786    12211.526    5.0383176 
    7210    1118.7853   -9875.0852    -9750.283    9457.5766    12192.933    5.0471359 
    7220    1070.4171   -9869.9717    -9750.565    10844.872    12178.036    5.0549823 
    7230    1113.1362   -9874.9536   -9750.7816    7531.5027    12166.998    5.0586731 
    7240     1134.935   -9877.5981   -9750.9944     3990.116    12158.768    5.0586342 
    7250    1086.0866    -9872.367   -9751.2124    2632.7624     12152.16    5.0567872 
    7260    1075.3913   -9871.3507   -9751.3892    619.98423     12146.59     5.054191 
    7270    1075.9131   -9871.5148   -9751.4951   -2157.2569    12141.387    5.0532304 
    7280    1093.4944   -9873.5205   -9751.5396   -4572.1107    12135.666    5.0561364 
    7290    1109.7136    -9875.339   -9751.5487   -6123.2743    12128.671    5.0642505 
    7300     1082.887    -9872.307   -9751.5094   -6872.8773     12119.95    5.0773774 
    7310    1128.5216   -9877.3173   -9751.4291    -7877.552    12109.291    5.0946691 
    7320    1112.4999   -9875.4204   -9751.3194   -6082.1946    12096.542    5.1175557 
    7330    1079.8404    -9871.615   -9751.1572   -4433.8315     12082.28     5.145942 
    7340     1127.627   -9876.7287   -9750.9402   -6211.4367    12066.994    5.1787539 
    7350    1085.8786    -9871.813   -9750.6816   -4348.6311    12050.451    5.2168821 
    7360    1092.2322   -9872.1888   -9750.3486   -1960.5547    12033.184    5.2584269 
    7370    1153.4937   -9878.5714   -9749.8975   -850.27336    12015.961     5.303014 
    7380    1157.9972   -9878.6058   -9749.4295    961.13113     11999.21    5.3539935 
    7390    1118.2195   -9873.7155   -9748.9764    4274.7068    11983.574    5.4124776 
    7400    1158.8387   -9877.8122    -9748.542    3195.6488    11969.816    5.4755091 
    7410    1152.4803   -9876.6874   -9748.1265     3701.963    11957.735    5.5410829 
    7420    1136.5485   -9874.5098   -9747.7261    3835.5798     11947.35    5.6053677 
    7430    1184.8358   -9879.5121   -9747.3419    79.487427    11938.537    5.6661922 
    7440    1188.8913    -9879.684   -9747.0614   -3208.3328    11930.196    5.7266008 
    7450    1174.6337   -9877.9789   -9746.9467   -6064.1807    11921.233    5.7889339 
    7460    1175.3915   -9878.1121   -9746.9954   -8922.6076     11910.79    5.8528774 
    7470    1166.8522   -9877.3931    -9747.229   -8951.9824    11898.164    5.9176536 
    7480    1137.1775   -9874.4298   -9747.5759   -8076.4826    11883.384    5.9829161 
    7490    1185.8288    -9880.325    -9748.044   -9064.3069    11866.738    6.0488249 
    7500    1197.5876   -9882.3364   -9748.7437   -10858.508    11848.047    6.1175966 
    7510    1200.0858   -9883.7058   -9749.8344   -13653.152    11826.836    6.1924354 
    7520    1201.1679    -9885.385   -9751.3929   -14052.666    11802.483    6.2768045 
    7530    1194.4857   -9886.6202   -9753.3735   -11877.711    11775.034    6.3727605 
    7540    1220.0997   -9891.7806   -9755.6766   -9403.6769    11745.274    6.4819933 
    7550    1223.9956   -9894.6307   -9758.0922   -5641.8733    11714.131    6.6075338 
    7560    1218.5809   -9896.2193   -9760.2847   -2999.8919    11682.778    6.7499015 
    7570    1233.9407   -9899.8169   -9762.1689   -1909.8141     11652.06    6.9055338 
    7580    1223.6838    -9900.243   -9763.7392    1024.3445    11622.404    7.0697728 
    7590    1194.8506   -9898.2748   -9764.9874    6000.9117    11594.654     7.238504 
    7600    1188.7147   -9898.5914   -9765.9884    9608.2983    11570.111    7.4094982 
    7610    1212.2243   -9902.0985   -9766.8731    13079.223    11549.704    7.5797573 
    7620    1200.6822   -9901.6542   -9767.7163     15988.62    11534.162    7.7436102 
    7630    1165.8525   -9898.6059   -9768.5533    15924.057    11523.995    7.8948431 
    7640    1205.1726   -9903.8926   -9769.4538    12234.021    11518.862    8.0284257 
    7650    1203.4548   -9904.7215   -9770.4743     10064.29    11517.567    8.1426192 
    7660    1137.1982   -9898.3601   -9771.5039    9409.5892    11519.287    8.2365756 
    7670    1160.1494   -9901.9325   -9772.5161    4725.7446    11523.541    8.3103297 
    7680    1152.0526    -9902.043   -9773.5298    -858.2523    11528.954    8.3691629 
    7690    1108.5557   -9898.1465   -9774.4854   -3511.8818    11533.976    8.4187736 
    7700    1126.8959   -9901.0603   -9775.3533   -7294.0819    11537.732    8.4586415 
    7710     1166.262   -9906.3309   -9776.2326   -9853.7342    11539.259    8.4879993 
    7720    1126.4298   -9902.7958   -9777.1409    -8371.361     11537.97    8.5078691 
    7730     1118.251   -9902.7548   -9778.0122   -7587.6749    11534.266    8.5157454 
    7740    1142.8756   -9906.3502   -9778.8607   -7764.1747    11528.475    8.5116386 
    7750    1134.2301   -9906.2421   -9779.7171    -7610.942    11520.619    8.5019283 
    7760    1090.4513   -9902.1648   -9780.5233   -6468.9868    11510.811    8.4911834 
    7770     1091.271   -9902.9538   -9781.2209   -4320.8059    11499.447     8.479689 
    7780    1124.2044   -9907.2364   -9781.8297   -3796.8366    11487.116    8.4664739 
    7790    1147.0021   -9910.3643   -9782.4145   -1206.6653    11474.102    8.4517442 
    7800    1115.3599   -9907.3692   -9782.9491    4400.0345    11461.184    8.4357042 
    7810    1112.3465   -9907.5168   -9783.4329    7273.9945    11449.811    8.4139801 
    7820    1107.4395   -9907.4032   -9783.8667     7590.082    11440.797     8.383139 
    7830    1140.7136   -9911.5514    -9784.303    6437.6955    11434.164    8.3470906 
    7840    1156.9097   -9913.8614   -9784.8064    6990.3965    11429.597    8.3127456 
    7850    1135.1259   -9912.0171   -9785.3921     9411.797     11427.21    8.2832021 
    7860    1129.7764   -9912.0623   -9786.0341    11768.947    11427.591    8.2566457 
    7870    1142.1835   -9914.1209   -9786.7086    12373.634    11431.313    8.2286767 
    7880    1154.9064   -9916.2619   -9787.4304    10668.123     11438.48    8.1965284 
    7890    1139.7075     -9915.31   -9788.1739    7543.2194    11448.566    8.1604855 
    7900    1135.9133   -9915.6204   -9788.9075    3725.6258    11460.617    8.1218839 
    7910    1124.5607   -9915.0722   -9789.6258    1879.9496    11473.563    8.0835916 
    7920    1113.5378   -9914.5306   -9790.3138    1339.7681    11486.841    8.0487548 
    7930    1109.5168   -9914.7351   -9790.9668    61.101763    11500.247    8.0163524 
    7940    1099.6494   -9914.2514   -9791.5839   -2522.1235    11513.393    7.9818164 
    7950    1108.8704   -9915.8694   -9792.1732   -5278.7265    11525.546    7.9438095 
    7960    1114.2335   -9917.0201   -9792.7257   -6872.2749    11535.949    7.9039881 
    7970    1119.2695   -9918.0813   -9793.2251   -7444.5363    11544.164    7.8619734 
    7980    1113.7332   -9917.8992   -9793.6606   -6474.4304    11550.067    7.8158069 
    7990    1098.5385    -9916.559   -9794.0154   -5163.2913    11553.959    7.7660511 
    8000    1088.1864   -9915.6752   -9794.2864   -5828.8338    11556.213    7.7186236 
    8010    1079.4715   -9914.9003   -9794.4836   -6730.4183    11556.687    7.6798582 
    8020    1056.8729   -9912.4818    -9794.586   -5339.8536    11555.242    7.6510991 
    8030    1080.8313   -9915.1643   -9794.5959   -4639.9321    11552.234    7.6296413 
    8040     1100.759   -9917.3125   -9794.5211   -3694.2159    11547.936    7.6122195 
    8050    1101.5635   -9917.2576   -9794.3765   -1893.7572    11542.663    7.5961394 
    8060    1105.9051   -9917.5529   -9794.1876    191.43617    11536.966    7.5819074 
    8070    1090.6344   -9915.6006   -9793.9387    1944.3497    11531.446    7.5713221 
    8080    1125.3673    -9919.165   -9793.6286    3387.8531    11526.614    7.5661353 
    8090    1109.4957    -9917.015   -9793.2491    6659.7548    11522.944    7.5682704 
    8100    1089.5156   -9914.3485   -9792.8114    9404.5427    11521.302    7.5746133 
    8110    1123.9817   -9917.6835   -9792.3017    8564.1056    11522.365    7.5811048 
    8120    1098.4918   -9914.2703   -9791.7318    7872.5852    11525.943    7.5906591 
    8130    1098.6288   -9913.6775   -9791.1238     6777.833    11531.735    7.6072957 
    8140    1106.4238   -9913.8569   -9790.4336    5116.1996    11539.374    7.6313252 
    8150    1085.3774   -9910.7508   -9789.6753    2413.9076    11548.334    7.6583857 
    8160    1149.0887   -9917.0261   -9788.8435   -3494.0929    11557.717    7.6837396 
    8170     1198.831   -9921.7388   -9788.0074   -6989.1513    11565.951    7.7091738 
    8180    1139.7107   -9914.4708   -9787.3343    -7402.783    11572.023    7.7387581 
    8190    1121.9539   -9911.9486    -9786.793   -8046.7501    11575.757    7.7733445 
    8200    1118.3367   -9911.0237   -9786.2715   -8528.7895    11577.057    7.8136783 
    8210    1131.9658   -9912.0544   -9785.7819   -9650.2315      11575.8    7.8600255 
    8220    1160.3551   -9914.7838   -9785.3444   -10307.875    11571.738     7.912789 
    8230    1132.8919   -9911.3521   -9784.9763   -8769.8432    11564.793    7.9709014 
    8240    1155.9493   -9913.6251   -9784.6772   -7726.8925    11555.392    8.0297334 
    8250    1174.0683   -9915.4125   -9784.4434   -5277.7973    11543.966    8.0864664 
    8260    1122.9203   -9909.5264   -9784.2629   -643.55865    11531.313    8.1385015 
    8270    1136.9258   -9910.9145   -9784.0887    1290.5203    11518.683    8.1823865 
    8280    1193.3377   -9917.0692   -9783.9506    1395.3784    11506.679    8.2201248 
    8290    1199.2896   -9917.7335   -9783.9509    1907.6439     11495.35    8.2582879 
    8300    1187.4881   -9916.5978   -9784.1317    5205.9151    11484.913    8.3010619 
    8310    1181.6699   -9916.2672   -9784.4502    8303.2222    11476.234    8.3465223 
    8320    1191.4339   -9917.8452    -9784.939     8460.115    11470.085    8.3912246 
    8330    1145.0217    -9913.297   -9785.5681    10416.099    11466.599    8.4335478 
    8340    1150.2995   -9914.5973   -9786.2797    10754.406    11466.177     8.471112 
    8350    1196.9175   -9920.6303   -9787.1123    8151.9385    11468.801    8.5041599 
    8360    1181.3962   -9919.8648   -9788.0782    7471.8307    11473.792    8.5367141 
    8370    1165.0559   -9919.0816   -9789.1178    7667.8493    11480.881    8.5716637 
    8380    1164.4449   -9920.0614   -9790.1658    6472.9373    11490.035    8.6081196 
    8390    1115.9611   -9915.6038   -9791.1166    3819.5261    11500.864    8.6424407 
    8400    1102.2239    -9914.801   -9791.8463   -1369.7535     11512.54    8.6721067 
    8410    1159.2987   -9921.7178   -9792.3963   -8087.8326    11523.546    8.7000095 
    8420    1131.6906   -9919.0909   -9792.8491   -11060.911    11532.065    8.7302096 
    8430    1074.9321   -9913.0793    -9793.169   -12864.355    11537.185    8.7617531 
    8440    1148.6874   -9921.5383   -9793.4005   -15635.512    11538.388    8.7920326 
    8450    1174.3793   -9924.6737   -9793.6699   -15693.129     11535.03    8.8233494 
    8460    1120.5016   -9918.9891   -9793.9954   -11047.428    11527.257     8.856068 
    8470    1130.7112   -9920.4297   -9794.2972    -6061.336    11516.399    8.8857846 
[...]
   22890    1171.3002   -9970.1158   -9839.4554    15717.167    11117.271     12.32221 
   22900    1155.2482   -9968.0036    -9839.134    19464.564    11110.578    12.324102 
   22910    1179.3315   -9970.5193   -9838.9631    18985.253    11109.112     12.31201 
   22920     1201.066   -9972.9578    -9838.977    14903.214    11112.804    12.284385 
   22930    1163.0805   -9968.9196   -9839.1762    10750.247    11120.678    12.246238 
   22940    1133.9338   -9965.9521   -9839.4601    5959.0764    11131.592     12.20347 
   22950    1141.0414   -9967.0224   -9839.7375    27.072362    11144.243    12.156456 
   22960    1177.3952   -9971.3532    -9840.013   -6555.2995    11157.009    12.103582 
   22970    1205.4016   -9974.8619   -9840.3975   -11604.518    11168.108     12.05229 
   22980    1117.6632    -9965.582    -9840.905   -11832.007     11176.21    12.012727 
   22990    1117.8508   -9966.1219    -9841.424    -12849.54    11181.043    11.984083 
   23000    1179.6435   -9973.6066   -9842.0156   -13296.857     11182.33    11.962837 
   23010    1107.2631   -9966.2028   -9842.6859   -9425.4419    11180.009    11.947303 
   23020    1114.8012   -9967.7124   -9843.3546   -6708.8188    11174.997    11.933676 
   23030    1163.9815   -9973.8979    -9844.054   -5783.2666    11168.031    11.923372 
   23040    1127.1318   -9970.5096   -9844.7764   -3071.5698    11159.446    11.921167 
   23050    1153.9271   -9974.1967   -9845.4744     -1189.84    11149.902    11.925528 
   23060    1182.3427    -9978.125   -9846.2329    808.18298    11139.922    11.933024 
   23070    1096.8695   -9969.3089   -9846.9515    6181.7147    11130.174    11.942381 
   23080    1129.5894   -9973.5816   -9847.5742    9002.8437     11121.98    11.950411 
   23090    1143.7007    -9975.742   -9848.1605     12393.06    11116.223    11.955223 
   23100    1077.0557   -9968.8187   -9848.6715    17134.583    11113.893    11.954765 
   23110    1109.2049   -9972.8251   -9849.0916    14516.989    11116.099    11.943299 
   23120    1164.9041   -9979.4251   -9849.4783    7899.0389    11122.268    11.919527 
   23130     1111.712   -9973.8598   -9849.8467     5075.591    11130.818    11.890811 
   23140    1084.8957   -9971.1663   -9850.1446    3359.9872    11140.921    11.864508 
   23150    1096.9505   -9972.6822   -9850.3157    -797.4177    11152.008    11.846208 
   23160    1138.7252   -9977.4309   -9850.4044   -6323.9801    11162.969    11.839948 
   23170    1135.0566   -9977.0829   -9850.4656   -10221.092    11172.334    11.844948 
   23180     1077.036   -9970.6479   -9850.5029   -11345.047    11179.027     11.85657 
   23190    1076.9652   -9970.5965   -9850.4594   -12576.816    11182.611    11.871867 
   23200    1125.1163   -9975.8723   -9850.3638   -13637.833    11182.705    11.892649 
   23210    1108.7786   -9973.9591   -9850.2732    -11873.73    11179.057    11.918044 
   23220    1102.7389   -9973.1997   -9850.1875   -10124.628    11172.031    11.943948 
   23230    1152.2169   -9978.6357   -9850.1042   -9362.1933    11162.062    11.969287 
   23240    1108.4323   -9973.6849   -9850.0376   -4191.0566    11149.485    11.996806 
   23250     1080.789   -9970.4817   -9849.9181    2805.7766    11135.654    12.024668 
   23260    1133.8007   -9976.1938   -9849.7166    8287.2089     11122.43    12.045705 
   23270    1124.6075   -9974.9325   -9849.4809    14525.336    11111.403    12.055708 
   23280    1131.9799   -9975.5469   -9849.2728    17111.334    11104.181    12.056194 
   23290    1140.1342   -9976.3046    -9849.121     17438.95    11101.564     12.05373 
   23300    1099.9676   -9971.7154   -9849.0124    17437.069     11103.75    12.050364 
   23310    1134.7792   -9975.4988   -9848.9125     14093.53    11110.699     12.04155 
   23320    1127.8409    -9974.619   -9848.8067    10557.163    11121.628    12.025021 
   23330    1104.8579   -9971.9359   -9848.6873    5246.2219    11135.595    12.001607 
   23340    1163.7721   -9978.3462   -9848.5257   -2934.5765    11151.112    11.975013 
   23350    1114.6602   -9972.6899   -9848.3478   -7453.4009    11166.087    11.952107 
   23360    1067.9382   -9967.2731    -9848.143     -10770.5    11179.195    11.937659 
   23370    1144.2143   -9975.4955   -9847.8567   -16169.714    11189.372      11.9318 
   23380    1173.6014   -9978.5111   -9847.5941   -16857.829    11195.236    11.933187 
   23390     1135.669   -9974.1569   -9847.4713   -14052.781    11196.499    11.944262 
   23400    1097.1506   -9969.7928    -9847.404   -12580.164    11193.788    11.972145 
   23410    1106.9061   -9970.7798   -9847.3027    -11478.52    11187.524    12.019368 
   23420    1115.5298   -9971.5613   -9847.1222   -9130.7785    11178.011    12.078906 
   23430    1108.5952   -9970.5065   -9846.8411    -6342.816    11165.849    12.141083 
   23440    1124.3002   -9971.8396   -9846.4222   -2692.9397    11151.824     12.20179 
   23450    1148.2388   -9973.9427   -9845.8549    1750.9033    11136.953    12.260843 
   23460     1157.559   -9974.3134   -9845.1859    6381.2764     11122.47    12.316994 
   23470    1160.9154   -9973.9474   -9844.4456    11651.378     11109.69    12.365601 
   23480    1170.4377   -9974.2173   -9843.6532    15111.717    11100.001    12.400961 
   23490    1165.5744   -9972.8747   -9842.8531    17817.067    11094.406    12.420252 
   23500    1138.4795   -9969.0916   -9842.0925    20271.994    11093.696    12.421149 
   23510    1139.4398   -9968.4762   -9841.3699    18180.573    11098.481    12.398326 
   23520    1188.2688   -9973.2146   -9840.6614    12325.924    11108.236    12.348534 
   23530    1165.8639   -9970.0344   -9839.9805    7855.4263     11121.54    12.274399 
   23540    1172.2818   -9970.0832   -9839.3134    1878.5276    11137.115    12.182366 
   23550    1207.4383   -9973.2936    -9838.602   -4430.2951    11153.354    12.087303 
   23560    1146.1529   -9965.7781   -9837.9231   -7603.8402    11168.605    12.004063 
   23570    1207.8756   -9972.0592   -9837.3189   -14172.049    11181.724    11.937436 
   23580    1210.9463   -9971.9287   -9836.8458   -14854.464    11191.132    11.889272 
   23590    1146.8811   -9964.5447   -9836.6084   -11166.302    11196.571    11.856522 
   23600    1171.7496   -9967.2196   -9836.5092   -13065.655    11198.743    11.833152 
   23610    1177.3416   -9967.8677   -9836.5335   -15198.443     11197.26    11.820963 
   23620    1167.9289   -9967.0169   -9836.7326   -14457.899    11191.575    11.824346 
   23630    1157.0004   -9966.1336   -9837.0685   -11960.422     11181.85    11.839547 
   23640     1179.846   -9969.1481   -9837.5345   -9216.2505    11168.727    11.860742 
   23650    1188.4093   -9970.7147   -9838.1458   -3841.3534    11153.026    11.889384 
   23660    1173.9201   -9969.8158   -9838.8633    5136.0947     11136.29    11.927655 
   23670    1175.3426   -9970.7956   -9839.6844    14159.084    11120.918    11.970943 
   23680    1148.9889   -9968.7879   -9840.6164    20545.838    11109.336    12.011835 
   23690    1166.1508   -9971.7991   -9841.7133    20413.436    11103.212     12.04516 
   23700    1184.6233   -9975.1536   -9843.0071    15722.496    11102.581    12.073136 
   23710    1165.3256   -9974.3795   -9844.3857    11350.527    11106.314    12.103458 
   23720    1153.4897   -9974.3439   -9845.6704    6039.4371    11113.172    12.140417 
   23730    1161.7403   -9976.3945   -9846.8006    2683.8428    11121.785    12.182914 
   23740    1103.7275    -9970.818   -9847.6955    2624.9059    11131.267    12.225961 
   23750    1109.3834   -9972.0712   -9848.3178    1275.2243      11141.5    12.259929 
   23760    1178.4705   -9980.2451   -9848.7849   -3822.8263    11152.041    12.279133 
   23770    1173.9957    -9980.226    -9849.265   -7405.2198    11161.612    12.290058 
   23780    1079.4597   -9970.1301   -9849.7148    -8131.418    11169.235    12.301596 
   23790      1088.34   -9971.4395   -9850.0335   -10810.667    11174.557    12.312095 
   23800    1159.5262   -9979.6327   -9850.2858   -14124.525    11176.867    12.314158 
   23810     1162.368   -9980.2776   -9850.6137    -12998.28    11175.357    12.307464 
   23820    1124.6083   -9976.4924   -9851.0407   -8993.5812    11170.268    12.296146 
   23830    1091.1764   -9973.1723   -9851.4499   -3727.2326      11162.7    12.280547 
   23840    1104.9813   -9975.0276   -9851.7653   -875.28172    11154.009    12.255974 
   23850    1126.0667   -9977.6522   -9852.0378    813.99394    11145.033    12.216433 
   23860    1119.1259   -9977.1352    -9852.295    3673.0389     11136.31    12.159134 
   23870    1133.7958   -9979.0349   -9852.5583     6410.523    11128.599     12.08764 
   23880    1113.5624   -9976.9796   -9852.7601    8698.1761    11122.652    12.011765 
   23890     1115.516   -9977.3136   -9852.8761    9982.4956    11119.094     11.94049 
   23900    1122.8028   -9978.2185   -9852.9682    9465.7524    11118.264    11.874056 
   23910    1089.2342   -9974.5521   -9853.0464    9004.1386    11120.075    11.804786 
   23920    1111.9365   -9977.1245   -9853.0864    6690.5549     11124.33    11.730029 
   23930    1168.7448   -9983.4969   -9853.1217    2922.8797    11130.379    11.662658 
   23940    1140.6664   -9980.4544   -9853.2113    862.33959    11137.263    11.619193 
   23950    1101.2661   -9976.2067   -9853.3588     655.0252    11144.428    11.604465 
   23960    1102.4851   -9976.4942   -9853.5104   -2183.9632    11151.683      11.6113 
   23970    1080.2945   -9974.1077   -9853.5992   -5893.0209    11158.299    11.631446 
   23980    1083.0722   -9974.4067   -9853.5884   -9197.8507    11163.264    11.661772 
   23990    1141.7278   -9980.8855   -9853.5241   -12558.237    11165.637    11.704471 
   24000    1127.2807   -9979.2468   -9853.4969   -11455.419     11164.63    11.762993 
   24010    1077.4904   -9973.6896   -9853.4939   -7050.0764    11160.547    11.832559 
   24020    1109.3382     -9977.18   -9853.4317   -4714.5691    11154.487    11.900877 
   24030    1167.5524   -9983.5429   -9853.3007   -1436.5907    11147.194    11.961865 
   24040     1164.098   -9983.0326   -9853.1758    4193.6593    11139.611    12.018435 
   24050    1077.5998   -9973.2326   -9853.0247    8215.1703    11133.214    12.073865 
   24060    1072.9103   -9972.4356   -9852.7509    6691.6736    11128.998    12.126292 
   24070    1141.1389   -9979.6458   -9852.3501    4347.1317    11126.637    12.171903 
   24080    1103.9356   -9975.0419   -9851.8962    7900.6468    11125.665    12.208527 
   24090    1090.8962   -9973.0772    -9851.386     9657.313    11126.843    12.234983 
   24100    1177.5041   -9982.1417   -9850.7893     5811.248    11130.527    12.251349 
   24110    1171.1444   -9980.8432   -9850.2003    3079.4063    11135.831    12.259037 
   24120     1134.739   -9976.2746   -9849.6928    109.47886    11141.939    12.261283 
   24130    1132.0043   -9975.4691   -9849.1924   -2223.3123    11148.038    12.265284 
   24140    1108.0666   -9972.2626   -9848.6561   -2790.5779    11153.521     12.27506 
   24150    1174.3119   -9979.0917   -9848.0955    -4730.395    11158.146    12.286888 
   24160    1148.5006   -9975.6647   -9847.5478   -5735.0175    11161.443    12.293297 
   24170    1098.2319   -9969.5603   -9847.0508   -6457.4119    11163.125    12.287816 
   24180    1144.1682   -9974.1385   -9846.5048   -9153.9302    11162.943    12.275788 
   24190    1153.1483   -9974.5414   -9845.9059   -9260.5837    11160.307     12.27201 
   24200    1133.7171   -9971.7877   -9845.3199   -7858.9342    11155.165    12.281164 
   24210    1171.6613   -9975.4475    -9844.747   -6872.7594    11147.868    12.295747 
   24220    1131.6638   -9970.4239   -9844.1851   -1532.4721    11138.877    12.308538 
   24230    1155.8455   -9972.5842   -9843.6479    3345.4589    11129.558     12.31436 
   24240    1216.4446    -9978.838   -9843.1418    6080.1536    11121.203    12.313824 
   24250    1178.3983   -9974.2161    -9842.764    11025.205    11114.681    12.307084 
   24260    1146.5532   -9970.4199   -9842.5202     15470.01    11111.251    12.289365 
   24270    1157.6123   -9971.5137   -9842.3803     15590.54    11111.991    12.256881 
   24280    1161.5071   -9971.9301   -9842.3623    13517.753    11116.963    12.208341 
   24290    1160.8876   -9971.9499   -9842.4512    9892.2085    11125.569    12.146845 
   24300    1171.3256   -9973.3056   -9842.6424    5049.9607    11136.768    12.081597 
   24310    1127.6705   -9968.6839   -9842.8906      1771.95    11149.311    12.020838 
   24320    1168.7204   -9973.5916   -9843.2191   -4462.9953    11162.143    11.969793 
   24330    1158.0567   -9972.8298   -9843.6468   -8356.4745     11173.68     11.93698 
   24340    1135.1271   -9970.8197   -9844.1946   -8944.8628    11182.838     11.92609 
   24350    1162.1815   -9974.5074   -9844.8643   -9689.0303    11189.398    11.931353 
   24360     1173.236   -9976.6185   -9845.7423   -12356.244    11193.136    11.944582 
   24370    1134.6972   -9973.4019   -9846.8247   -13378.573    11193.447    11.960761 
   24380     1111.639   -9972.0103   -9848.0053   -12898.877    11190.052    11.981481 
   24390    1126.4379   -9974.8884   -9849.2326   -12372.872    11183.111    12.013768 
   24400    1106.4958   -9973.8289   -9850.3976   -8961.7022    11172.948    12.059362 
   24410    1134.4421   -9978.0208    -9851.472   -4309.8841    11160.493    12.109489 
   24420     1140.638   -9979.6968   -9852.4569    673.24634     11147.05    12.155162 
   24430    1132.4811    -9979.655    -9853.325    5225.3139    11134.023    12.191426 
   24440    1111.5729   -9978.0543   -9854.0567    9169.9062    11122.647    12.216846 
   24450    1077.3274   -9974.7775      -9854.6    12408.747     11113.97    12.232439 
   24460    1128.6768   -9980.9319   -9855.0263    11632.881    11108.744    12.239202 
   24470    1131.9127   -9981.6848   -9855.4182    10277.082     11106.79    12.238405 
   24480    1100.4486   -9978.5281   -9855.7714     10175.22    11107.716     12.23143 
   24490    1118.3417   -9980.8209   -9856.0682    8601.4416    11111.368    12.218132 
   24500    1116.1576   -9980.8122   -9856.3031    7019.0098    11117.341     12.19734 
   24510    1125.4163   -9982.0627   -9856.5209    3408.1822    11125.071    12.168816 
   24520    1097.9222   -9979.1813   -9856.7064    1871.0723    11133.678    12.132682 
   24530    1098.8861   -9979.4118   -9856.8294    -1334.812    11142.612    12.083992 
   24540    1076.8953    -9976.951   -9856.8217   -5006.8076    11151.019    12.022028 
   24550    1089.9639   -9978.2891    -9856.702   -8225.6229    11157.911     11.95227 
   24560    1136.3652   -9983.2801   -9856.5169   -12020.774    11162.375    11.886566 
   24570    1100.9177   -9979.1442   -9856.3351   -10593.035    11163.577    11.839093 
   24580    1085.6367   -9977.2337   -9856.1293    -7259.167    11161.887    11.812369 
   24590     1130.689   -9982.0123   -9855.8822   -5620.7177    11158.184    11.799261 
   24600    1108.7387   -9979.3021   -9855.6207   -2208.8792    11153.077    11.792859 
   24610    1092.9856   -9977.2438   -9855.3196   -803.46229    11147.414    11.793467 
   24620    1120.1253   -9979.9157   -9854.9641   -345.88974    11141.631     11.81032 
   24630    1080.2038   -9975.0454    -9854.547     2672.725    11135.978    11.845625 
   24640     1099.754   -9976.7429   -9854.0637    3020.7228    11131.104    11.888125 
   24650    1162.8774   -9983.2369   -9853.5161    4875.4205    11127.208    11.927575 
   24660    1126.1488    -9978.618   -9852.9944    9817.2062    11124.794     11.95913 
   24670    1074.2403   -9972.3406   -9852.5075    12776.815    11125.057    11.983281 
   24680    1101.0174   -9974.7888   -9851.9686    10427.602    11128.677    12.005681 
   24690    1138.7563   -9978.3735   -9851.3435    6820.6561    11135.056    12.032685 
   24700    1124.7938   -9976.1594    -9850.687     4765.907    11143.213    12.065385 
   24710    1129.2176    -9975.964   -9849.9981    422.23093    11152.443    12.097007 
   24720    1139.8882   -9976.4218   -9849.2655   -5892.6815    11161.531    12.122341 
   24730    1143.9911   -9976.1734   -9848.5594   -9855.3744    11168.852    12.145041 
   24740    1157.8297   -9977.0907   -9847.9331   -12787.621    11173.299    12.172409 
   24750    1156.8688   -9976.4693   -9847.4189   -14709.897    11174.141    12.208795 
   24760    1107.5552   -9970.5658   -9847.0164   -13638.859    11170.983    12.251699 
   24770    1116.7299   -9971.2369    -9846.664   -11528.706    11164.167    12.294382 
   24780    1180.4265   -9978.0162   -9846.3379   -8104.9139    11154.387    12.331744 
   24790    1173.2698   -9976.9812   -9846.1012    261.25568    11142.786    12.361033 
   24800    1131.1492    -9972.116   -9845.9346    7185.4172    11131.522    12.376586 
   24810    1172.5862   -9976.6283   -9845.8246    8734.3438    11122.386    12.374912 
   24820    1155.9963   -9974.7557   -9845.8025    9469.8568    11115.856    12.357986 
   24830    1117.2281   -9970.4611   -9845.8326    10870.982    11112.097    12.326324 
   24840    1169.1784   -9976.3296    -9845.906    10379.236     11111.33    12.282428 
   24850    1149.6701   -9974.2779   -9846.0305    11664.525    11113.466    12.232498 
   24860    1158.9006   -9975.5251    -9846.248    11767.749    11118.698    12.179927 
   24870    1139.4136    -9973.638   -9846.5347    10378.694    11126.986    12.129273 
   24880     1121.533   -9971.9475   -9846.8388    7190.0688    11137.878    12.083213 
   24890    1173.2285   -9978.0117   -9847.1363    506.65816    11150.351    12.039467 
   24900    1164.4362    -9977.357   -9847.4623   -3473.1807    11162.715    11.998388 
   24910    1117.6295   -9972.4676   -9847.7943   -6417.7337    11173.845    11.962541 
   24920     1144.453   -9975.7637   -9848.0983   -11830.721    11182.855      11.9369 
   24930    1119.9909   -9973.3122   -9848.3755   -13337.364    11188.469    11.927534 
   24940    1129.4539   -9974.6317   -9848.6395   -12917.125    11190.301     11.93044 
   24950    1153.3882   -9977.5852    -9848.923   -12827.712    11188.519    11.937017 
   24960    1114.1304   -9973.4954   -9849.2125   -12194.474    11183.276    11.946195 
   24970    1145.5295   -9977.2895    -9849.504   -11813.321    11174.815    11.962031 
   24980    1117.9776   -9974.4832   -9849.7711    -8287.294    11163.413    11.987516 
   24990    1076.9096   -9970.0596   -9849.9287   -1646.2758    11150.129    12.020176 
   25000    1125.9413   -9975.5457   -9849.9453    3542.0644    11136.721    12.054258 
Loop time of 18583.7 on 16 procs for 20000 steps with 864 atoms

Performance: 0.093 ns/day, 258.107 hours/ns, 1.076 timesteps/s
97.1% CPU use with 16 MPI tasks x 1 OpenMP threads

MPI task timing breakdown:
Section |  min time  |  avg time  |  max time  |%varavg| %total
---------------------------------------------------------------
Pair    | 13386      | 16791      | 18344      | 997.7 | 90.35
Bond    | 0.0012798  | 0.0046483  | 0.0088272  |   2.8 |  0.00
Neigh   | 0.38072    | 0.41043    | 0.4305     |   1.8 |  0.00
Comm    | 137.23     | 1743.2     | 5146       |3118.5 |  9.38
Output  | 4.186      | 4.2119     | 4.5906     |   4.8 |  0.02
Modify  | 16.893     | 44.71      | 97.324     | 488.4 |  0.24
Other   |            | 0.09128    |            |       |  0.00

Nlocal:        54.0000 ave          56 max          52 min
Histogram: 1 0 4 0 0 7 0 2 0 2
Nghost:        706.875 ave         719 max         693 min
Histogram: 2 1 1 1 1 3 2 1 3 1
Neighs:         0.00000 ave           0 max           0 min
Histogram: 16 0 0 0 0 0 0 0 0 0
FullNghs:      3639.88 ave        3889 max        3476 min
Histogram: 1 3 3 4 1 1 0 1 1 1

Total # of neighbors = 58238
Ave neighs/atom = 67.405093
Ave special neighs/atom = 0.0000000
Neighbor list builds = 2000
Dangerous builds = 2000
unfix   3
                
Total wall time: 6:20:20
