LAMMPS (29 Sep 2021 - Update 3)
OMP_NUM_THREADS environment is not set. Defaulting to 1 thread. (src/comm.cpp:98)
  using 1 OpenMP thread(s) per MPI task
units	metal
atom_style	full

read_data	mixed.data
Reading data file ...
  orthogonal box = (0.0000000 0.0000000 0.0000000) to (15.969932 15.719106 81.083077)
  2 by 1 by 8 MPI processor grid
  reading atoms ...
  864 atoms
Finding 1-2 1-3 1-4 neighbors ...
  special bond factors lj:    0        0        0       
  special bond factors coul:  0        0        0       
     0 = max # of 1-2 neighbors
     0 = max # of 1-3 neighbors
     0 = max # of 1-4 neighbors
     1 = max # of special neighbors
  special bonds CPU = 0.001 seconds
  read_data CPU = 0.010 seconds

pair_style	quip
pair_coeff	* * /ocean/projects/cts180021p/wuziqi/clease/mint-PD/PhaseDiagram-Clease/Liquid/GAP_potential/gap_LiKCl.xml "Potential xml_label=GAP_2021_9_27_0_1_17_37_618" 17 19 3

neighbor	0.3 bin
neigh_modify	delay 10

timestep	0.001
compute	msd all msd
thermo_style	custom step temp pe etotal press vol c_msd[4]
thermo	10
dump	1 all custom 10 xyz-mix.dump type id x y z
dump	2 all custom 10 force-mix.dump type id fx fy fz

fix     1 all nve
run     2000
Neighbor list info ...
  update every 1 steps, delay 10 steps, check yes
  max neighbors/atom: 2000, page size: 100000
  master list distance cutoff = 6.22
  ghost atom cutoff = 6.22
  binsize = 3.11, bins = 6 6 27
  1 neighbor lists, perpetual/occasional/extra = 1 0 0
  (1) pair quip, perpetual
      attributes: full, newton on
      pair build: full/bin
      stencil: full/bin/3d
      bin: standard
Per MPI rank memory allocation (min/avg/max) = 8.888 | 8.903 | 8.913 Mbytes
Step Temp PotEng TotEng Press Volume c_msd[4] 
       0            0   -6930.8241   -6930.8241   -4495.9065    20354.533            0 
      10    65.904237   -6938.1841   -6930.8324   -5379.5912    20354.533 0.0005000384 
      20    168.73131   -6949.6632    -6930.841   -6364.5261    20354.533 0.0061479459 
      30    200.57733   -6953.2127    -6930.838   -5696.6671    20354.533  0.020662009 
      40    199.55606   -6953.0935   -6930.8327   -4580.1506    20354.533   0.03833664 
      50    226.88579   -6956.1474   -6930.8379   -4419.7801    20354.533  0.051806208 
      60    238.47957   -6957.4392   -6930.8365   -4645.7272    20354.533  0.061424452 
      70    236.06355   -6957.1692   -6930.8359    -4807.043    20354.533  0.069853138 
      80    232.99362   -6956.8259   -6930.8351    -5036.908    20354.533  0.079308594 
      90    234.23747   -6956.9654   -6930.8358   -5260.6038    20354.533  0.090830495 
     100    232.00556   -6956.7159   -6930.8353   -5208.0306    20354.533   0.10432197 
     110    232.79067   -6956.8033   -6930.8352   -5031.3164    20354.533   0.11840709 
     120    238.30149    -6957.419   -6930.8361   -4942.2097    20354.533   0.13201584 
     130    238.74514   -6957.4687   -6930.8363   -4988.8033    20354.533   0.14538478 
     140    232.54984   -6956.7771   -6930.8358   -4942.4536    20354.533   0.15867927 
     150    225.40044   -6955.9792   -6930.8355   -4787.8719    20354.533   0.17110203 
     160    224.38726   -6955.8659   -6930.8352   -4620.0724    20354.533    0.1817825 
     170    231.86358   -6956.7009   -6930.8362   -4442.3359    20354.533   0.19072597 
     180    237.58036   -6957.3391   -6930.8366   -4192.2572    20354.533   0.19889867 
     190    235.69365   -6957.1279    -6930.836   -3927.7806    20354.533   0.20710191 
     200    234.44619   -6956.9885   -6930.8356   -3773.8119    20354.533   0.21513007 
     210    236.73114   -6957.2437    -6930.836   -3777.5502    20354.533   0.22305549 
     220    238.14425   -6957.4012   -6930.8359   -3899.9101    20354.533    0.2315521 
     230     238.4388   -6957.4341   -6930.8359   -4006.5782    20354.533   0.24098695 
     240    239.23886    -6957.523   -6930.8356   -3984.7528    20354.533   0.25141959 
     250     242.0724   -6957.8401   -6930.8366   -3793.3442    20354.533   0.26265129 
     260       239.05   -6957.5024    -6930.836   -3540.3897    20354.533   0.27417391 
     270    235.84511    -6957.145   -6930.8361   -3272.6541    20354.533   0.28493922 
     280    231.62838   -6956.6748   -6930.8363   -2948.2435    20354.533   0.29437431 
     290    226.51317   -6956.1028    -6930.835   -2633.8875    20354.533   0.30220439 
     300    232.88912   -6956.8151    -6930.836   -2478.1682    20354.533   0.30835486 
     310    239.65399   -6957.5709   -6930.8371   -2317.7128    20354.533   0.31386348 
     320    236.98534   -6957.2718   -6930.8357   -2020.1819    20354.533   0.31985126 
     330    235.73864   -6957.1329   -6930.8359   -1957.4113    20354.533   0.32664959 
     340    236.09186   -6957.1723   -6930.8359   -2003.6376    20354.533   0.33435107 
     350    237.19352   -6957.2955   -6930.8363   -2145.8328    20354.533   0.34289663 
     360     235.6501   -6957.1226   -6930.8355   -2186.0282    20354.533   0.35153924 
     370      237.245   -6957.3009   -6930.8359   -2246.4379    20354.533   0.35886165 
     380     239.0727   -6957.5047   -6930.8358   -2396.5837    20354.533   0.36451066 
     390    241.64207   -6957.7913   -6930.8358   -2701.0958    20354.533   0.36907283 
     400    244.68963   -6958.1321   -6930.8366    -3058.184    20354.533   0.37340775 
     410    240.84575   -6957.7024   -6930.8357   -3233.9135    20354.533   0.37836011 
     420    237.91038    -6957.375   -6930.8357   -3296.1667    20354.533    0.3837999 
     430    237.53548   -6957.3335    -6930.836     -3297.92    20354.533   0.38923076 
     440    236.65311   -6957.2351   -6930.8361   -3132.9159    20354.533   0.39408345 
     450    236.54722   -6957.2227   -6930.8355   -2838.3736    20354.533   0.39819744 
     460    240.22636   -6957.6339   -6930.8363   -2750.9298    20354.533   0.40204023 
     470    240.52465   -6957.6669    -6930.836   -2995.4918    20354.533   0.40599969 
     480    237.66852   -6957.3482   -6930.8359   -3342.9489    20354.533   0.40967234 
     490     233.8587   -6956.9231   -6930.8358   -3484.3142    20354.533   0.41268728 
     500    232.08796   -6956.7258   -6930.8361   -3205.4816    20354.533   0.41521326 
     510    230.70203   -6956.5715   -6930.8364   -2716.5526    20354.533   0.41731564 
     520    228.05602   -6956.2759   -6930.8359   -2363.5724    20354.533   0.41870774 
     530    227.97164    -6956.267   -6930.8365   -2215.6832    20354.533   0.41939371 
     540    224.82248   -6955.9152   -6930.8359   -2142.5726    20354.533   0.41965215 
     550    224.12424   -6955.8368   -6930.8354   -2230.4398    20354.533   0.41896539 
     560    230.14975   -6956.5094   -6930.8358   -2549.6413    20354.533   0.41694428 
     570    236.18881   -6957.1833   -6930.8361   -2919.3179    20354.533   0.41431605 
     580    239.11248   -6957.5092   -6930.8358   -3311.7801    20354.533   0.41218239 
     590    240.41038    -6957.654   -6930.8359   -3417.9605    20354.533   0.41128732 
     600     241.9108   -6957.8213   -6930.8358   -3319.9933    20354.533   0.41181297 
     610    244.71998   -6958.1355   -6930.8366   -3218.6172    20354.533   0.41378595 
     620     241.0794   -6957.7291   -6930.8363   -3147.9995    20354.533   0.41727735 
     630    235.50013   -6957.1059   -6930.8355   -3135.0665    20354.533   0.42154918 
     640    235.11112   -6957.0634   -6930.8364   -3257.6948    20354.533   0.42544554 
     650    231.17765   -6956.6238   -6930.8356   -3363.2824    20354.533   0.42831027 
     660    230.96587      -6956.6   -6930.8354    -3278.616    20354.533   0.42962018 
     670    236.71051   -6957.2418   -6930.8364   -3057.6575    20354.533   0.43008462 
     680    237.89077   -6957.3735   -6930.8365   -2729.6334    20354.533   0.43147958 
     690    233.77068   -6956.9134    -6930.836   -2455.8007    20354.533   0.43467882 
     700    232.73214   -6956.7972   -6930.8356   -2458.1317    20354.533   0.43896836 
     710     238.6713   -6957.4612    -6930.837     -2772.14    20354.533   0.44306523 
     720    238.40713   -6957.4307    -6930.836    -2807.083    20354.533   0.44626276 
     730     240.4682   -6957.6606    -6930.836   -2649.5036    20354.533   0.44805059 
     740    245.36669   -6958.2082   -6930.8372   -2598.8991    20354.533   0.44927166 
     750    241.62154   -6957.7892    -6930.836   -2531.0184    20354.533   0.45180545 
     760    240.83361   -6957.7015   -6930.8361   -2663.8574    20354.533   0.45609454 
     770    242.81641   -6957.9232   -6930.8366   -2904.7405    20354.533   0.46149917 
     780    240.55873   -6957.6716   -6930.8369   -3011.4883    20354.533   0.46731331 
     790    234.48344    -6956.992    -6930.835   -2984.9723    20354.533   0.47270083 
     800    241.36903   -6957.7616   -6930.8365   -3043.6074    20354.533   0.47702973 
     810    248.02611   -6958.5044   -6930.8367   -3212.7271    20354.533   0.48113406 
     820    247.07524   -6958.3983   -6930.8367   -3298.0857    20354.533   0.48604281 
     830    241.62282   -6957.7892   -6930.8358   -3451.0521    20354.533   0.49200069 
     840    241.09937   -6957.7309   -6930.8359   -3767.5583    20354.533    0.4980224 
     850    243.86884   -6958.0407   -6930.8367   -3969.0277    20354.533   0.50315689 
     860    240.67295   -6957.6839   -6930.8364   -3878.9651    20354.533   0.50749313 
     870    234.88256   -6957.0377   -6930.8362   -3705.4216    20354.533   0.51123394 
     880     230.9712   -6956.6008   -6930.8356   -3732.8653    20354.533   0.51418617 
     890    234.71187   -6957.0191   -6930.8366   -3903.3458    20354.533   0.51649556 
     900    236.69755   -6957.2408   -6930.8368   -4096.5729    20354.533   0.51925856 
     910    234.14135   -6956.9543   -6930.8355   -4214.9524    20354.533   0.52270274 
     920     239.2214   -6957.5215    -6930.836    -4371.806    20354.533    0.5260843 
     930    246.23434   -6958.3046   -6930.8368   -4388.3174    20354.533   0.52947161 
     940    244.93011   -6958.1585   -6930.8361    -4140.633    20354.533    0.5331014 
     950    244.54566   -6958.1146   -6930.8351   -3874.4856    20354.533   0.53608506 
     960     253.5944   -6959.1267   -6930.8378   -3771.8165    20354.533   0.53803089 
     970     248.3829   -6958.5442   -6930.8367   -3524.3442    20354.533   0.53986141 
     980    238.35135   -6957.4243   -6930.8358   -3260.4338    20354.533   0.54101785 
     990    236.50322   -6957.2181   -6930.8358   -3175.8957    20354.533   0.54134372 
    1000    241.19481   -6957.7423   -6930.8367   -3304.4267    20354.533   0.54225539 
    1010    241.95562   -6957.8272   -6930.8367   -3391.2596    20354.533   0.54502288 
    1020    240.16869   -6957.6269   -6930.8357   -3447.0496    20354.533   0.54930268 
    1030    245.53617   -6958.2267   -6930.8368   -3456.4918    20354.533   0.55419445 
    1040    247.77076    -6958.476   -6930.8368   -3298.5887    20354.533   0.55950896 
    1050     244.2442   -6958.0816   -6930.8358   -3136.4369    20354.533   0.56417367 
    1060    244.98518   -6958.1647   -6930.8363    -3248.508    20354.533   0.56688242 
    1070    245.91228   -6958.2687   -6930.8368   -3519.1406    20354.533   0.56812185 
    1080    243.86214    -6958.039   -6930.8358   -3692.2455    20354.533   0.56934968 
    1090    246.84293   -6958.3726   -6930.8369   -3906.5524    20354.533   0.57178329 
    1100      244.881   -6958.1533   -6930.8365   -4089.2355    20354.533   0.57651628 
    1110    240.43499   -6957.6569    -6930.836   -4077.0823    20354.533    0.5832495 
    1120    237.92872   -6957.3775   -6930.8362   -4003.4461    20354.533   0.59023617 
    1130    236.51172   -6957.2189   -6930.8357   -4042.4172    20354.533   0.59550452 
    1140    238.96444   -6957.4936   -6930.8368   -4040.0227    20354.533   0.59831056 
    1150    235.78148   -6957.1379   -6930.8361   -3879.2914    20354.533   0.59921996 
    1160    234.20341   -6956.9615   -6930.8358   -3837.8249    20354.533    0.5985221 
    1170    240.41902   -6957.6544   -6930.8353    -3935.141    20354.533   0.59722217 
    1180    255.54411   -6959.3435   -6930.8372     -4092.55    20354.533   0.59743217 
    1190    258.99242   -6959.7285   -6930.8375   -4046.2257    20354.533    0.6011544 
    1200    248.88394   -6958.5986   -6930.8352   -3714.2841    20354.533   0.60762836 
    1210    248.47025   -6958.5542    -6930.837   -3470.6197    20354.533   0.61448368 
    1220    244.95446   -6958.1613   -6930.8363   -3177.7538    20354.533   0.62050251 
    1230     241.8534   -6957.8153   -6930.8362   -3046.6572    20354.533   0.62473384 
    1240    239.93171   -6957.6017    -6930.837   -2953.8402    20354.533   0.62763822 
    1250    233.26136   -6956.8559   -6930.8352   -2777.3686    20354.533   0.63038166 
    1260    237.93988   -6957.3787   -6930.8361   -2775.1391    20354.533    0.6330371 
    1270    246.35675   -6958.3182   -6930.8368   -2888.4422    20354.533   0.63643977 
    1280    248.45813   -6958.5525   -6930.8366   -2920.0425    20354.533   0.64183599 
    1290    245.47675   -6958.2198   -6930.8365   -2685.1116    20354.533   0.64908358 
    1300    241.63357   -6957.7906    -6930.836   -2354.7632    20354.533   0.65669456 
    1310    242.43427   -6957.8804   -6930.8365   -2080.8148    20354.533   0.66291632 
    1320    245.28186   -6958.1979   -6930.8364   -1915.3295    20354.533    0.6669735 
    1330    248.60459   -6958.5691   -6930.8369   -2012.6907    20354.533   0.66938419 
    1340    247.35187   -6958.4291   -6930.8367   -2148.5782    20354.533   0.67162517 
    1350    244.12194   -6958.0683   -6930.8361   -1975.6824    20354.533   0.67460298 
    1360    246.17117   -6958.2975   -6930.8367   -1695.7314    20354.533   0.67795806 
    1370    247.81913   -6958.4815   -6930.8369   -1406.6961    20354.533   0.68155459 
    1380    246.54204   -6958.3387   -6930.8366   -1365.9532    20354.533   0.68550067 
    1390    245.37096   -6958.2083   -6930.8368   -1609.7263    20354.533   0.68946972 
    1400    243.36629   -6957.9841   -6930.8362   -2040.6718    20354.533   0.69316197 
    1410    243.94371   -6958.0489   -6930.8367    -2492.182    20354.533   0.69632692 
    1420    241.91407   -6957.8222   -6930.8364   -2641.5513    20354.533   0.69908731 
    1430    240.29252    -6957.641   -6930.8361   -2738.6597    20354.533   0.70169952 
    1440    243.00906   -6957.9446   -6930.8366   -2920.7186    20354.533   0.70454594 
    1450    244.25454   -6958.0838   -6930.8369   -3048.4377    20354.533   0.70795341 
    1460    242.09952    -6957.843   -6930.8364   -2976.5792    20354.533   0.71130224 
    1470    243.45842   -6957.9943   -6930.8362   -3081.8274    20354.533    0.7132231 
    1480    250.70065   -6958.8033   -6930.8373   -3338.8349    20354.533   0.71370178 
    1490    252.18388   -6958.9685    -6930.837   -3376.1382    20354.533    0.7144344 
    1500    251.43885   -6958.8853   -6930.8369   -3315.8008    20354.533   0.71637247 
    1510    251.24938    -6958.864   -6930.8368   -3301.7557    20354.533   0.71942223 
    1520    249.70733   -6958.6922    -6930.837   -3282.0336    20354.533   0.72323431 
    1530    244.44696   -6958.1054    -6930.837   -3302.2244    20354.533   0.72763008 
    1540    236.75683   -6957.2464   -6930.8358   -3274.9713    20354.533    0.7323608 
    1550    237.57971   -6957.3389   -6930.8365   -3428.4116    20354.533   0.73683196 
    1560    241.15015   -6957.7371   -6930.8364   -3593.4236    20354.533   0.74115804 
    1570    245.97302   -6958.2754   -6930.8368   -3733.6516    20354.533   0.74547586 
    1580    248.38573   -6958.5448    -6930.837   -3697.1233    20354.533   0.74963233 
    1590    246.86432   -6958.3746   -6930.8366   -3466.8015    20354.533   0.75351214 
    1600     247.7118   -6958.4687    -6930.836   -3388.9239    20354.533   0.75677589 
    1610    253.82537   -6959.1519   -6930.8373    -3531.034    20354.533   0.75955216 
    1620    251.92871   -6958.9401   -6930.8371   -3648.0728    20354.533   0.76294914 
    1630    244.66821   -6958.1291    -6930.836   -3657.5504    20354.533   0.76703359 
    1640    244.28177   -6958.0866   -6930.8366   -3671.0399    20354.533   0.77099433 
    1650    244.83575   -6958.1483   -6930.8365   -3788.3144    20354.533   0.77508445 
    1660    246.40424   -6958.3232   -6930.8364    -3813.853    20354.533   0.77989624 
    1670     250.2724    -6958.755   -6930.8367   -3565.9239    20354.533   0.78529205 
    1680    252.16532   -6958.9666   -6930.8372   -3320.4462    20354.533   0.79034429 
    1690    248.06278   -6958.5083   -6930.8366    -3241.467    20354.533   0.79410211 
    1700    246.18953   -6958.2989   -6930.8361   -3435.3007    20354.533   0.79613512 
    1710    251.37963   -6958.8788   -6930.8371   -3765.1983    20354.533   0.79697816 
    1720    252.49637   -6959.0036   -6930.8373   -4015.6546    20354.533   0.79809077 
    1730    246.19105   -6958.2991   -6930.8361   -4012.8085    20354.533   0.80001418 
    1740    244.72061   -6958.1349   -6930.8359   -3836.2711    20354.533   0.80174398 
    1750    250.77886   -6958.8116   -6930.8368   -3664.5304    20354.533   0.80300604 
    1760    253.23106   -6959.0851   -6930.8368   -3574.9487    20354.533   0.80474848 
    1770     250.9182   -6958.8268   -6930.8365   -3643.0638    20354.533   0.80759401 
    1780    248.19059    -6958.522   -6930.8359    -3925.933    20354.533   0.81194222 
    1790    251.50586   -6958.8923   -6930.8365   -4358.7518    20354.533   0.81788965 
    1800    254.74644   -6959.2547   -6930.8373   -4555.0094    20354.533   0.82537267 
    1810    250.83969   -6958.8178   -6930.8362   -4276.5786    20354.533   0.83331392 
    1820     251.8855   -6958.9345   -6930.8362   -4012.9598    20354.533   0.83972246 
    1830      255.594   -6959.3496   -6930.8377   -3901.3718    20354.533   0.84445553 
    1840    246.70995   -6958.3569   -6930.8361   -3626.6691    20354.533   0.84851616 
    1850    241.86654   -6957.8157   -6930.8351   -3456.7016    20354.533   0.85180041 
    1860    250.43531   -6958.7737   -6930.8372    -3514.864    20354.533    0.8548436 
    1870    251.67809   -6958.9117   -6930.8366    -3317.435    20354.533   0.85904271 
    1880    249.74232   -6958.6953   -6930.8361   -2814.4162    20354.533   0.86408884 
    1890    251.03758   -6958.8407    -6930.837   -2598.2462    20354.533   0.86903478 
    1900    247.47063   -6958.4421   -6930.8364   -2762.2368    20354.533   0.87371783 
    1910    246.41436   -6958.3238   -6930.8359   -3170.3298    20354.533   0.87809892 
    1920    252.32808   -6958.9847   -6930.8371   -3481.0709    20354.533    0.8826292 
    1930    251.70282   -6958.9148    -6930.837   -3522.0143    20354.533   0.88826081 
    1940    246.41342   -6958.3234   -6930.8356   -3409.4835    20354.533   0.89502972 
    1950     251.5574   -6958.8983   -6930.8367   -3383.3627    20354.533   0.90192896 
    1960    256.70331    -6959.473   -6930.8374   -3284.7665    20354.533   0.90797257 
    1970    251.99325   -6958.9465   -6930.8363   -3170.8424    20354.533   0.91214044 
    1980    249.36931   -6958.6536    -6930.836    -3268.664    20354.533   0.91382089 
    1990    253.19383   -6959.0808   -6930.8367   -3484.4565    20354.533   0.91429439 
    2000    255.75062   -6959.3664    -6930.837   -3645.8324    20354.533   0.91593526 
Loop time of 1431.99 on 16 procs for 2000 steps with 864 atoms

Performance: 0.121 ns/day, 198.887 hours/ns, 1.397 timesteps/s
97.5% CPU use with 16 MPI tasks x 1 OpenMP threads

MPI task timing breakdown:
Section |  min time  |  avg time  |  max time  |%varavg| %total
---------------------------------------------------------------
Pair    | 656.06     | 1151.2     | 1423.9     | 585.8 | 80.39
Bond    | 0.00016665 | 0.00046577 | 0.0011418  |   0.0 |  0.00
Neigh   | 0.018017   | 0.027645   | 0.036045   |   3.5 |  0.00
Comm    | 7.9229     | 262.06     | 729.89     |1179.2 | 18.30
Output  | 0.14179    | 9.3762     | 23.019     | 289.5 |  0.65
Modify  | 0.0094044  | 0.011416   | 0.014537   |   1.3 |  0.00
Other   |            | 9.343      |            |       |  0.65

Nlocal:        54.0000 ave          71 max          39 min
Histogram: 3 2 1 1 0 4 1 0 3 1
Nghost:        497.125 ave         591 max         387 min
Histogram: 1 2 1 1 1 3 2 1 2 2
Neighs:         0.00000 ave           0 max           0 min
Histogram: 16 0 0 0 0 0 0 0 0 0
FullNghs:      2382.00 ave        3956 max        1259 min
Histogram: 3 2 2 0 2 3 1 1 1 1

Total # of neighbors = 38112
Ave neighs/atom = 44.111111
Ave special neighs/atom = 0.0000000
Neighbor list builds = 199
Dangerous builds = 198
unfix   1

velocity    all create 750.0 1312343 dist gaussian
fix     2 all npt temp 750.0 750.0 $(100.0*dt) aniso 0.0 1.01325 $(1000.0*dt)
fix     2 all npt temp 750.0 750.0 0.10000000000000000555 aniso 0.0 1.01325 $(1000.0*dt)
fix     2 all npt temp 750.0 750.0 0.10000000000000000555 aniso 0.0 1.01325 1
run     3000
Per MPI rank memory allocation (min/avg/max) = 8.897 | 8.905 | 8.914 Mbytes
Step Temp PotEng TotEng Press Volume c_msd[4] 
    2000          750   -6959.3664   -6875.7028   -752.62531    20354.533   0.91593526 
    2010    666.80481   -6950.0597   -6875.6766    1011.9248    20354.242   0.92704739 
    2020    538.95471   -6935.6271   -6875.5058    3581.7191    20355.456   0.94683335 
    2030    497.69173   -6930.5951   -6875.0768    4279.5332    20361.406   0.96333119 
    2040    486.95795     -6928.65   -6874.3291    3995.3276    20373.207   0.97514043 
    2050     471.8546   -6926.0159   -6873.3798    3517.3323    20390.573   0.98557785 
    2060    466.01493   -6924.4201   -6872.4354    2927.8992    20412.871   0.99637697 
    2070    495.50444   -6926.8479   -6871.5736    2284.9127    20439.299    1.0082227 
    2080      508.664   -6927.4782    -6870.736    2249.6592    20469.063    1.0229054 
    2090    489.38163   -6924.4811   -6869.8898    2395.6967    20502.069    1.0396108 
    2100    503.56034   -6925.1332   -6868.9603    1625.0242    20538.369    1.0543182 
    2110    520.02657   -6925.8815   -6867.8717    824.02146    20577.011    1.0669172 
    2120    514.90471    -6924.141   -6866.7026    171.97428    20616.835    1.0789884 
    2130    515.32502   -6922.9752     -6865.49   -678.70909    20656.829    1.0911004 
    2140    514.20598   -6921.5947   -6864.2342   -1297.6148    20695.805    1.1041507 
    2150     508.5917   -6919.6908   -6862.9566   -1560.5185    20732.857    1.1180107 
    2160    507.02396   -6918.2182   -6861.6589   -1837.4969    20767.512    1.1317626 
    2170    516.93764   -6917.9854   -6860.3202   -1911.1156    20799.361    1.1451559 
    2180    527.05327   -6917.7399   -6858.9463   -1581.3565    20828.321    1.1592273 
    2190    551.07521   -6919.0162    -6857.543   -1432.8139    20854.784    1.1748694 
    2200    557.38637   -6918.2883    -6856.111   -1479.2595    20878.953    1.1935678 
    2210    547.99182   -6915.8348   -6854.7055   -1870.3572    20900.738    1.2136004 
    2220    556.68431   -6915.3906   -6853.2916   -2714.5992    20919.541    1.2314097 
    2230    572.35399   -6915.6808   -6851.8338   -3217.0075    20934.254    1.2459635 
    2240    585.84497    -6915.705   -6850.3531   -3309.7463    20944.166    1.2573665 
    2250    584.81433   -6914.1125   -6848.8756   -2620.8223     20949.25    1.2658266 
    2260    588.16507   -6913.0137    -6847.403   -1852.6089    20950.451    1.2714303 
    2270     597.9649   -6912.6179    -6845.914   -1355.3317    20948.895    1.2756128 
    2280    597.07377   -6911.0346   -6844.4301    -749.7297    20945.392    1.2807417 
    2290    591.71442   -6908.9744   -6842.9678   -388.56829      20940.8    1.2868039 
    2300    595.99547   -6907.9939   -6841.5097   -684.50571    20935.613    1.2930441 
    2310    603.08846   -6907.3087   -6840.0332   -1050.5509    20929.504    1.2994396 
    2320     628.0621   -6908.5895   -6838.5283   -1151.0486    20921.985    1.3058652 
    2330     647.6892   -6909.2389   -6836.9882   -791.67923    20912.965    1.3144892 
    2340    643.30685   -6907.2264   -6835.4645    37.373975    20903.005    1.3268152 
    2350    639.27327   -6905.2768   -6833.9649    747.58341    20893.252    1.3412864 
    2360    641.20157    -6903.997     -6832.47    1002.3915    20884.701     1.356677 
    2370    646.39108   -6903.0858   -6830.9799    917.74294    20877.721    1.3727861 
    2380    656.23943   -6902.6887   -6829.4842    573.72153    20872.152    1.3902059 
    2390     673.6098   -6903.1191   -6827.9769    361.28224    20867.536    1.4087159 
    2400     680.5944   -6902.4004   -6826.4791    802.41869     20863.63     1.426478 
    2410    672.40949   -6900.0342   -6825.0259    1483.2911    20860.996     1.442561 
    2420    688.30305   -6900.3806   -6823.5994    1563.6348    20860.481    1.4567342 
    2430    692.82304   -6899.4598   -6822.1744    1311.6065    20862.195    1.4711742 
    2440    668.17454   -6895.3365   -6820.8006    1222.5948    20865.806    1.4880628 
    2450    676.31267   -6894.8873   -6819.4436    843.86543    20871.068    1.5053297 
    2460    687.14118   -6894.6997   -6818.0481    675.73728    20877.491    1.5206143 
    2470    689.09431   -6893.5268   -6816.6573    692.22967    20884.808    1.5324967 
    2480    709.08602    -6894.375   -6815.2753    663.41603    20893.003    1.5413832 
    2490    743.42846   -6896.8273   -6813.8967    584.22967    20902.025    1.5502235 
    2500    763.15173   -6897.7061   -6812.5754    666.43269    20911.763    1.5634723 
    2510    742.43494   -6894.1894   -6811.3697    990.26371     20922.35    1.5826529 
    2520    745.76451   -6893.4546   -6810.2635    854.90219    20934.151    1.6046021 
    2530    750.97624   -6892.9679   -6809.1953    786.17475    20947.032    1.6267209 
    2540    738.05808    -6890.521   -6808.1895     1114.239    20960.943    1.6464349 
    2550     729.1387   -6888.5612   -6807.2247     1286.376    20976.269    1.6600188 
    2560    749.26035   -6889.8494   -6806.2683    944.91033    20993.167     1.668074 
    2570    744.75962   -6888.4033   -6805.3243    1012.0797     21011.27    1.6781103 
    2580    733.71612   -6886.2753   -6804.4282    1139.3217    21030.616    1.6924122 
    2590    735.73028   -6885.6024   -6803.5306    940.47716    21051.327    1.7079071 
    2600    759.67562   -6887.3714   -6802.6285    511.81707    21073.085    1.7225708 
    2610    783.52433    -6889.151   -6801.7477    381.30475    21095.323    1.7404177 
    2620    764.07407   -6886.1907   -6800.9571    865.56537    21117.858    1.7654931 
    2630    744.49581   -6883.3036   -6800.2539     1535.008    21141.354    1.7923775 
    2640    758.14272   -6884.1439   -6799.5719     1550.079    21166.674    1.8146434 
    2650    770.02998   -6884.7958   -6798.8978    803.65529    21193.806     1.833574 
    2660    791.51627   -6886.5517   -6798.2568   -130.46583    21221.689    1.8523768 
    2670    816.13459   -6888.7334   -6797.6923   -596.03788    21248.982    1.8721913 
    2680    803.29872   -6886.8806   -6797.2715   -198.81491    21275.056    1.8946352 
    2690    785.77864   -6884.6548        -6797    179.97945    21300.387    1.9198124 
    2700    779.32813   -6883.7662    -6796.831    30.072653    21325.481    1.9452602 
    2710    776.84264   -6883.3858   -6796.7278   -535.53325    21350.125    1.9692546 
    2720    778.68076   -6883.5407   -6796.6777   -1339.9231    21373.494    1.9935017 
    2730    772.20509   -6882.8094   -6796.6687   -1765.1352    21394.477    2.0198117 
    2740    779.49193   -6883.6592   -6796.7057   -2006.9663     21412.41    2.0465397 
    2750    786.00629   -6884.4887   -6796.8085   -2036.7379    21426.979    2.0719935 
    2760     783.2497   -6884.3741   -6797.0014   -1742.2524    21438.226    2.0964216 
    2770    779.16535   -6884.1961    -6797.279   -1516.0252    21446.595    2.1192956 
    2780    773.35339   -6883.9008    -6797.632    -1448.637    21452.475    2.1396237 
    2790    758.74268   -6882.6816   -6798.0427   -1320.9581     21456.05    2.1574236 
    2800    728.95115   -6879.7777   -6798.4621   -1181.4981    21457.545    2.1733343 
    2810    719.98322   -6879.1464   -6798.8312   -1321.4652    21457.183    2.1864266 
    2820    740.77383   -6881.7837   -6799.1493   -1647.0447    21454.793    2.1963091 
    2830    758.81048   -6884.1031   -6799.4566   -1782.8491    21449.976    2.2053671 
    2840    758.56613   -6884.4016   -6799.7824   -1550.7323    21442.592    2.2138773 
    2850    747.00496    -6883.438   -6800.1084   -1218.9919    21432.995    2.2237017 
    2860    754.00374   -6884.5411   -6800.4309   -1270.7911    21421.651    2.2378764 
    2870    767.76328   -6886.4149   -6800.7697   -1249.7619    21408.614    2.2556278 
    2880      768.529   -6886.8796    -6801.149   -1251.3425    21393.916    2.2746999 
    2890    763.92627   -6886.7835   -6801.5663   -1181.7558    21377.596    2.2940465 
    2900    769.37748   -6887.8435   -6802.0183   -1236.2392    21359.761    2.3129127 
    2910    760.95354   -6887.3968   -6802.5113   -1011.7035    21340.433    2.3314513 
    2920     732.5905   -6884.7278   -6803.0062   -574.86191    21319.975    2.3486853 
    2930     720.8324   -6883.8621   -6803.4522    -507.9225    21298.975    2.3600939 
    2940    726.41473    -6884.866   -6803.8333   -212.19201    21277.644    2.3656819 
    2950    734.60859   -6886.0987    -6804.152    235.25234    21256.418    2.3694057 
    2960    745.33419   -6887.5803   -6804.4371     630.6037    21235.923    2.3728721 
    2970     755.0221   -6888.9339   -6804.7101    644.09245    21216.685    2.3756512 
    2980     758.1838   -6889.5774   -6805.0009    533.99184    21198.749    2.3793584 
    2990    756.99001   -6889.7554   -6805.3121    338.37276     21181.91    2.3867908 
    3000    764.48429   -6890.9314    -6805.652    335.50548    21165.892    2.3980265 
    3010    764.13714   -6891.2633   -6806.0226    770.98803    21150.709    2.4120266 
    3020    753.60046   -6890.4835   -6806.4182    1199.1709    21136.906    2.4259071 
    3030    742.13725   -6889.5985    -6806.812    1915.6438    21125.175    2.4372114 
    3040    741.29885   -6889.8777   -6807.1847    2116.5918    21116.405    2.4478298 
    3050    749.72208   -6891.1817    -6807.549     1625.544    21110.822    2.4613779 
    3060    748.29314   -6891.3861   -6807.9129    885.43551    21107.691    2.4787091 
    3070    753.89025   -6892.3769   -6808.2794    337.69784    21105.949    2.4956242 
    3080    748.99171   -6892.1996   -6808.6485   -110.64062    21104.743      2.51007 
    3090    731.66384   -6890.6213   -6809.0031   -289.74911    21103.409    2.5230726 
    3100    716.31531   -6889.2159   -6809.3099   -126.98267    21101.704    2.5371028 
    3110    713.78913   -6889.1697   -6809.5455   -202.70265    21099.792    2.5553298 
    3120     720.8773   -6890.1263   -6809.7113   -174.98833    21097.626    2.5797697 
    3130     713.9918   -6889.4536   -6809.8067    208.55463    21095.262    2.6090977 
    3140    706.06066   -6888.5873   -6809.8252    567.95242    21093.234    2.6378097 
    3150     704.4625   -6888.3336   -6809.7498    556.94906    21092.032    2.6601867 
    3160    715.33773   -6889.3832   -6809.5862    479.24822    21091.659    2.6731069 
    3170    715.35391   -6889.1383   -6809.3395    895.93025    21092.085    2.6789134 
    3180    727.93653   -6890.2295   -6809.0271    1263.0424    21093.823    2.6823024 
    3190    739.40171   -6891.1429   -6808.6616    1420.0385    21097.402    2.6879746 
    3200    739.71135   -6890.7859     -6808.27    1370.4046    21103.038    2.6999245 
    3210    733.19671   -6889.6452    -6807.856    1237.9014    21110.669    2.7215928 
    3220    733.66435   -6889.2514     -6807.41    740.83333     21120.03    2.7509957 
    3230    751.83071   -6890.7996   -6806.9318    300.06021    21130.458    2.7821694 
    3240    756.95738   -6890.8831   -6806.4433    243.99522     21141.33    2.8130433 
    3250    752.37371    -6889.905   -6805.9766    233.85857    21152.491    2.8426273 
    3260    748.35424   -6888.9994   -6805.5193    387.29881    21163.979    2.8692286 
    3270    736.97218   -6887.2741   -6805.0637    544.71751    21176.002      2.89204 
    3280    731.62713   -6886.2055   -6804.5914    448.06313    21188.765    2.9098017 
    3290    737.54445   -6886.3574   -6804.0833   -45.952107    21202.095    2.9244407 
    3300    755.60583   -6887.8312   -6803.5422   -695.08866    21215.273    2.9401212 
    3310    762.08254   -6888.0146   -6803.0032    -961.4153    21227.403    2.9605987 
    3320    763.30881   -6887.6472    -6802.499   -1032.5646    21238.058    2.9857103 
    3330    747.82575   -6885.4523   -6802.0312   -460.02293    21247.229    3.0127721 
    3340     737.3446   -6883.8332   -6801.5813    298.88448    21255.707    3.0388319 
    3350    744.18488   -6884.1336   -6801.1186     597.7798    21264.532    3.0619573 
    3360    736.94688   -6882.8494   -6800.6418    661.01004    21274.209    3.0815806 
    3370    740.35618   -6882.7375   -6800.1497    448.25213    21284.838      3.09893 
    3380    765.53416   -6885.0331   -6799.6366   -213.77199    21296.064    3.1172732 
    3390    782.76538   -6886.4635   -6799.1448   -764.51357    21306.964    3.1406018 
    3400    776.97243   -6885.3976   -6798.7252   -493.87574    21316.814    3.1691701 
    3410    751.14644   -6882.1671   -6798.3756    69.847583    21325.924    3.1994761 
    3420     731.8235   -6879.6786   -6798.0426      334.141    21335.094    3.2258285 
    3430    743.57201   -6880.6256   -6797.6791   -15.467425    21344.658    3.2453634 
    3440    755.03703   -6881.5116   -6797.2861    27.892883    21354.262    3.2596517 
    3450    757.19464   -6881.3677   -6796.9015     200.0791    21363.923     3.270019 
    3460    759.90854   -6881.3059   -6796.5369    123.47393     21373.84    3.2769615 
    3470    761.38938    -6881.132   -6796.1978    284.16291    21383.977    3.2824898 
    3480    761.01249   -6880.7819   -6795.8899    304.54118    21394.509    3.2889155 
    3490    758.49465   -6880.2133   -6795.6021    38.121124    21405.469    3.2988718 
    3500    768.60874   -6881.0715    -6795.332   -612.17902    21416.417    3.3154104 
    3510    778.34756   -6881.9143   -6795.0885   -970.10779    21426.468    3.3397756 
    3520    797.56914   -6883.8829   -6794.9129   -982.88907    21435.078    3.3685701 
    3530    806.46198   -6884.8077   -6794.8457   -841.06449    21442.195    3.3992331 
    3540    798.34269   -6883.9716   -6794.9152    -582.0445    21448.023    3.4292865 
    3550    777.53004   -6881.8314   -6795.0968   -323.65863    21452.946    3.4568949 
    3560     764.1894   -6880.5883   -6795.3418    -444.7978    21457.304    3.4816545 
    3570    765.08513   -6880.9666   -6795.6202   -647.25346    21460.959    3.5047917 
    3580    767.09001   -6881.5029   -6795.9329    -626.6106     21463.65    3.5297172 
    3590    755.01609   -6880.4955   -6796.2724   -532.52405    21465.396     3.555531 
    3600    749.92106    -6880.278   -6796.6232   -521.78326    21466.312    3.5755242 
    3610    752.62251   -6880.9382    -6796.982   -472.94567    21466.436    3.5876304 
    3620    744.58446   -6880.3943   -6797.3348   -385.05275    21465.856    3.5961636 
    3630    748.34933   -6881.1622   -6797.6827    -558.7969    21464.645    3.6047501 
    3640    738.13644   -6880.3547   -6798.0144   -562.13885    21462.614    3.6148837 
    3650    743.54015   -6881.2699   -6798.3269   -589.37767    21459.716    3.6257101 
    3660    746.88659   -6881.9438   -6798.6275   -637.85849     21455.91    3.6383434 
    3670    731.28248   -6880.4846   -6798.9089   -607.33984    21451.125    3.6530018 
    3680    734.41481   -6881.0827   -6799.1576    -874.0422     21445.35    3.6682278 
    3690    752.70574   -6883.3459   -6799.3805   -1247.3158    21438.225    3.6843867 
    3700    770.49601   -6885.5705   -6799.6205   -1196.5296    21429.246    3.7024235 
    3710    767.19361    -6885.487   -6799.9054   -863.92193    21418.449    3.7219934 
    3720    741.38101   -6882.9179   -6800.2157   -257.10694    21406.365    3.7414155 
    3730    716.23881    -6880.392   -6800.4945    316.41667    21393.894    3.7590909 
    3740    701.03112   -6878.8978   -6800.6968    448.02428    21381.842    3.7732959 
    3750    707.56096   -6879.7293   -6800.7998    265.87697     21370.44    3.7852203 
    3760    741.04223    -6883.494   -6800.8297   -232.89565    21359.388      3.79776 
    3770    751.69696   -6884.6825   -6800.8295   -261.31955    21348.028    3.8122233 
    3780    751.79776   -6884.6976   -6800.8334   -143.12876    21336.282    3.8278453 
    3790    736.28801   -6882.9694   -6800.8353    61.482051    21324.321    3.8453522 
    3800    719.64107   -6881.0803   -6800.8032    415.27497    21312.461    3.8642633 
    3810    732.97216   -6882.4838   -6800.7197    212.33502     21301.14    3.8825491 
    3820    730.20262   -6882.0441   -6800.5889    234.41649    21290.183    3.9010261 
    3830    720.57503   -6880.7966   -6800.4154    251.53428     21279.56    3.9188176 
    3840    723.10704   -6880.8457    -6800.182    101.08988    21269.272     3.933244 
    3850    728.28007   -6881.1237   -6799.8829    43.893303    21259.125    3.9430315 
    3860    750.97015   -6883.3036   -6799.5318   -120.42816    21249.011    3.9482178 
    3870    789.93504   -6887.2939   -6799.1755   -411.90015    21238.669     3.951719 
    3880    800.68428   -6888.2092   -6798.8916   -345.41563    21227.729    3.9581846 
    3890    785.95271   -6886.4012    -6798.727   -118.13662    21216.256      3.96885 
    3900      765.953   -6884.0913   -6798.6481    282.05861    21204.594    3.9785941 
    3910    746.30849   -6881.8527   -6798.6008    731.89308    21193.347    3.9836243 
    3920    749.76535   -6882.1945    -6798.557    496.88208    21183.079    3.9829625 
    3930    753.90177   -6882.6022   -6798.5033    7.7743797    21173.504     3.981558 
    3940    765.95891    -6883.909   -6798.4651   -3.4188589    21163.976    3.9866504 
    3950    761.36256   -6883.3743   -6798.4432    578.37625    21154.499    4.0009404 
    3960    759.33329   -6883.1563   -6798.4515    1255.2186    21145.864      4.02288 
    3970    751.34636   -6882.2923   -6798.4785    1711.7456    21139.047    4.0522204 
    3980     754.5934   -6882.6939   -6798.5179     1722.121    21134.711    4.0851616 
    3990    757.75105   -6883.1032   -6798.5749    1799.6563    21132.947    4.1180957 
    4000    743.16298    -6881.547   -6798.6461    2315.3815    21133.956    4.1463852 
    4010    745.59309   -6881.8909   -6798.7188    2494.8164    21138.413    4.1650921 
    4020    752.26323   -6882.7023   -6798.7862    2291.5546    21146.611    4.1747123 
    4030    768.48931   -6884.5934   -6798.8673    1624.5747    21158.235    4.1814501 
    4040    765.66036   -6884.3891   -6798.9786    1006.4163    21172.396    4.1924967 
    4050    748.85498   -6882.6507   -6799.1148    690.28889    21188.196    4.2079998 
    4060    742.55372   -6882.0886   -6799.2557    858.26036    21205.212    4.2241438 
    4070     742.4811   -6882.2113   -6799.3865    1243.0523    21223.655    4.2383658 
    4080    731.83242   -6881.1474   -6799.5104    1919.9967    21244.134    4.2478961 
    4090    720.33756   -6879.9619   -6799.6071    2208.7672    21267.608    4.2529021 
    4100    736.66276   -6881.8276   -6799.6518    1149.9214    21294.376    4.2566906 
    4110    752.98005   -6883.6331    -6799.637   -132.35455    21323.045     4.259119 
    4120    765.23562   -6884.9754   -6799.6122   -1059.9284    21351.707    4.2591704 
    4130    762.51735   -6884.6632   -6799.6032   -1495.0547    21378.953    4.2597719 
    4140    748.70441   -6883.1315   -6799.6124   -1725.3492    21404.052    4.2653465 
    4150    733.15788   -6881.4006   -6799.6158   -1946.2558    21426.584    4.2768453 
    4160    714.80018   -6879.3182   -6799.5812   -1740.4681    21446.269    4.2913745 
    4170    731.32128   -6881.0766   -6799.4966   -1527.9642    21463.333    4.3034123 
    4180    749.61175   -6882.9919   -6799.3716   -1252.1798    21478.086    4.3117413 
    4190    738.92682   -6881.6604    -6799.232   -783.26661    21490.974    4.3204852 
    4200    734.69247   -6881.0262   -6799.0702   -798.78131    21502.603    4.3315523 
    4210    738.83848   -6881.2906   -6798.8721   -779.30333    21513.049    4.3411774 
    4220     744.4767   -6881.6844   -6798.6369   -702.86354    21522.331    4.3443247 
    4230    758.40126   -6882.9884   -6798.3876    -715.9814    21530.526    4.3414182 
    4240    757.60762   -6882.6561   -6798.1438   -511.69331     21537.67    4.3365908 
    4250    764.88962   -6883.2522   -6797.9276   -408.56316     21544.01    4.3321133 
    4260    743.98498   -6880.7238   -6797.7312     184.6804    21549.824    4.3300657 
    4270    730.37713   -6879.0084   -6797.5338    838.81441    21555.966    4.3300711 
    4280    732.84269   -6879.0429   -6797.2932    1027.3958     21563.38     4.331157 
    4290    735.47399   -6879.0434   -6797.0002    991.66406    21572.427    4.3334166 
    4300    749.93042    -6880.325   -6796.6692    700.51567     21583.04    4.3361375 
    4310    751.01521   -6880.0988    -6796.322    647.60234     21594.84     4.338725 
    4320    743.60006   -6878.9244   -6795.9747    717.40872    21607.737     4.339619 
    4330    753.75978   -6879.6971   -6795.6141    359.61394    21621.746    4.3378216 
    4340    772.04882   -6881.3717   -6795.2485   -427.05865    21636.324    4.3324682 
    4350    793.98373   -6883.4844   -6794.9144   -1323.9002    21650.299    4.3253009 
    4360    794.16792   -6883.2593   -6794.6687    -1678.117    21662.338    4.3209349 
    4370     776.2268   -6881.1121   -6794.5228   -1394.4902     21671.89    4.3209212 
    4380    772.23683   -6880.5996   -6794.4554   -960.82157    21679.314    4.3247571 
    4390    757.97607    -6878.986   -6794.4326   -638.60586    21685.254    4.3327373 
    4400    764.19735   -6879.6858   -6794.4385   -721.04577    21690.154    4.3439813 
    4410    779.85192   -6881.4755   -6794.4818   -645.71846    21693.975    4.3571278 
    4420    756.74341    -6878.999   -6794.5831   -255.78268    21696.844    4.3694393 
    4430     747.3263    -6878.081   -6794.7157   -250.49169     21699.26    4.3753195 
    4440    767.53976   -6880.4836   -6794.8633   -653.43239    21701.228     4.374214 
    4450    765.83769   -6880.4718   -6795.0415   -488.76351    21702.274     4.371382 
    4460    756.70282   -6879.6676   -6795.2563   -257.67364     21702.56    4.3715132 
    4470    754.94985   -6879.7155   -6795.4998   -212.36452    21702.429    4.3768899 
    4480    747.18317   -6879.1211   -6795.7717   -244.20124     21701.96    4.3862131 
    4490    734.95531   -6878.0353   -6796.0499   -233.64148    21701.121    4.3963916 
    4500    740.98726   -6878.9829   -6796.3246   -279.31587    21699.917    4.4048448 
    4510    752.46277   -6880.5489   -6796.6105   -525.51943    21698.246    4.4107833 
    4520    753.49205     -6880.98   -6796.9269   -683.74939     21695.77     4.416713 
    4530    747.24962   -6880.6315   -6797.2747   -702.33016    21692.243    4.4263533 
    4540     737.0577   -6879.8544   -6797.6345   -652.87497    21687.617    4.4383168 
    4550    741.17784   -6880.6739   -6797.9944   -862.24683    21681.913     4.447872 
    4560    747.79347   -6881.7825    -6798.365   -1002.3828    21674.835    4.4531907 
    4570    742.17328   -6881.5446   -6798.7541   -827.61805    21666.189    4.4547746 
    4580    746.66544   -6882.4582   -6799.1666   -702.05774      21656.2    4.4550645 
    4590    743.88774   -6882.5737   -6799.5919   -406.58365    21645.107     4.458735 
    4600    745.43056   -6883.1785   -6800.0246    -84.57895    21633.347    4.4678873 
    4610    743.14919   -6883.3532   -6800.4538   -333.91511    21621.347    4.4810227 
    4620    749.17812   -6884.4762   -6800.9042   -1029.8285    21608.722    4.4916186 
    4630    733.26488   -6883.1596   -6801.3628   -1084.9764    21594.539     4.494715 
    4640    713.39345   -6881.3731    -6801.793   -574.72749    21578.684    4.4917619 
    4650    697.86596   -6879.9892   -6802.1412   -172.35812    21561.866    4.4860469 
    4660    699.54426    -6880.429   -6802.3938   -446.37784    21544.615    4.4796199 
    4670    697.64477    -6880.366   -6802.5426   -528.48432    21526.647    4.4772576 
    4680    703.19546   -6881.0263   -6802.5838    189.17223    21507.923    4.4823534 
    4690    718.01358   -6882.6184   -6802.5229    1087.0947    21489.436    4.4930684 
    4700    719.10829   -6882.5889   -6802.3713    2009.6205    21472.588    4.5021587 
    4710    723.52739    -6882.847   -6802.1364    2229.2268    21458.697    4.5039993 
    4720    733.09338   -6883.5981   -6801.8204    2021.0184    21448.152    4.5014528 
    4730    729.39242   -6882.7844   -6801.4196    1551.2551    21440.655    4.5007796 
    4740    728.95285   -6882.2402   -6800.9244    854.39904    21435.489    4.5030084 
    4750    724.60007   -6881.1427   -6800.3125    685.58902    21431.698    4.5069002 
    4760    726.64877   -6880.6317    -6799.573    905.04367    21429.016    4.5122072 
    4770    732.17444   -6880.3968   -6798.7216        857.5    21427.681    4.5203591 
    4780    741.72318   -6880.5448   -6797.8044    574.40444    21427.636    4.5309728 
    4790    758.78455   -6881.5395    -6796.896     245.9105    21428.452    4.5415017 
    4800    766.76888   -6881.6225   -6796.0882    421.50806     21429.74    4.5501652 
    4810    771.25445   -6881.4824   -6795.4478    572.97669    21431.679    4.5566683 
    4820     756.9809   -6879.4175   -6794.9751     832.2064    21434.551    4.5617982 
    4830    756.41028   -6879.0129   -6794.6342     574.7903    21438.662    4.5647547 
    4840    762.17696   -6879.4004   -6794.3784   -86.032916    21443.646    4.5667994 
    4850    764.46039     -6879.47   -6794.1933   -602.20181    21448.551    4.5712831 
    4860    767.04367   -6879.6331   -6794.0682   -657.84052    21452.628    4.5797118 
    4870    764.33923    -6879.259   -6793.9958   -520.43623    21455.758    4.5938182 
    4880    758.50218   -6878.5717   -6793.9596   -340.98335    21458.112      4.61119 
    4890     750.3259   -6877.6485   -6793.9486    106.79168     21459.99    4.6260656 
    4900    738.17627   -6876.2843   -6793.9396    450.38052    21462.019    4.6362123 
    4910    750.30253   -6877.6151   -6793.9178    658.65093    21464.748    4.6411642 
    4920    764.50051    -6879.182   -6793.9008    1105.1769    21468.561    4.6422655 
    4930    746.43413   -6877.1703   -6793.9044    1721.8511    21474.148    4.6441691 
    4940    740.37856   -6876.5042   -6793.9138    1648.5482    21482.355    4.6495613 
    4950     745.4074   -6877.0544   -6793.9031    1112.1093    21493.142    4.6587374 
    4960    745.51516   -6877.0421   -6793.8788    523.61191     21505.76    4.6723001 
    4970    750.94955   -6877.6096   -6793.8401   -75.206577     21519.31    4.6881996 
    4980    768.64643   -6879.5452   -6793.8015   -268.59941    21532.945    4.7012276 
    4990    781.66149   -6880.9981   -6793.8026   -378.25906    21546.299    4.7080448 
    5000    775.00509    -6880.323     -6793.87   -415.03868    21559.208    4.7088876 
Loop time of 2183.18 on 16 procs for 3000 steps with 864 atoms

Performance: 0.119 ns/day, 202.147 hours/ns, 1.374 timesteps/s
97.7% CPU use with 16 MPI tasks x 1 OpenMP threads

MPI task timing breakdown:
Section |  min time  |  avg time  |  max time  |%varavg| %total
---------------------------------------------------------------
Pair    | 1302.1     | 1824.2     | 2172.9     | 506.8 | 83.55
Bond    | 0.00025773 | 0.00079881 | 0.0024624  |   0.0 |  0.00
Neigh   | 0.028811   | 0.04151    | 0.055283   |   4.0 |  0.00
Comm    | 9.61       | 257.64     | 728.64     |1285.9 | 11.80
Output  | 0.20602    | 0.20957    | 0.26184    |   2.9 |  0.01
Modify  | 0.43654    | 101.12     | 199.96     | 792.9 |  4.63
Other   |            | 0.01726    |            |       |  0.00

Nlocal:        54.0000 ave          71 max          42 min
Histogram: 2 2 3 1 2 2 1 1 0 2
Nghost:        482.812 ave         544 max         436 min
Histogram: 2 3 2 1 3 0 1 0 3 1
Neighs:         0.00000 ave           0 max           0 min
Histogram: 16 0 0 0 0 0 0 0 0 0
FullNghs:      2198.50 ave        3443 max        1412 min
Histogram: 2 5 0 3 0 1 3 0 0 2

Total # of neighbors = 35176
Ave neighs/atom = 40.712963
Ave special neighs/atom = 0.0000000
Neighbor list builds = 300
Dangerous builds = 300
unfix   2

fix     3 all npt temp 750.0 750.0 $(100.0*dt) aniso 1.01325 1.01325 $(1000.0*dt)
fix     3 all npt temp 750.0 750.0 0.10000000000000000555 aniso 1.01325 1.01325 $(1000.0*dt)
fix     3 all npt temp 750.0 750.0 0.10000000000000000555 aniso 1.01325 1.01325 1
run     20000
Per MPI rank memory allocation (min/avg/max) = 8.898 | 8.906 | 8.914 Mbytes
Step Temp PotEng TotEng Press Volume c_msd[4] 
    5000    775.00509    -6880.323     -6793.87   -415.03868    21559.208    4.7088876 
    5010    768.92157   -6879.6703    -6793.896   -74.789296    21558.973    4.7028242 
    5020    763.81259   -6879.1691   -6793.9646    343.16575    21558.637    4.7014061 
    5030    757.30315   -6878.5436   -6794.0652    543.34857    21558.813    4.7103543 
    5040    754.05464   -6878.3039    -6794.188    335.41025    21559.789    4.7282781 
    5050    747.51809   -6877.7054   -6794.3186    136.06697    21561.297    4.7489531 
    5060    767.58523   -6880.0872   -6794.4619  -0.71573767    21563.042     4.766238 
    5070    790.03058   -6882.7972   -6794.6681   -105.58874    21564.788    4.7779461 
    5080    753.02173   -6878.9523   -6794.9516    520.16962    21566.517    4.7854133 
    5090    743.28537   -6878.1873   -6795.2727    368.53079    21568.951    4.7892642 
    5100    739.97549   -6878.1485   -6795.6031    117.21493     21571.97    4.7950833 
    5110    729.07137   -6877.2593   -6795.9303     203.5193    21575.239      4.80817 
    5120    725.03942   -6877.1291   -6796.2498    143.48788    21578.821    4.8292898 
    5130    703.94464   -6875.0525   -6796.5265    141.16509    21582.673    4.8544564 
    5140    707.51779    -6875.674   -6796.7493   -216.35965    21586.707     4.876002 
    5150    704.07752   -6875.4362   -6796.8953   -378.81146    21590.473     4.892482 
    5160    720.08348   -6877.2945   -6796.9681   -825.04301    21593.636    4.9040736 
    5170    748.37134   -6880.4707   -6796.9887   -1484.6287    21595.482    4.9099694 
    5180    750.87205   -6880.7608   -6796.9999   -1432.3822    21595.125    4.9130831 
    5190    753.24945   -6881.0485   -6797.0224   -1258.0626    21592.532    4.9163758 
    5200    768.27402   -6882.7667   -6797.0646   -1302.4005    21587.939    4.9210048 
    5210    773.91411   -6883.4902   -6797.1589   -1359.4684    21581.278    4.9273537 
    5220    766.56389   -6882.8402   -6797.3288   -1398.4132    21572.444    4.9326121 
    5230    762.17435   -6882.5914   -6797.5697   -1462.8852    21561.374    4.9324676 
    5240    772.03315    -6884.015   -6797.8936   -1559.2862    21547.964    4.9253436 
    5250    770.67156   -6884.2964   -6798.3269   -1459.7214    21532.079    4.9125946 
    5260    745.56749   -6882.0095   -6798.8403   -789.17213    21513.942    4.8984282 
    5270    739.46015   -6881.8787   -6799.3908   -419.67035    21494.429    4.8865164 
    5280    726.92112   -6881.0309   -6799.9417    144.04098    21474.198    4.8807085 
    5290    721.10613   -6880.8949   -6800.4544    719.49322     21454.09    4.8823204 
    5300    721.68514   -6881.4136   -6800.9085    732.08342    21434.922    4.8872446 
    5310    736.30368   -6883.4512   -6801.3154    483.14297    21416.757     4.890194 
    5320     739.2403   -6884.1478   -6801.6844    367.94793    21399.274    4.8923107 
    5330    734.13209   -6883.9212   -6802.0276    270.09989    21382.278    4.8945489 
    5340    722.82888   -6882.9641   -6802.3314   -53.703664      21365.6    4.8993907 
    5350    724.71857   -6883.4382   -6802.5947   -387.70952    21348.765    4.9100672 
    5360    718.64555    -6882.969    -6802.803   -144.70704    21331.375    4.9258311 
    5370    716.60444   -6882.8868   -6802.9485    147.41748    21313.699    4.9411548 
    5380    715.99183   -6882.8885   -6803.0185     696.3737    21296.236    4.9496987 
    5390    730.08066   -6884.4612   -6803.0196    1232.9565    21279.796     4.949336 
    5400    742.24963   -6885.7761   -6802.9771    1362.7193    21265.136    4.9433437 
    5410       742.13    -6885.698   -6802.9123    1308.8579    21252.495    4.9364354 
    5420    740.27682   -6885.4002   -6802.8212    1365.1894    21241.835     4.931869 
    5430    742.52102   -6885.5215   -6802.6922    1509.7187    21233.243    4.9329738 
    5440     754.0843   -6886.6568   -6802.5375    1645.3002     21226.91    4.9432515 
    5450    740.79455   -6884.9992   -6802.3625    2212.5836     21223.14    4.9654811 
    5460    728.31986   -6883.4062   -6802.1611    2505.5874    21222.667    4.9952526 
    5470    717.03233   -6881.8843   -6801.8983    2796.6579     21225.99     5.029027 
    5480    725.23222   -6882.4492   -6801.5484    2895.9995    21233.525    5.0658054 
    5490    751.53884   -6884.9419   -6801.1066    2453.3448    21245.334    5.1044681 
    5500    765.35414   -6885.9861   -6800.6097    2273.5705    21260.868    5.1453509 
    5510    781.63516   -6887.2995    -6800.107    2085.8054    21279.816    5.1884994 
    5520    784.17586   -6887.1129   -6799.6369    1583.9349    21301.832    5.2362964 
    5530    764.80889   -6884.5337   -6799.2181    1213.4352    21326.205    5.2908967 
    5540    762.05532   -6883.8426   -6798.8341     482.9153    21352.263    5.3490786 
    5550     762.2219   -6883.4797   -6798.4527   -329.65914    21378.944     5.404629 
    5560    747.77972   -6881.4847   -6798.0687   -503.86175    21405.109    5.4573324 
    5570    745.54052    -6880.839   -6797.6729   -706.13438    21430.344    5.5106902 
    5580     744.3687   -6880.2822   -6797.2468   -307.83123    21454.477    5.5657337 
    5590    748.57884   -6880.3098   -6796.8047    443.70703    21478.055    5.6195776 
    5600    738.08269   -6878.6756   -6796.3413    983.45972    21502.154    5.6708379 
    5610    753.44582   -6879.9032   -6795.8552    568.83816    21527.471     5.721042 
    5620    759.10442   -6880.0147   -6795.3354    -9.196292    21553.489    5.7733869 
    5630    763.87062   -6880.0337   -6794.8228   -821.44061    21579.261     5.828482 
    5640    769.90812   -6880.2144     -6794.33   -1524.6108    21603.571    5.8823427 
    5650    777.49491   -6880.6091   -6793.8784   -1950.6816    21625.342    5.9275181 
    5660    804.13858   -6883.2015   -6793.4986     -1894.73    21643.948    5.9608795 
    5670    804.88638   -6883.0282   -6793.2419   -1230.9589    21659.536    5.9857154 
    5680    793.27889    -6881.622   -6793.1306   -1356.7758     21672.92    6.0086561 
    5690      761.707   -6878.0876    -6793.118   -1523.8972    21684.084    6.0360616 
    5700    747.93823   -6876.5745   -6793.1408   -1902.6956    21692.719    6.0684296 
    5710    759.51886   -6877.8997   -6793.1742   -2317.5543    21698.282    6.1009373 
    5720    750.78862   -6876.9775   -6793.2259   -2228.5735    21700.232    6.1311286 
    5730    741.50667   -6876.0041   -6793.2879   -1866.7578    21698.714    6.1554713 
    5740    744.29365   -6876.3671   -6793.3401   -1534.1853    21694.283    6.1705054 
    5750    749.22522   -6876.9565   -6793.3793   -1224.6268      21687.5    6.1758597 
    5760    770.87987   -6879.4172   -6793.4244   -1145.0461    21678.824    6.1728926 
    5770     781.0708   -6880.6464   -6793.5168   -963.47087     21668.45    6.1649352 
    5780    776.10067   -6880.2656   -6793.6904   -952.96906    21656.642    6.1556163 
    5790    787.02031   -6881.7684   -6793.9751   -916.63078    21643.459    6.1487538 
    5800    777.26388     -6881.11   -6794.4051   -370.47559    21629.034    6.1454886 
    5810    760.53714    -6879.843    -6795.004    558.07996    21614.225    6.1410088 
    5820    749.14821   -6879.3545   -6795.7859     800.5189    21600.323    6.1323682 
    5830    734.98388   -6878.7308   -6796.7422    413.36296    21587.708    6.1187851 
    5840    727.72156   -6878.9928   -6797.8144   -102.28294    21575.828    6.0989475 
    5850    724.08933   -6879.6796   -6798.9064   -416.73138    21563.909    6.0757613 
    5860    714.92997   -6879.6287   -6799.8772   -273.51972    21551.512      6.05722 
    5870    716.22142   -6880.5613   -6800.6657   -313.34416    21538.752    6.0452928 
    5880    715.78633   -6881.0928   -6801.2457   -387.28598    21525.607    6.0368945 
    5890    728.49701   -6882.9285   -6801.6636   -452.15216    21511.955    6.0294501 
    5900    727.58408   -6883.1164   -6801.9533   -264.66052    21497.749    6.0241115 
    5910    725.25971   -6883.0466   -6802.1428   -64.370207    21483.245    6.0213987 
    5920     723.3737   -6882.9465   -6802.2531    50.568549    21468.722    6.0223911 
    5930    710.58245   -6881.5506    -6802.284    395.00787    21454.415    6.0286732 
    5940    713.67471   -6881.8502   -6802.2387    472.13063    21440.766    6.0359484 
    5950    725.54753   -6883.0593   -6802.1234    691.57568    21427.966    6.0393826 
    5960    729.37975   -6883.3203   -6801.9568    1247.4578    21416.368    6.0396122 
    5970    737.66523   -6884.0412   -6801.7535    1711.3372    21406.759    6.0415651 
    5980    754.59427   -6885.7131    -6801.537    1807.5792    21399.767    6.0470608 
    5990    747.97779    -6884.766   -6801.3279    2143.7441    21395.639    6.0581953 
    6000    744.50225    -6884.187   -6801.1367    2084.8066    21394.749    6.0761994 
    6010    736.30661   -6883.0676   -6800.9315     1739.965    21397.049    6.1023263 
    6020    759.72476   -6885.4629   -6800.7145    334.31169    21401.839    6.1369223 
    6030    772.40623   -6886.6621    -6800.499   -826.60755    21407.175    6.1777454 
    6040    762.25121     -6885.36   -6800.3298   -1108.8719    21411.335    6.2187674 
    6050    734.60335   -6882.1317   -6800.1856   -572.51729    21413.891    6.2537115 
    6060    728.75067   -6881.3126   -6800.0194   -139.27753    21415.546     6.281671 
    6070    742.38273   -6882.6216   -6799.8077   -245.98327    21416.907    6.3043027 
    6080     735.8252    -6881.641   -6799.5586   -497.15991    21417.866    6.3224856 
    6090    732.35127   -6880.9718    -6799.277   -892.88768    21418.043    6.3364213 
    6100    738.18945   -6881.2931    -6798.947   -975.02598    21416.922    6.3499104 
    6110    737.63153   -6880.8634   -6798.5795   -964.46617    21414.315    6.3631412 
    6120    733.87457   -6880.0385   -6798.1737   -745.25094    21410.274    6.3719148 
    6130    732.58686   -6879.4479   -6797.7268     215.6615    21405.214    6.3734344 
    6140    718.89093    -6877.422   -6797.2286    1563.9902    21400.559    6.3679892 
    6150    742.82646   -6879.5419   -6796.6785    1970.1715    21398.171    6.3577201 
    6160    769.63449   -6881.9589    -6796.105    2063.0193    21398.791    6.3491896 
    6170    770.23487   -6881.5097   -6795.5889    2153.7466    21402.568    6.3443209 
    6180    757.72787   -6879.6807   -6795.1551    2114.9649    21409.646    6.3402258 
    6190    761.78055   -6879.7565   -6794.7788    1490.5247    21419.892    6.3330976 
    6200    772.28304   -6880.6035   -6794.4542    1004.8254    21432.454     6.321002 
    6210    758.05729   -6878.7502   -6794.1877    833.06726    21446.619    6.3103838 
    6220    768.78659   -6879.7303    -6793.971    380.02961    21462.031    6.3086016 
    6230    776.89107   -6880.4648   -6793.8014    199.21113    21478.082    6.3190226 
    6240    759.18637     -6878.39   -6793.7016    329.02689    21494.467    6.3409198 
    6250    740.47633   -6876.2383    -6793.637    738.87863    21511.412    6.3681345 
    6260    738.41681     -6875.94   -6793.5685    804.96355    21529.451    6.3948456 
    6270    744.16476   -6876.4912   -6793.4785    486.52501    21548.707    6.4192915 
    6280    757.34235   -6877.8648   -6793.3821     37.73183    21568.731     6.442161 
    6290    768.90435    -6879.072   -6793.2996   -283.04981    21588.841    6.4658655 
    6300    768.92514   -6879.0389   -6793.2642   -116.45698    21608.595    6.4928158 
    6310    745.56184   -6876.4329   -6793.2644     15.57462    21628.188    6.5237858 
    6320    751.54125   -6877.1019   -6793.2663   -565.41641     21647.73    6.5576742 
    6330    767.61769   -6878.8907   -6793.2618   -1272.1148    21666.394    6.5909648 
    6340    776.18513   -6879.8763   -6793.2916   -1850.1978    21683.085    6.6178396 
    6350    766.27567   -6878.8458   -6793.3666   -2334.3037    21696.883    6.6366285 
    6360     755.3322   -6877.7345    -6793.476   -2717.4376    21707.017    6.6485714 
    6370    753.86286   -6877.6882   -6793.5936   -2786.9644    21712.918    6.6601528 
    6380    755.77283   -6878.0303   -6793.7227   -2339.9657      21714.5    6.6762821 
    6390     743.3881   -6876.7775   -6793.8514   -1912.8398    21712.386    6.6917798 
    6400    734.35333   -6875.8777   -6793.9594   -2031.5241    21707.168    6.6992982 
    6410    732.25487   -6875.7154   -6794.0313   -1887.7285      21698.8    6.7002902 
    6420    736.07902    -6876.171   -6794.0603   -1557.2772    21687.466    6.6982097 
    6430    756.45526    -6878.451   -6794.0673   -1227.9569    21673.671    6.6893733 
    6440    769.09303   -6879.8762   -6794.0827    -575.2839    21657.982    6.6760888 
    6450    762.12975   -6879.1435   -6794.1267    120.90344    21641.363    6.6673976 
    6460    757.00861     -6878.63   -6794.1845    449.81564    21624.853    6.6653242 
    6470    767.27329   -6879.8516   -6794.2612    483.31093    21608.971    6.6647122 
    6480    766.65507   -6879.8839   -6794.3624    905.93854    21593.882    6.6627755 
    6490    750.08807   -6878.1464   -6794.4729    1650.6142    21580.242    6.6634886 
    6500    746.71627   -6877.8735   -6794.5762    1991.0761    21569.072    6.6689775 
    6510    736.61092    -6876.823    -6794.653    1868.0029    21560.909    6.6811978 
    6520    736.68008   -6876.8786   -6794.7008    1474.8313    21555.607    6.6999969 
    6530    735.58515   -6876.7682   -6794.7126    1287.2487    21552.627    6.7212081 
    6540    731.67545   -6876.3148   -6794.6953    1325.4003    21551.673    6.7397661 
    6550    738.64661    -6877.045   -6794.6479    1316.4541    21552.788    6.7580237 
    6560    756.50372   -6878.9817   -6794.5926    983.35483     21555.92    6.7798703 
    6570    760.23706   -6879.3563   -6794.5507    729.64212    21560.627    6.8036523 
    6580    766.88374   -6880.0903   -6794.5433    407.19523    21566.487    6.8277828 
    6590    759.80425   -6879.3239   -6794.5666    731.53979    21573.127    6.8532045 
    6600    748.06821   -6878.0565   -6794.6084    1409.9756    21580.999      6.88047 
    6610    738.73275   -6877.0515   -6794.6447      1955.94    21591.123    6.9079648 
    6620    738.98194   -6877.0998   -6794.6653    2295.2937    21604.379    6.9323128 
    6630    742.22985    -6877.466   -6794.6692    2215.9894    21621.292    6.9563166 
    6640    745.69327   -6877.8422    -6794.659    1724.9304    21641.785    6.9851926 
    6650    776.32662    -6881.247   -6794.6466    638.56116    21665.105    7.0199673 
    6660    795.49857   -6883.4166   -6794.6775   -265.64606    21689.674    7.0589659 
    6670    771.88517   -6880.8947   -6794.7898   -525.57196     21714.15    7.1005591 
    6680    747.95391   -6878.3707   -6794.9353   -1005.5836    21737.978    7.1448097 
    6690    749.03524   -6878.6277   -6795.0717   -1711.1304    21760.411    7.1863447 
    6700    740.91607   -6877.8386   -6795.1883   -2196.1897    21780.366    7.2163853 
    6710    729.71785    -6876.685   -6795.2838    -2162.441    21797.087    7.2336692 
    6720    731.98512   -6876.9994   -6795.3454   -1922.6157    21810.539     7.246644 
    6730    745.27773   -6878.5104   -6795.3736   -1736.0478    21821.031     7.262842 
    6740    764.79975   -6880.7135   -6795.3989   -1705.5397    21828.826    7.2856428 
    6750    759.64809   -6880.1845   -6795.4446   -1312.0633    21834.034    7.3163668 
    6760    751.63133   -6879.3593   -6795.5137   -1057.2978    21837.179     7.348543 
    6770    746.71012   -6878.8814   -6795.5847   -1187.5642    21838.619    7.3737806 
    6780    762.69754   -6880.7484   -6795.6683   -1623.1734     21838.12     7.390213 
    6790     757.4361   -6880.2722    -6795.779   -1879.1702    21835.041    7.4026085 
    6800    745.67805   -6879.0975    -6795.916   -1790.3361    21828.971    7.4138589 
    6810    741.00017   -6878.7174   -6796.0577   -1646.9522    21819.959     7.426429 
    6820    738.96961   -6878.6197   -6796.1865   -1253.7961    21808.256    7.4410727 
    6830     747.0289   -6879.6417   -6796.3095   -868.47507    21794.431    7.4541978 
    6840    751.83366   -6880.3052    -6796.437   -607.52269    21779.077    7.4616615 
    6850    749.25782   -6880.1631   -6796.5823   -442.91736    21762.583    7.4596603 
    6860    738.54222    -6879.128   -6796.7425    12.848719    21745.287    7.4520673 
    6870    745.84198   -6880.1185   -6796.9187    277.94568    21727.825    7.4486355 
    6880    742.43555   -6879.9361   -6797.1163    303.72735    21710.609    7.4536739 
    6890    737.91896   -6879.6625   -6797.3465    325.93017    21693.721    7.4634848 
    6900    733.86235   -6879.4518   -6797.5884    462.34213    21677.205      7.47582 
    6910    748.03048   -6881.2894   -6797.8455    353.13102    21661.229    7.4922162 
    6920    750.57483   -6881.8712   -6798.1434    453.59865    21645.682    7.5106249 
    6930    738.24637   -6880.8398   -6798.4873    1032.1846    21630.763    7.5224793 
    6940    726.13483   -6879.8514   -6798.8499    1418.3437    21617.285    7.5230296 
    6950    715.90235   -6879.0595   -6799.1995     1506.623    21605.854    7.5183926 
    6960    717.88922   -6879.5977   -6799.5161    1359.5223    21596.658     7.514404 
    6970    733.34512   -6881.6089   -6799.8032    956.86526    21589.483    7.5155049 
    6980    749.04955   -6883.6455   -6800.0879    366.11645    21583.708    7.5248319 
    6990    743.53093   -6883.3305   -6800.3885    233.97998     21578.52    7.5373337 
    7000    730.49992   -6882.1752   -6800.6868    520.91297    21573.692    7.5444712 
    7010    718.55375   -6881.1079   -6800.9521    898.11241    21569.627    7.5411426 
    7020      717.247   -6881.1713   -6801.1614    949.25914    21566.884    7.5306242 
    7030    737.56341    -6883.603   -6801.3267    598.43855    21565.555    7.5230549 
    7040    729.13388   -6882.8006   -6801.4646    726.31592    21565.221    7.5264647 
    7050    727.40742    -6882.712   -6801.5686    1220.5752    21566.089    7.5397871 
    7060    747.10072   -6884.9816   -6801.6414    1020.1214    21568.782    7.5577024 
    7070    739.13515   -6884.1451   -6801.6934    795.02616    21573.155    7.5739247 
    7080    738.66453   -6884.1211    -6801.722    346.21091     21578.82     7.579636 
    7090    738.01911   -6884.0515   -6801.7244   -110.76016     21585.13    7.5737286 
    7100    714.49732   -6881.3889   -6801.6856   -492.60798    21591.418    7.5655329 
    7110    706.76327   -6880.4221   -6801.5816   -1004.6557    21597.049    7.5617217 
    7120    689.47492   -6878.2807   -6801.3687   -1130.2804    21601.273    7.5617653 
    7130     696.8681   -6878.7563   -6801.0196   -874.06805    21603.863    7.5599079 
    7140    737.26564   -6882.7651    -6800.522   -748.34455    21605.112    7.5552881 
    7150    743.35272   -6882.8463   -6799.9242   -297.17992    21605.279    7.5530846 
    7160    733.38719   -6881.0981   -6799.2876     312.7843    21605.019    7.5555915 
    7170    740.77528   -6881.2523   -6798.6177    179.31849    21605.147    7.5616682 
    7180    736.66875   -6880.1081   -6797.9316    -255.0141    21605.529    7.5733949 
    7190    740.72655   -6879.8889   -6797.2598   -627.12493    21605.532    7.5902065 
    7200    755.07601   -6880.8512   -6796.6213    -1333.049    21604.477    7.6077277 
    7210     749.7901    -6879.698   -6796.0578   -1652.5781    21601.368    7.6246644 
    7220    729.72874   -6876.9714   -6795.5691   -1448.9847    21595.648    7.6443706 
    7230    735.69789   -6877.1893   -6795.1211   -1173.1202     21587.52    7.6667337 
    7240    752.04867   -6878.5944   -6794.7023   -815.39558    21577.379    7.6899915 
    7250    742.73437   -6877.1816   -6794.3284    -201.9588    21565.769    7.7155679 
    7260    752.05922   -6877.8902   -6793.9968     206.2806    21553.529    7.7435689 
    7270    757.23848   -6878.1744   -6793.7034    442.79274    21541.311    7.7705857 
    7280    755.38947   -6877.7233   -6793.4585     398.3576     21529.46    7.7937302 
    7290    751.07989   -6877.0385   -6793.2544    518.94932    21517.963     7.812531 
    7300    748.33326   -6876.5507    -6793.073    801.17664     21507.02    7.8257753 
    7310    757.01514   -6877.3508   -6792.9047    974.42231     21497.04    7.8294938 
    7320    769.35443   -6878.5864   -6792.7638    1021.0474    21488.321    7.8251858 
    7330    761.60337   -6877.6254   -6792.6674    1236.3195    21481.022    7.8186211 
    7340    762.35947   -6877.6487   -6792.6064    1375.9613    21475.459    7.8137843 
    7350    778.64953   -6879.4423   -6792.5828    1074.2335    21471.827    7.8133072 
    7360     760.0399    -6877.389   -6792.6054    1461.0783    21469.896     7.821195 
    7370    740.49859   -6875.2579   -6792.6542    1965.0682    21470.217    7.8386169 
    7380    736.06059   -6874.7924   -6792.6838    1747.1748    21473.538    7.8611179 
    7390    755.46618   -6876.9673    -6792.694    1075.4953    21479.626    7.8799922 
    7400    768.05804   -6878.3891   -6792.7111    813.74843    21487.645    7.8932607 
    7410    778.07766   -6879.5677   -6792.7719    784.49813    21497.203    7.9058677 
    7420    801.06701   -6882.2743   -6792.9141    734.41782    21508.263    7.9206531 
    7430    798.20914   -6882.2195    -6793.178    881.06282    21520.845    7.9423994 
    7440    764.11111   -6878.7907    -6793.553     812.2027    21535.135    7.9746687 
    7450    736.27955   -6876.0929   -6793.9598    327.52772    21551.068    8.0107687 
    7460    739.16721   -6876.8114   -6794.3562   -545.06846    21567.917    8.0396944 
    7470     728.4205   -6875.9922   -6794.7358   -904.27837    21584.461    8.0624831 
    7480    714.57583   -6874.7871   -6795.0751   -1351.7185     21600.03    8.0847381 
    7490    724.48988   -6876.1798   -6795.3619   -2340.0385    21613.804    8.1107135 
    7500    718.92113   -6875.7916   -6795.5949    -2694.458     21624.35    8.1416445 
    7510    716.77071   -6875.7398   -6795.7829    -2735.491    21630.943    8.1753235 
    7520    713.04548   -6875.4553    -6795.914   -2478.4941    21633.421    8.2088371 
    7530    715.44417   -6875.7935   -6795.9846   -1913.2484    21632.082    8.2393106 
    7540    722.98892   -6876.6383   -6795.9878   -1376.9787    21627.679     8.265621 
    7550    723.26612   -6876.6038   -6795.9224   -887.31726    21621.001     8.288038 
    7560    730.37447   -6877.2634    -6795.789   -845.72677    21612.663    8.3064911 
    7570    740.59166   -6878.1986   -6795.5845   -531.33447    21602.835    8.3213154 
    7580     746.3023   -6878.5682    -6795.317    6.8441674    21591.954    8.3309576 
    7590    750.47436   -6878.6969   -6794.9804    258.42756    21580.766    8.3350497 
    7600    752.74004   -6878.5447   -6794.5754    279.86782    21569.675    8.3368632 
    7610    729.44864   -6875.4549   -6794.0838     683.1312    21558.833    8.3372439 
    7620    735.19557   -6875.4937   -6793.4815      720.217    21548.753    8.3340955 
    7630    750.31769   -6876.4416   -6792.7425    423.54257    21539.528    8.3285779 
    7640    769.65085   -6877.7834   -6791.9276    228.74204    21530.776    8.3213227 
    7650     797.7311   -6880.0969   -6791.1088    321.47259    21522.216    8.3112622 
    7660    804.41045   -6880.1191   -6790.3859    777.07735    21514.005    8.3052456 
    7670    798.54271   -6878.8907    -6789.812    1241.4769    21506.832    8.3115964 
    7680    803.21437    -6878.992   -6789.3922    1307.3989    21501.378    8.3324162 
    7690    794.54904   -6877.7458   -6789.1127    1084.8054    21497.815    8.3633479 
    7700    781.06757   -6876.0835   -6788.9542     636.6925    21495.832      8.40249 
    7710    757.49341   -6873.3736    -6788.874    627.73897    21494.872    8.4480407 
    7720    756.77218   -6873.2506   -6788.8315    557.32174    21494.847    8.4938576 
    7730     764.9691   -6874.1411   -6788.8076    537.19913    21495.714    8.5349033 
    7740    762.90641   -6873.9197   -6788.8163    550.43583     21497.45    8.5722834 
    7750     765.3255   -6874.2335   -6788.8603    475.73158    21500.083    8.6112752 
    7760    777.19585   -6875.6453   -6788.9479    133.95124    21503.513    8.6537439 
    7770    782.91458   -6876.4383    -6789.103   -600.43113    21507.165    8.6962497 
    7780     767.2002   -6874.9101   -6789.3278   -783.56288    21510.052    8.7372951 
    7790     745.4784    -6872.744   -6789.5848   -736.33849    21511.809    8.7786041 
    7800    739.10514   -6872.2837   -6789.8354   -748.19924    21512.451    8.8204702 
    7810     749.6821   -6873.7045   -6790.0764   -708.00287    21511.947    8.8595926 
    7820    758.51218    -6874.936   -6790.3228   -398.56165    21510.366    8.8956917 
    7830    769.96653   -6876.4866   -6790.5957    52.498935     21508.17    8.9290151 
    7840    784.34167   -6878.4358   -6790.9413    216.81821    21505.963    8.9588876 
    7850    782.88791   -6878.7269   -6791.3946    221.97614    21504.033    8.9894905 
    7860     782.2058   -6879.2266   -6791.9703   -62.900418    21502.379    9.0242908 
    7870    769.29157   -6878.4703   -6792.6546   -351.73638      21500.6    9.0620154 
    7880    750.82715   -6877.1531   -6793.3972   -293.21652    21498.291     9.100417 
    7890     739.6521   -6876.6408   -6794.1315    103.32273     21495.54    9.1385375 
    7900     740.7591   -6877.4375   -6794.8047    337.60126    21492.885    9.1735202 
    7910    743.32382   -6878.3181   -6795.3993    381.04476    21490.688    9.2045575 
    7920    735.00382   -6877.8938    -6795.903    543.54778    21489.073    9.2334637 
    7930    732.57878   -6878.0227   -6796.3024    651.20042    21488.292    9.2658463 
    7940    741.36674   -6879.3053   -6796.6048    924.51419    21488.559    9.3065693 
    7950    742.59871   -6879.6694   -6796.8314     1307.584      21490.3    9.3511419 
    7960    743.00911   -6879.8876   -6797.0038    1183.9414    21494.026    9.3884653 
    7970    737.79865    -6879.438   -6797.1354    978.59798    21499.646    9.4161212 
    7980    725.61087   -6878.1583   -6797.2153    783.63539    21506.893    9.4390417 
    7990    737.09511   -6879.4763   -6797.2522    26.862347    21515.372    9.4596626 
    8000    725.50475   -6878.1816   -6797.2505    -424.6959    21524.051     9.480916 
    8010    713.42121   -6876.7953   -6797.2121   -529.83177    21532.215    9.5017517 
    8020    728.73089   -6878.4063   -6797.1152   -699.69505    21539.648    9.5165303 
    8030     756.2007    -6881.334   -6796.9787   -945.06374    21546.074    9.5210597 
    8040    748.31397   -6880.3187   -6796.8432   -944.17644    21551.132    9.5147543 
    8050    725.50918   -6877.6414   -6796.7098    -650.3961    21554.801    9.4972437 
    8060    716.78254   -6876.4974   -6796.5392   -607.15423    21557.442    9.4671873 
    8070    731.17627   -6877.8806   -6796.3168   -978.73955    21559.101    9.4257066 
    8080    748.91936   -6879.5966   -6796.0536    -1067.377    21559.303    9.3809996 
    8090    749.83148    -6879.429   -6795.7841   -1005.1966    21557.852    9.3450244 
    8100    727.60117   -6876.6852   -6795.5202   -688.97277    21554.877    9.3206132 
    8110    725.65492   -6876.1782   -6795.2303   -314.84694    21550.837    9.2997455 
    8120    750.57677   -6878.6111   -6794.8831   -96.099902     21546.28    9.2784249 
    8130    767.63022   -6880.1403     -6794.51   -117.88964    21541.525    9.2588357 
    8140    768.72721   -6879.9151   -6794.1624   -38.193308    21536.603    9.2441052 
    8150    757.29432   -6878.3383    -6793.861    502.04493    21531.698    9.2367143 
    8160    740.54047    -6876.194   -6793.5856    1131.8188     21527.59    9.2330292 
    8170    746.42182   -6876.5806   -6793.3162    1469.1648    21525.211    9.2246682 
    8180    749.07492   -6876.5982   -6793.0377    1481.6017    21525.091    9.2110808 
    8190    764.13879   -6878.0049    -6792.764    968.48588    21527.195    9.2011163 
    8200    772.26308   -6878.6616   -6792.5144    601.61744    21530.847    9.2060682 
    8210     756.1416    -6876.658   -6792.3093    812.20499    21535.523    9.2257005 
    8220    747.20108   -6875.4825   -6792.1311     1090.693    21541.468    9.2488709 
    8230    763.51917   -6877.1321   -6791.9604     954.4801    21549.037    9.2682703 
    8240    770.80743    -6877.792   -6791.8072    957.89774    21558.111    9.2854517 
    8250     783.2902   -6879.0656   -6791.6884    802.26177    21568.652    9.3041707 
    8260    804.48908   -6881.3781   -6791.6362    158.32539    21580.362    9.3289286 
    8270    790.94229   -6879.9231   -6791.6922    -133.6973    21592.386     9.359614 
    8280     774.7491   -6878.2775   -6791.8531   -329.28819    21604.202    9.3901206 
    8290    777.30164   -6878.8087   -6792.0996   -541.62985    21615.499    9.4149766 
    8300    781.46847     -6879.63    -6792.456   -634.62705    21625.965    9.4362687 
    8310    776.45991    -6879.556   -6792.9407    -359.5007    21635.482    9.4603282 
    8320    769.47941   -6879.4042   -6793.5676   -27.466748    21644.416    9.4887301 
    8330    751.70805   -6878.1563   -6794.3022    216.52716    21653.297    9.5169501 
    8340     753.3626    -6879.155   -6795.1163    265.94815    21662.501    9.5427181 
    8350    744.57884   -6879.0265   -6795.9676    414.21708    21672.155    9.5707052 
    8360    727.72302   -6877.9567   -6796.7781    230.29096    21682.428    9.6028971 
    8370    733.24637   -6879.2916   -6797.4969   -495.81308    21692.996    9.6397124 
    8380    730.88566   -6879.6299   -6798.0985   -949.38091     21702.85     9.681024 
    8390    727.91005   -6879.7814    -6798.582    -1029.458    21711.254    9.7199702 
    8400    712.16518   -6878.3823   -6798.9392   -1004.6566    21718.049    9.7544921 
    8410    703.42895   -6877.6279   -6799.1593   -1091.0118    21723.259    9.7865038 
    8420    714.13562   -6878.9229     -6799.26   -1340.2117    21726.738    9.8174046 
    8430    721.99091   -6879.8144   -6799.2752   -1475.4098    21728.127    9.8498168 
    8440    719.96958   -6879.5419   -6799.2282   -1141.8103    21727.257    9.8820287 
    8450    727.55163   -6880.2899   -6799.1304   -1038.5348    21724.553    9.9098968 
    8460    743.81079    -6881.975   -6799.0017   -1414.0683    21720.143    9.9344135 
    8470     740.7074   -6881.4969   -6798.8699   -1334.8088     21713.58    9.9564993 
[...]
   22890    763.34462   -6880.4461   -6795.2938   -1890.0206    21751.986    27.892913 
   22900     778.3737   -6882.0642   -6795.2355   -1938.2943    21758.771    27.946084 
   22910    771.03726   -6881.2268   -6795.2164    -1525.627    21762.614    27.973639 
   22920    762.89577   -6880.3427   -6795.2406   -1174.1056    21764.044      27.9933 
   22930    760.24633   -6880.1006    -6795.294   -954.93083    21763.597    28.019246 
   22940    755.72974   -6879.6776   -6795.3748   -949.11697    21761.595    28.046835 
   22950    748.37572   -6878.9544    -6795.472   -1254.5412    21758.034    28.066398 
   22960    748.05249   -6879.0325   -6795.5861   -1444.7088    21752.495    28.069797 
   22970    736.74835   -6877.8813   -6795.6959    -1373.839    21744.682    28.059423 
   22980     744.5365    -6878.854   -6795.7999   -1411.2022    21734.617    28.046158 
   22990    750.55048   -6879.6281   -6795.9031   -1392.0658    21722.265     28.04678 
   23000    761.68892   -6880.9921   -6796.0246   -887.58817     21707.71    28.070002 
   23010    762.01982   -6881.1763   -6796.1718    12.165799    21691.723    28.106612 
   23020     759.4924   -6881.0713   -6796.3488    343.97058    21675.591    28.132155 
   23030    746.96607   -6879.8788   -6796.5536    355.26322    21659.888    28.137437 
   23040     727.7623    -6877.932    -6796.749    307.38212    21644.677    28.131833 
   23050    732.26204   -6878.5986   -6796.9137    199.25736    21629.845    28.118384 
   23060    742.25781   -6879.8428   -6797.0428    564.88208    21615.342    28.095425 
   23070     738.6994   -6879.5555   -6797.1524    640.95614    21601.598     28.06572 
   23080    715.61565   -6877.0625   -6797.2345    887.63808    21588.804    28.034468 
   23090    711.79509   -6876.6505   -6797.2487    977.11508    21577.329    28.003517 
   23100    741.98539    -6879.965   -6797.1954    581.04246    21567.259    27.975406 
   23110    754.00671   -6881.2249   -6797.1144    762.97835    21558.131    27.952124 
   23120     743.9671   -6880.0203   -6797.0297    1359.3214    21550.195    27.933732 
   23130    745.62169   -6880.1128   -6796.9376     1567.793    21544.281    27.920289 
   23140    755.18242   -6881.0782   -6796.8364      1023.53    21540.678    27.906946 
   23150    771.53695   -6882.8103   -6796.7442    163.76511    21538.626    27.886071 
   23160    784.02864    -6884.156   -6796.6964   -384.55562    21536.877    27.862949 
   23170    776.16529   -6883.3041   -6796.7217   -180.11214    21534.625    27.847176 
   23180    754.10442   -6880.9269   -6796.8054    375.16757    21532.115    27.835462 
   23190    741.53586   -6879.6195      -6796.9    604.32627    21530.123     27.82662 
   23200    758.50889   -6881.6095   -6796.9967    379.00925    21528.987    27.821626 
   23210    747.52801   -6880.4935   -6797.1056    767.62865    21528.535    27.818755 
   23220    748.62095    -6880.735   -6797.2252      1217.12     21529.29    27.805451 
   23230    764.52467   -6882.6449    -6797.361     1066.518    21531.866    27.782722 
   23240    760.75428    -6882.394   -6797.5308    1173.8147    21536.187    27.767775 
   23250    767.79545   -6883.3907   -6797.7419    1147.9402    21542.358    27.759044 
   23260    787.66838   -6885.8873   -6798.0217    893.57698    21550.351    27.747034 
   23270    783.67681    -6885.829   -6798.4087    999.36822    21559.858    27.736373 
   23280    763.53772   -6884.0681   -6798.8943    1260.4251    21571.044    27.736438 
   23290     769.2584   -6885.2645   -6799.4526     761.4246    21584.215    27.750358 
   23300    754.05267   -6884.1642   -6800.0485   -325.57126    21598.621    27.776293 
   23310    737.43995   -6882.8993   -6800.6368   -1315.7054    21612.665    27.808393 
   23320    737.05278   -6883.4072   -6801.1878   -1962.6764    21624.797     27.83496 
   23330    732.24243    -6883.368   -6801.6853   -1982.0178    21634.045    27.850216 
   23340    731.42599   -6883.7134   -6802.1217   -2137.8799    21640.236    27.854167 
   23350    734.13453   -6884.3896   -6802.4958     -2756.78    21643.045    27.849201 
   23360    744.19058   -6885.8509   -6802.8354   -3376.7669    21641.532    27.829509 
   23370    741.01261   -6885.8128   -6803.1517   -3325.4228    21634.804    27.791516 
   23380    728.31478   -6884.6719   -6803.4273     -2408.74    21622.935    27.746779 
   23390    731.79167   -6885.2735    -6803.641   -1546.3901    21607.217    27.706295 
   23400     747.9454   -6887.2541   -6803.8197   -1431.9885    21588.898     27.67045 
   23410    725.43595   -6884.8905    -6803.967   -1191.7479    21568.299     27.63663 
   23420    717.39074   -6884.0881    -6804.062   -1104.9709    21545.735    27.598019 
   23430    738.59814   -6886.4914   -6804.0997   -1403.0319    21521.317    27.553458 
   23440    752.47969   -6888.0546   -6804.1143   -1392.9625    21494.696    27.507389 
   23450    753.68884   -6888.2043   -6804.1292   -1208.3338    21465.859    27.463987 
   23460     761.8535   -6889.1399    -6804.154   -847.29966    21435.131    27.427364 
   23470    756.61776    -6888.594   -6804.1921   -147.26455    21403.123     27.39698 
   23480    738.39619   -6886.5994   -6804.2302     204.8142    21370.827    27.369514 
   23490    732.71177   -6885.9838   -6804.2487    66.668824     21338.79    27.338803 
   23500    731.46293   -6885.8272   -6804.2314    344.54971    21306.934    27.300378 
   23510    721.79622   -6884.6683   -6804.1509    1373.4555    21275.759     27.25306 
   23520    722.34594   -6884.5616   -6803.9829    2220.5053     21246.71    27.193894 
   23530     750.5933   -6887.4712   -6803.7414    2292.1325    21220.972    27.133395 
   23540      755.212   -6887.7043   -6803.4593    2452.4496    21198.781    27.085176 
   23550    755.89379   -6887.4831    -6803.162    2460.2112    21180.312     27.04884 
   23560    767.42766   -6888.4527    -6802.845    2023.4905    21165.515    27.010322 
   23570    765.81557   -6887.9316   -6802.5037    1920.7955    21153.845    26.959752 
   23580    772.11933   -6888.2717   -6802.1407    1718.5791    21145.061    26.909773 
   23590    762.35633    -6886.792     -6801.75    1772.9255      21138.9    26.875852 
   23600    748.30993   -6884.7892   -6801.3141    2129.2139    21135.435    26.859794 
   23610    763.46023   -6885.9586   -6800.7935    2058.2172    21135.107    26.856347 
   23620    778.23829   -6887.0122   -6800.1985     1900.488    21137.843     26.85971 
   23630    759.34609   -6884.2839   -6799.5777    2216.3502    21143.504    26.858662 
   23640    757.11128    -6883.395   -6798.9381    1938.5017    21152.406     26.84653 
   23650    780.77877   -6885.3644   -6798.2674    1174.1307    21164.175    26.834453 
   23660    776.87292   -6884.2749   -6797.6135    840.34776     21177.78    26.837888 
   23670    741.61456   -6879.7592   -6797.0309    1380.1382    21192.778    26.865835 
   23680    746.74089   -6879.7742   -6796.4741    1613.7499    21209.825    26.918154 
   23690    784.88912   -6883.4746    -6795.919    1116.6431    21229.235    26.987799 
   23700    792.69564   -6883.8653   -6795.4389    898.56157    21250.418    27.067625 
   23710    778.03267   -6881.8782   -6795.0875    995.17444    21273.048     27.14739 
   23720    763.08415   -6879.9499   -6794.8268    828.02752    21297.173    27.218008 
   23730    775.38717    -6881.116   -6794.6204    482.16534    21322.572     27.27391 
   23740    781.51456   -6881.6467   -6794.4675    364.28005    21348.768    27.319416 
   23750    783.75347   -6881.8236   -6794.3947    575.64514     21375.59    27.361597 
   23760    793.31837   -6882.9052   -6794.4093    760.35303    21403.309    27.399254 
   23770    787.28295    -6882.342   -6794.5194    981.97102    21432.228    27.431121 
   23780    780.51781    -6881.787    -6794.719    1028.2456    21462.663    27.461856 
   23790    769.15769   -6880.7831   -6794.9824     611.7019    21494.628    27.501105 
   23800    755.26008   -6879.5251   -6795.2747   -87.881606     21527.49    27.559929 
   23810    766.22195   -6881.0523   -6795.5791   -634.03078    21560.221    27.632939 
   23820    784.20349   -6883.4063   -6795.9272   -975.04389    21591.947    27.712467 
   23830    763.22991   -6881.4809   -6796.3414   -558.87902    21622.227    27.807238 
   23840    741.45271     -6879.49   -6796.7798   -46.164155    21651.596    27.906606 
   23850    750.36656   -6880.9217   -6797.2172    20.794081    21680.761    27.985033 
   23860    739.42479   -6880.1207   -6797.6367   -123.01974    21709.853    28.043218 
   23870    738.38903   -6880.3808   -6798.0124   -532.65524     21738.62    28.095512 
   23880    757.90688   -6882.8972   -6798.3515   -1349.9757    21766.366     28.14672 
   23890    760.23226   -6883.4822   -6798.6771   -2182.5368    21791.841    28.197154 
   23900    753.57713   -6883.0614   -6798.9987   -2584.5785    21813.781    28.241224 
   23910    759.83619   -6884.0807   -6799.3198   -2774.0115    21831.504    28.270666 
   23920    761.36128   -6884.5751   -6799.6441   -2997.4038    21844.667    28.280727 
   23930    754.89405   -6884.1825   -6799.9729   -2741.8697    21853.036    28.272262 
   23940    750.49213   -6884.0117   -6800.2932   -2153.4804    21857.028    28.251352 
   23950    751.70615   -6884.4434   -6800.5894   -1646.8138    21857.539    28.224473 
   23960    753.93859   -6884.9649   -6800.8619   -1395.7732     21855.38    28.191354 
   23970    751.47284   -6884.9372   -6801.1092   -1295.5537    21851.001    28.147453 
   23980    744.94779   -6884.4298   -6801.3297   -1225.0504    21844.584    28.093447 
   23990    721.27675     -6881.95   -6801.4905   -1064.1341    21836.302    28.049657 
   24000    735.77526   -6883.6586   -6801.5818   -1395.0185    21826.325    28.036066 
   24010    740.19983   -6884.1881   -6801.6177   -1458.6342    21814.274    28.047069 
   24020    716.50438   -6881.5429   -6801.6158   -1117.2502    21800.083    28.069718 
   24030    713.07766   -6881.1034   -6801.5585   -972.24795    21784.244    28.092709 
   24040    730.48894   -6882.9371     -6801.45   -1330.3067    21766.943    28.101003 
   24050    717.80057   -6881.3856   -6801.3139   -1443.1495    21747.743    28.085736 
   24060     701.1083   -6879.3515   -6801.1418    -1324.375    21726.483    28.051737 
   24070    720.25645    -6881.266   -6800.9203   -1409.2775    21703.295    28.005387 
   24080    735.26749    -6882.684   -6800.6638   -1117.7866     21678.16    27.944862 
   24090    737.47186   -6882.6626   -6800.3965   -443.41382    21651.587    27.872287 
   24100    746.63517   -6883.4135   -6800.1252   -30.417352    21624.557    27.798687 
   24110    752.75975   -6883.8354   -6799.8639    369.87304     21597.76    27.733721 
   24120    752.85295   -6883.6062   -6799.6243    990.46698    21571.848    27.678189 
   24130    749.77447   -6883.0365    -6799.398    1798.9768    21547.786    27.636014 
   24140    745.80842   -6882.3755   -6799.1795    2025.9299    21526.682    27.614994 
   24150    749.23726   -6882.5491   -6798.9706    1612.8638     21508.83    27.607532 
   24160    754.86712   -6882.9838   -6798.7773    1054.2674    21493.616    27.598995 
   24170    753.77808   -6882.6866   -6798.6015    776.03509    21480.235    27.588787 
   24180     757.6477   -6882.9631   -6798.4464    674.91008    21468.199    27.585275 
   24190    764.09794   -6883.5456   -6798.3093    1130.1853    21457.386    27.591437 
   24200    774.72536   -6884.6248    -6798.203    1886.4687    21448.457    27.598971 
   24210    782.23536   -6885.4126   -6798.1531    2430.0551    21442.469    27.607506 
   24220    764.37736   -6883.4373   -6798.1699    2987.1324    21440.278    27.628288 
   24230    754.31849   -6882.3778   -6798.2324    2953.8254     21442.59    27.663906 
   24240    755.99286   -6882.6491    -6798.317    2462.6676    21449.352    27.713952 
   24250    740.19558   -6880.9774   -6798.4075     1919.352    21459.837    27.777066 
   24260    748.40938   -6881.9817   -6798.4955    1332.4891    21473.198    27.848398 
   24270    762.21955   -6883.6092   -6798.5825    979.21216    21488.558    27.924827 
   24280    763.62836   -6883.8828   -6798.6989    1049.0188    21505.376    27.998854 
   24290    768.59774   -6884.6031   -6798.8648    1327.1292    21523.757    28.067278 
   24300    773.21595   -6885.3491   -6799.0957    1390.0507    21544.044    28.136038 
   24310    768.06671   -6885.0783   -6799.3993    1268.6607    21566.333    28.203513 
   24320    760.63633    -6884.629   -6799.7789    986.78293    21590.441    28.263216 
   24330    751.09893   -6884.0031   -6800.2169    482.11477    21615.903    28.318886 
   24340    747.37057   -6884.0768   -6800.7065    70.451251    21641.972    28.369958 
   24350    744.18048   -6884.2498   -6801.2353   -247.50468     21667.99    28.406037 
   24360    741.55538   -6884.5221   -6801.8005    -668.0281     21693.43    28.424964 
   24370    732.82895   -6884.1218   -6802.3736    -1202.743    21717.647    28.433178 
   24380     740.8621   -6885.5902   -6802.9459   -1865.8605    21739.794    28.440101 
   24390    735.88056   -6885.6063   -6803.5177   -2114.1009    21758.891    28.451774 
   24400    704.62347   -6882.6521   -6804.0503     -1602.74     21774.63    28.466588 
   24410    682.97545   -6880.6553   -6804.4684   -1536.6286    21787.669    28.486503 
   24420    702.10246   -6883.0815   -6804.7609   -2106.1312    21798.084    28.506375 
   24430     722.3123   -6885.5284   -6804.9534   -2378.2854     21805.14    28.512664 
   24440    733.52303    -6886.922   -6805.0964   -2258.0685    21808.434    28.496902 
   24450    726.23632   -6886.2133   -6805.2006   -2278.8449    21808.093    28.460975 
   24460    721.06895    -6885.697   -6805.2607   -2493.5107    21804.088    28.415626 
   24470    719.10642   -6885.4836   -6805.2662   -2168.2909    21796.226    28.376082 
   24480    717.11599   -6885.2006   -6805.2052   -1490.5181    21785.027    28.347618 
   24490    718.39511   -6885.2087   -6805.0706   -1157.4347    21771.482    28.333782 
   24500    711.91203   -6884.2722   -6804.8574   -866.71071    21756.191    28.348841 
   24510    701.38613   -6882.7866   -6804.5459   -684.57014    21739.623    28.400002 
   24520    714.57636   -6883.8227   -6804.1106   -929.19158    21722.034    28.468781 
   24530    737.25737   -6885.7892    -6803.547   -872.80222    21703.159    28.528581 
   24540    742.26133   -6885.6902   -6802.8898   -198.03626    21683.138    28.564727 
   24550    728.80311   -6883.4682   -6802.1691    781.48878    21663.003    28.570473 
   24560    736.88786   -6883.5987   -6801.3977    1283.3232    21644.182    28.546417 
   24570    756.20191    -6884.959   -6800.6035    1331.9611    21627.443    28.506782 
   24580    749.85449    -6883.519   -6799.8716    1513.4319    21612.916    28.478332 
   24590    733.29853   -6881.0486    -6799.248    1509.8549    21600.823    28.480243 
   24600    742.70087    -6881.579   -6798.7296    947.31177    21591.078     28.51776 
   24610    755.35842   -6882.5719   -6798.3105    449.62728    21582.902    28.574699 
   24620    768.32498   -6883.7053   -6797.9975    115.83553    21575.525    28.630831 
   24630    781.18038   -6884.9407   -6797.7989   -225.02798    21568.378    28.683212 
   24640    770.08302   -6883.6071   -6797.7032   -243.79257    21560.972    28.734782 
   24650    752.48919   -6881.6056   -6797.6643   -50.540322    21553.267    28.782057 
   24660    749.05694   -6881.2012   -6797.6428    170.94415     21545.54    28.812721 
   24670     741.9682   -6880.3887    -6797.621     65.66178     21538.07    28.823743 
   24680    731.87392   -6879.2265   -6797.5849   -45.649146     21530.75    28.830853 
   24690    744.05132   -6880.5286   -6797.5286   -284.71068    21523.363     28.84088 
   24700    738.07467   -6879.7843   -6797.4509   -214.74604     21515.63    28.847783 
   24710    726.48462   -6878.3937   -6797.3532   -23.930878     21507.61      28.8514 
   24720      722.416   -6877.7934   -6797.2068    98.062151    21499.585    28.853292 
   24730    739.90368   -6879.5496   -6797.0123   -160.66532    21491.699    28.847614 
   24740    733.44722   -6878.6015   -6796.7844    33.347628    21483.669    28.836662 
   24750    728.79487   -6877.8232   -6796.5251    383.57477     21475.74    28.824648 
   24760    752.60853   -6880.1777   -6796.2231     303.6099    21468.372    28.820216 
   24770    773.29087    -6882.174   -6795.9122    303.18233    21461.519    28.835164 
   24780     775.6863   -6882.1732   -6795.6442    455.58531     21455.18     28.86508 
   24790    769.36842   -6881.2612    -6795.437    628.82803    21449.583     28.90208 
   24800    773.75648   -6881.5911   -6795.2774    480.72919    21444.921    28.945051 
   24810    781.74401   -6882.3747     -6795.17    264.03336    21440.996    28.991017 
   24820    773.28449   -6881.3894   -6795.1283    222.90822    21437.508    29.028881 
   24830    758.58372   -6879.7528   -6795.1317    368.59107    21434.412    29.046684 
   24840    774.86369     -6881.61   -6795.1728    402.41907    21431.863    29.044714 
   24850    765.24683   -6880.6273   -6795.2629    684.55685    21429.986     29.03142 
   24860    744.66714   -6878.4675   -6795.3987    711.61921    21429.106    29.011692 
   24870      732.466    -6877.236   -6795.5283    743.11664    21429.337    28.990893 
   24880    751.82439   -6879.4998   -6795.6326     208.1449    21430.633    28.980323 
   24890    771.55606   -6881.8076   -6795.7394   -324.08412     21432.24    28.984656 
   24900    757.59578   -6880.3907   -6795.8797   -8.5534677    21433.452    28.993611 
   24910    759.15215   -6880.7447   -6796.0601    500.41239    21434.669    28.990794 
   24920    773.63597    -6882.581   -6796.2807    438.46117    21436.576     28.96445 
   24930    784.86876   -6884.1351   -6796.5818    124.09874     21439.13    28.914668 
   24940    782.52771   -6884.2869   -6796.9948   -117.59958    21441.874    28.858915 
   24950    778.16203   -6884.3237   -6797.5186    -266.0489    21444.426    28.817025 
   24960    773.45097   -6884.4234   -6798.1438     105.9621    21446.642    28.791411 
   24970    771.53427   -6884.9215   -6798.8557    516.80155    21449.013    28.775748 
   24980    759.44869   -6884.3243   -6799.6067    919.54578     21452.18     28.76922 
   24990    754.20242   -6884.4787   -6800.3463    795.15689    21456.671     28.76595 
   25000     743.5676   -6883.9834   -6801.0373    660.40742    21462.389    28.759857 
Loop time of 14289.9 on 16 procs for 20000 steps with 864 atoms

Performance: 0.121 ns/day, 198.471 hours/ns, 1.400 timesteps/s
97.4% CPU use with 16 MPI tasks x 1 OpenMP threads

MPI task timing breakdown:
Section |  min time  |  avg time  |  max time  |%varavg| %total
---------------------------------------------------------------
Pair    | 10168      | 11946      | 14189      |1091.9 | 83.60
Bond    | 0.0019231  | 0.0042812  | 0.010478   |   3.4 |  0.00
Neigh   | 0.20855    | 0.27224    | 0.38159    |  10.6 |  0.00
Comm    | 93.113     | 1583.2     | 4114.8     |2982.4 | 11.08
Output  | 2.7602     | 2.7837     | 3.1281     |   5.3 |  0.02
Modify  | 3.9754     | 757.08     | 1505.8     |2166.3 |  5.30
Other   |            | 0.1128     |            |       |  0.00

Nlocal:        54.0000 ave          69 max          42 min
Histogram: 4 0 2 1 2 2 1 1 1 2
Nghost:        462.000 ave         507 max         399 min
Histogram: 2 0 1 2 0 2 1 4 3 1
Neighs:         0.00000 ave           0 max           0 min
Histogram: 16 0 0 0 0 0 0 0 0 0
FullNghs:      2230.88 ave        3518 max        1356 min
Histogram: 4 1 2 1 2 2 1 1 0 2

Total # of neighbors = 35694
Ave neighs/atom = 41.312500
Ave special neighs/atom = 0.0000000
Neighbor list builds = 2000
Dangerous builds = 2000
unfix   3
                
Total wall time: 4:58:30
