LAMMPS (29 Sep 2021 - Update 3)
OMP_NUM_THREADS environment is not set. Defaulting to 1 thread. (src/comm.cpp:98)
  using 1 OpenMP thread(s) per MPI task
units	metal
atom_style	full

read_data	mixed.data
Reading data file ...
  orthogonal box = (0.0000000 0.0000000 0.0000000) to (16.534670 17.767358 74.594796)
  1 by 2 by 8 MPI processor grid
  reading atoms ...
  864 atoms
Finding 1-2 1-3 1-4 neighbors ...
  special bond factors lj:    0        0        0       
  special bond factors coul:  0        0        0       
     0 = max # of 1-2 neighbors
     0 = max # of 1-3 neighbors
     0 = max # of 1-4 neighbors
     1 = max # of special neighbors
  special bonds CPU = 0.009 seconds
  read_data CPU = 0.030 seconds

pair_style	quip
pair_coeff	* * /ocean/projects/cts180021p/wuziqi/clease/mint-PD/PhaseDiagram-Clease/Liquid/GAP_potential/gap_LiKCl.xml "Potential xml_label=GAP_2021_9_27_0_1_17_37_618" 17 19 3

neighbor	0.3 bin
neigh_modify	delay 10

timestep	0.001
compute	msd all msd
thermo_style	custom step temp pe etotal press vol c_msd[4]
thermo	10
dump	1 all custom 10 xyz-mix.dump type id x y z
dump	2 all custom 10 force-mix.dump type id fx fy fz

fix     1 all nve
run     2000
Neighbor list info ...
  update every 1 steps, delay 10 steps, check yes
  max neighbors/atom: 2000, page size: 100000
  master list distance cutoff = 6.22
  ghost atom cutoff = 6.22
  binsize = 3.11, bins = 6 6 24
  1 neighbor lists, perpetual/occasional/extra = 1 0 0
  (1) pair quip, perpetual
      attributes: full, newton on
      pair build: full/bin
      stencil: full/bin/3d
      bin: standard
Per MPI rank memory allocation (min/avg/max) = 8.894 | 8.906 | 8.915 Mbytes
Step Temp PotEng TotEng Press Volume c_msd[4] 
       0            0   -8413.4292   -8413.4292   -12531.916    21914.265            0 
      10    63.367096   -8420.5059   -8413.4372   -13062.757    21914.265 0.00028900792 
      20    162.23389   -8431.5423   -8413.4448   -13580.932    21914.265 0.0035442006 
      30    203.76318   -8436.1707   -8413.4406   -13263.999    21914.265  0.011998633 
      40     225.5427      -8438.6   -8413.4404   -13091.981    21914.265  0.023619499 
      50    238.39464   -8440.0352   -8413.4419   -13192.953    21914.265  0.036411648 
      60    237.91747   -8439.9798   -8413.4397    -13151.82    21914.265  0.049420327 
      70    242.25882   -8440.4649   -8413.4405   -12986.142    21914.265  0.062561747 
      80    243.33226   -8440.5825   -8413.4384   -12841.846    21914.265  0.075987004 
      90     256.1439    -8442.014   -8413.4408   -12985.089    21914.265  0.088683986 
     100    260.92723   -8442.5467   -8413.4399   -13129.532    21914.265   0.10092572 
     110    263.36735   -8442.8185   -8413.4395   -13314.209    21914.265   0.11296329 
     120    267.45703   -8443.2754   -8413.4402   -13403.997    21914.265   0.12509928 
     130    267.20277   -8443.2463   -8413.4395   -13198.457    21914.265   0.13819283 
     140    269.21359   -8443.4705   -8413.4393   -12839.711    21914.265   0.15259322 
     150     276.3754   -8444.2699   -8413.4398   -12564.061    21914.265   0.16775295 
     160    282.09052   -8444.9077   -8413.4401   -12400.914    21914.265   0.18315323 
     170    283.74907   -8445.0928   -8413.4402     -12430.3    21914.265    0.1989762 
     180    279.57367   -8444.6271   -8413.4402   -12727.353    21914.265   0.21536827 
     190    272.01519   -8443.7829   -8413.4391   -12943.608    21914.265   0.23180139 
     200    272.98877   -8443.8921   -8413.4397   -13066.814    21914.265    0.2476891 
     210    278.28656   -8444.4833     -8413.44   -13119.162    21914.265   0.26290373 
     220    281.61115   -8444.8543   -8413.4402    -13052.65    21914.265   0.27743582 
     230    283.45537   -8445.0589    -8413.439   -12948.839    21914.265   0.29133107 
     240    292.81696   -8446.1046   -8413.4404   -13016.029    21914.265    0.3048675 
     250    295.20203   -8446.3705   -8413.4402   -13077.887    21914.265   0.31931215 
     260    290.46684   -8445.8415   -8413.4394   -13040.528    21914.265   0.33532684 
     270    290.61991    -8445.858   -8413.4389   -13235.455    21914.265   0.35239777 
     280    301.25443   -8447.0456   -8413.4402   -13515.282    21914.265   0.36952956 
     290    308.28623   -8447.8304   -8413.4406   -13611.572    21914.265   0.38667041 
     300    309.20907   -8447.9319   -8413.4392   -13455.868    21914.265    0.4041006 
     310     314.5316   -8448.5273   -8413.4408   -13198.597    21914.265   0.42152557 
     320    312.09261   -8448.2546   -8413.4402   -12968.083    21914.265   0.43866959 
     330    305.84421   -8447.5573   -8413.4399   -12657.381    21914.265   0.45536472 
     340    303.20988   -8447.2632   -8413.4397   -12498.026    21914.265   0.47172581 
     350    307.13857   -8447.7018     -8413.44   -12492.368    21914.265   0.48754232 
     360    312.15901   -8448.2619   -8413.4401   -12369.505    21914.265   0.50223919 
     370     318.6847   -8448.9898     -8413.44   -12195.898    21914.265   0.51545083 
     380    326.66636   -8449.8808   -8413.4407   -12030.164    21914.265   0.52751087 
     390    328.67292   -8450.1043   -8413.4403   -11786.931    21914.265   0.53983918 
     400    329.42172   -8450.1875     -8413.44   -11529.418    21914.265   0.55338123 
     410    329.12824   -8450.1558   -8413.4411   -11363.621    21914.265   0.56856317 
     420    321.17839   -8449.2675   -8413.4396   -11329.503    21914.265   0.58578319 
     430    319.73313   -8449.1067     -8413.44   -11645.546    21914.265   0.60460993 
     440    321.87014   -8449.3455   -8413.4404   -12168.872    21914.265   0.62482739 
     450    321.69175   -8449.3257   -8413.4405   -12517.526    21914.265   0.64605131 
     460    321.58625   -8449.3131   -8413.4397   -12738.117    21914.265   0.66602281 
     470    327.73765   -8450.0009   -8413.4413    -13118.13    21914.265   0.68222539 
     480    325.78012   -8449.7811   -8413.4399   -13518.975    21914.265   0.69547134 
     490    325.26696   -8449.7242   -8413.4402   -13912.333    21914.265   0.70709849 
     500    326.02809   -8449.8096   -8413.4407    -14245.82    21914.265    0.7181905 
     510     321.8067   -8449.3384   -8413.4404   -14358.421    21914.265   0.73031831 
     520    314.82643   -8448.5595   -8413.4401   -14393.561    21914.265   0.74493886 
     530    311.55922   -8448.1945   -8413.4396    -14504.26    21914.265   0.76206346 
     540    316.52181   -8448.7487   -8413.4402   -14692.451    21914.265   0.78048733 
     550    323.45997   -8449.5224     -8413.44   -14675.954    21914.265   0.79880458 
     560    332.20295   -8450.4987   -8413.4409    -14432.97    21914.265   0.81596428 
     570    332.37528   -8450.5179   -8413.4409   -14008.452    21914.265   0.83234674 
     580    324.44532    -8449.632   -8413.4397   -13682.622    21914.265   0.84880328 
     590    322.54654   -8449.4211   -8413.4405   -13611.186    21914.265   0.86493346 
     600    320.03229     -8449.14   -8413.4399   -13618.158    21914.265   0.88136827 
     610     322.0694   -8449.3667   -8413.4393   -13770.866    21914.265   0.89972436 
     620    332.97088   -8450.5844    -8413.441   -14040.679    21914.265   0.91979176 
     630    336.52886   -8450.9806   -8413.4403   -14106.634    21914.265    0.9400978 
     640    340.63169   -8451.4378   -8413.4399   -14084.373    21914.265   0.95883362 
     650     349.6267   -8452.4431   -8413.4417   -14126.089    21914.265   0.97518253 
     660     345.3101   -8451.9607   -8413.4408    -13925.09    21914.265   0.98949595 
     670    335.30236   -8450.8431   -8413.4396   -13541.064    21914.265    1.0025057 
     680    335.35657   -8450.8495     -8413.44   -13120.509    21914.265    1.0157598 
     690    342.86707   -8451.6878   -8413.4405   -12807.122    21914.265    1.0306556 
     700    350.61517   -8452.5527    -8413.441   -12613.893    21914.265    1.0481195 
     710    351.61871   -8452.6647   -8413.4411    -12558.63    21914.265     1.067876 
     720    346.37378   -8452.0785     -8413.44   -12478.274    21914.265    1.0873947 
     730    347.79156   -8452.2373   -8413.4406   -12593.955    21914.265    1.1041491 
     740    351.02442    -8452.599   -8413.4417   -12781.856    21914.265    1.1188548 
     750    344.89782   -8451.9145   -8413.4406   -12888.282    21914.265     1.133643 
     760      340.342   -8451.4064   -8413.4407   -13050.736    21914.265    1.1491825 
     770    340.04955   -8451.3737   -8413.4407   -13326.749    21914.265    1.1643304 
     780      345.357   -8451.9656   -8413.4405   -13558.373    21914.265    1.1777023 
     790    357.12317   -8453.2788   -8413.4411   -13831.043    21914.265    1.1886997 
     800    366.64045   -8454.3407   -8413.4414   -14129.874    21914.265    1.1976392 
     810    368.68447   -8454.5688   -8413.4415   -14063.484    21914.265    1.2056605 
     820    366.60174   -8454.3361   -8413.4411   -13908.726    21914.265    1.2141717 
     830    365.85586   -8454.2531   -8413.4413   -13853.131    21914.265    1.2243585 
     840     368.4524   -8454.5423   -8413.4409   -13972.673    21914.265    1.2365636 
     850    371.87492   -8454.9262    -8413.443    -14131.16    21914.265    1.2503596 
     860     358.1746   -8453.3954   -8413.4405     -13818.7    21914.265    1.2649975 
     870    354.45705   -8452.9806   -8413.4404   -13465.958    21914.265     1.278191 
     880    366.65296   -8454.3425   -8413.4418   -13399.092    21914.265    1.2880847 
     890    376.93995   -8455.4909   -8413.4426    -13274.53    21914.265    1.2959326 
     900    375.96913   -8455.3817   -8413.4418   -13062.805    21914.265    1.3041818 
     910    374.01489   -8455.1632   -8413.4413   -12824.206    21914.265    1.3130528 
     920    378.94842   -8455.7136   -8413.4414   -12747.174    21914.265    1.3222121 
     930    388.54983   -8456.7859   -8413.4426   -12880.601    21914.265    1.3329508 
     940    389.80019   -8456.9258    -8413.443   -12981.003    21914.265    1.3457299 
     950    382.52604   -8456.1127   -8413.4413   -12918.004    21914.265    1.3587946 
     960    381.75271   -8456.0275   -8413.4424   -13120.356    21914.265    1.3710856 
     970    380.20365    -8455.854   -8413.4417   -13297.868    21914.265    1.3835601 
     980    384.06597   -8456.2848   -8413.4416    -13360.21    21914.265    1.3967998 
     990    391.39252    -8457.104   -8413.4436    -13319.56    21914.265    1.4114384 
    1000    385.55287   -8456.4508   -8413.4418   -13032.957    21914.265    1.4285977 
    1010    381.98963   -8456.0536   -8413.4421   -12900.345    21914.265    1.4480597 
    1020    382.08452   -8456.0644   -8413.4423   -12891.786    21914.265    1.4678099 
    1030    380.66666   -8455.9065   -8413.4425   -12820.478    21914.265    1.4859085 
    1040    378.02017   -8455.6107    -8413.442   -12814.774    21914.265    1.5012686 
    1050    381.70997   -8456.0224   -8413.4421   -12925.622    21914.265    1.5119118 
    1060    391.42566   -8457.1073   -8413.4432    -13146.33    21914.265    1.5173209 
    1070    396.24192   -8457.6441   -8413.4428   -13102.084    21914.265    1.5196151 
    1080    397.63032   -8457.7993    -8413.443   -12889.784    21914.265    1.5211703 
    1090    396.12759   -8457.6308   -8413.4422   -12537.537    21914.265    1.5231683 
    1100    400.33119   -8458.1002   -8413.4426   -12299.668    21914.265    1.5256834 
    1110    407.17314   -8458.8635   -8413.4428   -12099.612    21914.265    1.5296348 
    1120    413.19804   -8459.5369    -8413.444   -11926.861    21914.265    1.5369315 
    1130    409.94165   -8459.1721   -8413.4425   -11927.354    21914.265    1.5487344 
    1140    411.69689   -8459.3679   -8413.4425   -12274.932    21914.265    1.5644715 
    1150    417.92932   -8460.0654   -8413.4448   -12599.199    21914.265    1.5822789 
    1160    409.45399   -8459.1175   -8413.4423   -12608.558    21914.265    1.6004412 
    1170    405.75202   -8458.7057   -8413.4435   -12496.116    21914.265    1.6169469 
    1180    399.97271   -8458.0606    -8413.443   -12466.412    21914.265    1.6317671 
    1190    393.04741   -8457.2883   -8413.4433   -12618.331    21914.265    1.6460138 
    1200    381.93867   -8456.0489   -8413.4431   -12576.103    21914.265    1.6602667 
    1210    376.72969   -8455.4667   -8413.4419   -12745.258    21914.265    1.6726433 
    1220     387.4652   -8456.6661   -8413.4437   -13270.317    21914.265    1.6819979 
    1230    392.11995   -8457.1848   -8413.4433   -13698.725    21914.265    1.6894908 
    1240    392.35374   -8457.2109   -8413.4432   -14054.078    21914.265    1.6958816 
    1250    387.63167   -8456.6848   -8413.4439   -14383.659    21914.265    1.7022745 
    1260    377.01437   -8455.4984   -8413.4419   -14780.957    21914.265    1.7098627 
    1270    380.16106   -8455.8505   -8413.4429    -15291.91    21914.265    1.7186286 
    1280    386.65141    -8456.575   -8413.4435   -15684.863    21914.265    1.7280931 
    1290    386.45138   -8456.5524   -8413.4431   -15669.118    21914.265    1.7377267 
    1300    384.49318   -8456.3333   -8413.4425   -15192.167    21914.265    1.7465203 
    1310    389.16883   -8456.8559   -8413.4435   -14748.802    21914.265    1.7543822 
    1320    395.91985   -8457.6092   -8413.4437   -14540.669    21914.265    1.7626209 
    1330    402.24128   -8458.3144   -8413.4438   -14482.176    21914.265    1.7719127 
    1340    406.72312   -8458.8138   -8413.4433   -14593.779    21914.265    1.7822942 
    1350    413.88937   -8459.6138   -8413.4438   -14633.206    21914.265    1.7929881 
    1360    418.26368   -8460.1021   -8413.4441   -14272.723    21914.265    1.8043383 
    1370    412.53709   -8459.4628   -8413.4437   -13640.472    21914.265    1.8173742 
    1380    404.03017    -8458.513   -8413.4428   -13053.663    21914.265    1.8314414 
    1390    402.11865   -8458.3013   -8413.4444   -12796.252    21914.265    1.8446224 
    1400    396.75786   -8457.7017   -8413.4428   -12890.081    21914.265    1.8555613 
    1410     401.1626   -8458.1945   -8413.4442   -13251.623    21914.265    1.8625402 
    1420    405.53922    -8458.683   -8413.4445   -13540.901    21914.265    1.8651673 
    1430    404.12534   -8458.5245   -8413.4437   -13662.885    21914.265    1.8648977 
    1440    405.72045   -8458.7027    -8413.444   -13771.634    21914.265    1.8643414 
    1450    406.67484   -8458.8092    -8413.444   -13873.149    21914.265    1.8661066 
    1460    406.94702   -8458.8395   -8413.4439   -13898.845    21914.265    1.8707341 
    1470    405.99802   -8458.7335   -8413.4438    -13583.81    21914.265    1.8783175 
    1480    405.25435   -8458.6503   -8413.4436   -13097.342    21914.265    1.8881067 
    1490    408.19865    -8458.979   -8413.4439   -12662.726    21914.265    1.8977467 
    1500    414.56579   -8459.6887   -8413.4433   -12296.863    21914.265    1.9065246 
    1510    429.03716   -8461.3044   -8413.4447   -11735.577    21914.265    1.9156573 
    1520    435.43303   -8462.0188   -8413.4456   -11140.275    21914.265    1.9269758 
    1530    420.46896   -8460.3486   -8413.4446     -10759.3    21914.265    1.9420002 
    1540    404.55727   -8458.5707   -8413.4417   -10562.297    21914.265    1.9594173 
    1550     414.5371   -8459.6878   -8413.4456   -10873.945    21914.265    1.9756145 
    1560    415.64167   -8459.8093   -8413.4438    -11180.84    21914.265    1.9896674 
    1570    417.51903   -8460.0192   -8413.4444   -11574.862    21914.265      2.00287 
    1580    420.71133   -8460.3754   -8413.4444   -12084.028    21914.265    2.0173903 
    1590    422.23753   -8460.5459   -8413.4446   -12650.323    21914.265    2.0354221 
    1600    420.26548   -8460.3254   -8413.4441   -13157.964    21914.265    2.0567995 
    1610    418.97614   -8460.1816   -8413.4442   -13379.664    21914.265    2.0784503 
    1620    422.99101    -8460.629   -8413.4437   -13476.483    21914.265    2.0978277 
    1630    431.41255   -8461.5707    -8413.446   -13473.665    21914.265     2.115193 
    1640    426.28653   -8460.9963   -8413.4434   -13430.412    21914.265    2.1338075 
    1650    431.13487   -8461.5387    -8413.445   -13658.596    21914.265       2.1559 
    1660    436.17822   -8462.1019   -8413.4456   -13638.641    21914.265    2.1797337 
    1670    428.12023   -8461.2022   -8413.4447   -13252.346    21914.265    2.2035441 
    1680    422.66155   -8460.5919   -8413.4434   -13022.696    21914.265    2.2262152 
    1690    430.34848   -8461.4521    -8413.446   -12966.155    21914.265    2.2464937 
    1700    426.21611   -8460.9896   -8413.4446   -12849.343    21914.265    2.2649593 
    1710    421.63281   -8460.4781   -8413.4443    -12902.06    21914.265    2.2822078 
    1720    425.52952   -8460.9136   -8413.4451   -13254.993    21914.265    2.2992296 
    1730    433.21398   -8461.7705   -8413.4448   -13760.925    21914.265    2.3170264 
    1740    441.86781   -8462.7372   -8413.4461   -14050.542    21914.265    2.3352522 
    1750    438.27813    -8462.336   -8413.4454   -13921.401    21914.265    2.3528289 
    1760    429.17186   -8461.3192   -8413.4444   -13408.002    21914.265    2.3694072 
    1770    428.81898   -8461.2807   -8413.4453    -12917.73    21914.265    2.3858611 
    1780    433.34916   -8461.7857    -8413.445   -12638.931    21914.265    2.4026666 
    1790     441.0669   -8462.6474   -8413.4457   -12705.172    21914.265     2.419074 
    1800    447.24535   -8463.3359    -8413.445   -12842.309    21914.265    2.4345236 
    1810    451.04914   -8463.7611   -8413.4459   -13058.485    21914.265    2.4502124 
    1820    445.08252   -8463.0941   -8413.4445   -13035.825    21914.265    2.4671851 
    1830    441.70858   -8462.7187   -8413.4454   -12922.342    21914.265    2.4853863 
    1840    432.65555   -8461.7082   -8413.4449   -13058.866    21914.265    2.5046773 
    1850    428.24526   -8461.2146   -8413.4432   -13494.155    21914.265    2.5239509 
    1860    442.70809   -8462.8312   -8413.4464     -14052.9    21914.265    2.5417036 
    1870    445.34398   -8463.1238   -8413.4451   -14177.248    21914.265    2.5577578 
    1880    449.56383   -8463.5931   -8413.4436   -14088.107    21914.265    2.5732932 
    1890    469.70151   -8465.8424   -8413.4465   -13965.821    21914.265    2.5900107 
    1900    475.61979   -8466.5029   -8413.4468   -13338.709    21914.265    2.6092547 
    1910    460.77113   -8464.8444   -8413.4447   -12266.897    21914.265    2.6300063 
    1920    453.29076   -8464.0097   -8413.4444   -11600.031    21914.265    2.6488623 
    1930    455.01355   -8464.2038   -8413.4464   -11532.276    21914.265     2.664581 
    1940    446.57627   -8463.2611   -8413.4448   -11610.068    21914.265    2.6787843 
    1950    442.24787   -8462.7779   -8413.4445    -12067.88    21914.265     2.691974 
    1960    445.34565   -8463.1243   -8413.4453   -12574.104    21914.265    2.7033659 
    1970     445.3849   -8463.1293   -8413.4459   -12683.518    21914.265    2.7130116 
    1980    438.45896   -8462.3558    -8413.445   -12521.804    21914.265    2.7223802 
    1990    435.82997    -8462.062   -8413.4445   -12590.151    21914.265    2.7312795 
    2000    445.20858   -8463.1089   -8413.4452   -13039.215    21914.265    2.7384799 
Loop time of 1409.3 on 16 procs for 2000 steps with 864 atoms

Performance: 0.123 ns/day, 195.736 hours/ns, 1.419 timesteps/s
97.3% CPU use with 16 MPI tasks x 1 OpenMP threads

MPI task timing breakdown:
Section |  min time  |  avg time  |  max time  |%varavg| %total
---------------------------------------------------------------
Pair    | 585.9      | 907.94     | 1396.4     | 746.4 | 64.43
Bond    | 0.00017071 | 0.00041996 | 0.00075388 |   0.0 |  0.00
Neigh   | 0.017718   | 0.029761   | 0.054125   |   6.4 |  0.00
Comm    | 12.534     | 445.11     | 725.83     | 984.0 | 31.58
Output  | 0.24087    | 37.232     | 78.683     | 507.6 |  2.64
Modify  | 0.0097036  | 0.011579   | 0.014009   |   0.9 |  0.00
Other   |            | 18.97      |            |       |  1.35

Nlocal:        54.0000 ave          84 max          36 min
Histogram: 3 3 4 0 0 2 1 0 1 2
Nghost:        477.750 ave         592 max         348 min
Histogram: 2 0 2 1 3 3 1 0 0 4
Neighs:         0.00000 ave           0 max           0 min
Histogram: 16 0 0 0 0 0 0 0 0 0
FullNghs:      2234.12 ave        4892 max        1038 min
Histogram: 5 5 0 0 2 0 2 0 0 2

Total # of neighbors = 35746
Ave neighs/atom = 41.372685
Ave special neighs/atom = 0.0000000
Neighbor list builds = 199
Dangerous builds = 198
unfix   1

velocity    all create 562.5 1312343 dist gaussian
fix     2 all npt temp 562.5 562.5 $(100.0*dt) aniso 0.0 1.01325 $(1000.0*dt)
fix     2 all npt temp 562.5 562.5 0.10000000000000000555 aniso 0.0 1.01325 $(1000.0*dt)
fix     2 all npt temp 562.5 562.5 0.10000000000000000555 aniso 0.0 1.01325 1
run     3000
Per MPI rank memory allocation (min/avg/max) = 8.894 | 8.907 | 8.916 Mbytes
Step Temp PotEng TotEng Press Volume c_msd[4] 
    2000        562.5   -8463.1089   -8400.3612   -12401.489    21914.265    2.7384799 
    2010     537.9723   -8460.5411   -8400.5295   -12088.219    21900.954     2.737268 
    2020    506.70245   -8457.4737   -8400.9503   -11064.006    21861.937     2.733741 
    2030    512.66911   -8458.6762   -8401.4872   -10052.326    21799.512    2.7270274 
    2040    516.26349   -8459.6065   -8402.0165   -8394.2128    21716.561     2.718276 
    2050    521.07913   -8460.5622   -8402.4351   -6531.6618    21617.502    2.7097752 
    2060     531.8193   -8461.9881   -8402.6628   -4468.1188    21507.703    2.7041668 
    2070    523.02254   -8460.9673   -8402.6233   -2102.8118    21393.216     2.701941 
    2080    532.13044   -8461.6834   -8402.3234   -127.37562     21280.47    2.7007487 
    2090    548.70172   -8463.0488   -8401.8403    1038.6351    21174.715    2.6996587 
    2100    558.97845   -8463.6883   -8401.3334    1253.2432    21078.894    2.6987199 
    2110    572.97534   -8464.8362   -8400.9199    903.68356    20993.541    2.6973583 
    2120    575.11303   -8464.7867   -8400.6319    603.18357    20917.776    2.6967415 
    2130    581.34175   -8465.3184   -8400.4688    -46.22556    20850.385    2.6999519 
    2140    584.83619   -8465.6546   -8400.4152    -1078.253    20789.481    2.7091591 
    2150    584.60098   -8465.6643   -8400.4512   -1635.0427    20732.732    2.7228806 
    2160    589.53449   -8466.3028   -8400.5394   -1459.8372    20678.714    2.7374851 
    2170    592.53082   -8466.7546   -8400.6569   -931.28835    20627.279    2.7515019 
    2180    591.35511   -8466.7671   -8400.8005   -237.11642    20578.981    2.7652742 
    2190    597.07872   -8467.5915   -8400.9864    169.39446      20534.5    2.7781944 
    2200    603.43242   -8468.5583   -8401.2445    630.09884    20494.097    2.7908217 
    2210    599.32177   -8468.4455   -8401.5902     1125.425    20458.044    2.8058868 
    2220    600.30364   -8468.9898    -8402.025    1139.2991    20426.605    2.8233471 
    2230    598.78694   -8469.3353   -8402.5397    986.35164    20399.368    2.8398007 
    2240    599.08208   -8469.9327   -8403.1042    1048.6224     20375.68    2.8526194 
    2250    602.68277   -8470.9245   -8403.6943     1421.082     20355.34    2.8622144 
    2260    593.52556   -8470.4846   -8404.2759    1997.2794    20338.748    2.8721392 
    2270    596.96489   -8471.4343   -8404.8419    2043.2886    20326.553    2.8847578 
    2280    614.58423   -8473.9866   -8405.4288    1498.2273    20318.575    2.8995453 
    2290     606.0911   -8473.6667   -8406.0563    1087.8105    20313.686    2.9155966 
    2300    577.56501   -8471.0872    -8406.659    1482.8792     20311.13     2.932781 
    2310    576.48494   -8471.4911   -8407.1833    1596.2878    20311.317     2.950791 
    2320     596.8154   -8474.2394   -8407.6638    1245.2686     20314.27    2.9723279 
    2330    594.29319   -8474.4305   -8408.1362    1633.5702    20319.517    2.9990147 
    2340    596.20915   -8475.1309   -8408.6229    1705.9033    20327.469    3.0286351 
    2350    607.71724   -8476.9455   -8409.1538    1105.5305    20338.105    3.0585332 
    2360    605.66214   -8477.3021   -8409.7396    548.53879    20350.383    3.0873236 
    2370    600.27418   -8477.3227   -8410.3612    95.843487    20363.249    3.1165077 
    2380    600.06693   -8477.9361   -8410.9977   -117.08169     20375.88    3.1476014 
    2390    605.12629   -8479.1449   -8411.6422    21.184857    20387.909    3.1799858 
    2400    607.50909   -8480.0663   -8412.2978    436.86394    20399.622    3.2145621 
    2410     595.3867   -8479.3744   -8412.9581    645.68587    20411.698    3.2535101 
    2420    577.56111   -8478.0094   -8413.5816    778.11608    20424.549    3.2955701 
    2430    586.14628   -8479.5479   -8414.1624    542.44184    20438.325    3.3356759 
    2440    608.26103   -8482.5955   -8414.7431    -166.6137    20452.538       3.3714 
    2450    617.10495   -8484.1987   -8415.3597   -826.46198     20465.97    3.4044037 
    2460    603.64844   -8483.3507   -8416.0128   -1111.3111    20477.478    3.4364716 
    2470    580.55036   -8481.4219   -8416.6606   -1114.0575    20486.603    3.4682554 
    2480    572.85374   -8481.1784   -8417.2757   -1382.6675    20493.312    3.4995655 
    2490    574.08047   -8481.8945   -8417.8549   -1662.7412     20497.24    3.5309793 
    2500    578.89369   -8482.9885   -8418.4121   -1643.8128    20498.023    3.5632457 
    2510    568.95417   -8482.4094   -8418.9417   -1174.6604    20495.859    3.5967496 
    2520    566.00011   -8482.5584   -8419.4202   -754.70044    20491.627    3.6302461 
    2530    579.50919   -8484.5078   -8419.8627   -610.99682    20486.134     3.662098 
    2540    572.53304   -8484.1615   -8420.2946   -102.93565    20479.815     3.693036 
    2550    557.80234   -8482.9336   -8420.7099    538.96857    20473.602    3.7250174 
    2560     553.7822   -8482.8697   -8421.0945    962.30217      20468.6    3.7591962 
    2570    558.29114   -8483.7186   -8421.4403    1240.2522    20465.555    3.7950886 
    2580    582.62396   -8486.7718   -8421.7792    1245.2091    20464.851     3.832064 
    2590    602.25765   -8489.3404   -8422.1577    1524.1917     20466.53    3.8693593 
    2600    601.56821   -8489.7225   -8422.6166    1757.0937    20470.928    3.9068616 
    2610    585.25922   -8488.4259   -8423.1394     1944.839    20478.398     3.946571 
    2620    573.46066   -8487.6397   -8423.6693    1575.1675    20489.052    3.9891547 
    2630    580.13268   -8488.8895   -8424.1748    967.84043    20502.159    4.0334055 
    2640    602.84622   -8491.9494    -8424.701    338.41266     20516.54    4.0783367 
    2650    596.62604   -8491.8282   -8425.2737    333.17771    20531.123    4.1215974 
    2660    579.33508   -8490.4852   -8425.8595    156.18434    20545.739    4.1586107 
    2670    581.47908   -8491.2853   -8426.4204   -1077.8789    20559.908    4.1868214 
    2680    577.05042   -8491.3278    -8426.957   -2255.4476     20571.56    4.2073082 
    2690    551.42627   -8488.9511   -8427.4386   -2653.0416    20578.731    4.2229917 
    2700    551.66586   -8489.3914   -8427.8523   -2761.5029    20580.758    4.2375096 
    2710    563.08566   -8491.0303   -8428.2172   -2897.4219    20577.574    4.2529049 
    2720    584.22382   -8493.7527   -8428.5817   -3143.9054    20569.107    4.2674196 
    2730    596.11133   -8495.4913   -8428.9942   -2672.0062    20555.254    4.2801163 
    2740    578.37151   -8493.9603   -8429.4421   -1332.3824    20537.116    4.2934502 
    2750    572.77452   -8493.7779    -8429.884   -102.30685    20517.177    4.3096406 
    2760    591.72723     -8496.34    -8430.332    396.00024     20497.67    4.3277664 
    2770    604.34056   -8498.2525   -8430.8374    780.40346    20479.578    4.3455124 
    2780    571.84755    -8495.168   -8431.3775    1510.4251    20463.655    4.3628177 
    2790    544.17539   -8492.5746    -8431.871    1836.6302    20451.025    4.3811913 
    2800    546.88377   -8493.3051   -8432.2994    1766.1977    20442.151    4.4020771 
    2810    547.85005    -8493.785   -8432.6715     1808.698    20436.837    4.4267372 
    2820    549.98876   -8494.3447   -8432.9927    2063.9319    20435.066    4.4570758 
    2830    562.48203   -8496.0245   -8433.2788    2105.4563    20437.126    4.4940289 
    2840    577.07691    -8497.937   -8433.5632    1746.8187    20442.916    4.5384007 
    2850    563.16649   -8496.6821     -8433.86    1630.0704    20451.766    4.5898626 
    2860    544.61371   -8494.8866   -8434.1342    1408.6843    20463.279     4.644601 
    2870    564.33221   -8497.3189   -8434.3667    771.61466    20476.913    4.6980075 
    2880    582.72993   -8499.5869   -8434.5825    293.80485    20491.524    4.7478992 
    2890    576.32193   -8499.1075   -8434.8179    64.502996    20506.213    4.7916554 
    2900    575.99479   -8499.3416   -8435.0885    -139.1056    20520.499    4.8272106 
    2910    567.50329   -8498.6863   -8435.3804    -13.45635    20534.069    4.8582379 
    2920    560.86982    -8498.239   -8435.6731    469.46838    20547.202    4.8886693 
    2930    584.41116   -8501.1683   -8435.9764    734.31409    20560.698    4.9191183 
    2940    596.10262   -8502.8328   -8436.3366    1101.9959    20575.098    4.9486763 
    2950    579.33502   -8501.3812   -8436.7555    1159.9532    20590.996    4.9776427 
    2960    573.80422   -8501.2145   -8437.2057    690.37462    20608.419    5.0064815 
    2970    555.29672   -8499.5847   -8437.6405    300.20376    20626.552    5.0358558 
    2980    549.57868   -8499.3376   -8438.0312   -215.08721    20644.617    5.0656885 
    2990    545.50759   -8499.2097   -8438.3575   -960.35026    20661.649    5.0962997 
    3000     551.6831   -8500.1607   -8438.6196   -2075.8265     20676.25    5.1251463 
    3010    564.99484   -8501.8722   -8438.8462   -3432.3826    20686.412    5.1482479 
    3020    565.00277   -8502.0966   -8439.0697   -4102.3873    20689.911     5.162504 
    3030    565.44837   -8502.3832   -8439.3066   -4169.0241    20685.681     5.168349 
    3040    567.15204   -8502.8205   -8439.5538   -3724.4348    20673.846    5.1692009 
    3050    564.87183   -8502.8191   -8439.8068   -2742.0129    20655.512    5.1673213 
    3060    558.79987   -8502.3824   -8440.0474   -1709.9199    20632.668     5.164778 
    3070    557.44326    -8502.451   -8440.2674   -984.16127    20607.339    5.1630252 
    3080    547.42751   -8501.5219   -8440.4555   -318.00662    20581.015    5.1626548 
    3090    546.42294   -8501.5581   -8440.6037    314.13031    20554.978    5.1639093 
    3100    548.90207    -8501.943   -8440.7121    1089.9404    20530.433    5.1670894 
    3110    553.26018   -8502.4915   -8440.7745    1950.1388    20508.771    5.1732107 
    3120    583.02386   -8505.8654   -8440.8283    1866.4472    20491.262    5.1833437 
    3130    581.74167   -8505.8236   -8440.9294    1718.6637    20477.774    5.1982566 
    3140      556.989   -8503.1963   -8441.0634    2001.6203    20468.001    5.2167797 
    3150    566.53648   -8504.4043   -8441.2063    1742.7049    20462.131    5.2377142 
    3160    574.02525   -8505.3967   -8441.3633    1290.3801    20459.627    5.2630291 
    3170    573.77042    -8505.562    -8441.557    860.67452    20459.564    5.2932441 
    3180    565.17167    -8504.818   -8441.7722    1011.3808    20461.206    5.3251451 
    3190    575.34912   -8506.1943   -8442.0132    909.86705    20464.618    5.3561466 
    3200    574.47253   -8506.3835   -8442.3003    482.64088    20469.564     5.387947 
    3210    559.21498   -8505.0029   -8442.6217    13.737996    20475.259    5.4203686 
    3220    575.50331   -8507.1687   -8442.9704   -1094.7441      20480.7    5.4496862 
    3230     595.5483   -8509.8224   -8443.3881   -2092.7111    20483.967    5.4733699 
    3240    576.10215   -8508.1516   -8443.8865   -1794.4982    20483.518    5.4896973 
    3250    564.69753   -8507.4135   -8444.4206   -1313.6607    20479.784    5.4960572 
    3260    561.37223   -8507.5702   -8444.9483   -1157.3631    20473.664    5.4921575 
    3270    563.69264   -8508.3187    -8445.438   -1119.5406    20465.579    5.4811468 
    3280    586.14469   -8511.2962   -8445.9109   -1435.6389    20455.592     5.468666 
    3290    574.87955   -8510.4923   -8446.3636   -1086.9885    20443.378    5.4576438 
    3300    557.68837   -8508.9644   -8446.7534   -409.94133    20429.546    5.4495384 
    3310    556.81349   -8509.1651   -8447.0517    180.51219    20415.323    5.4449866 
    3320    573.40278   -8511.2442   -8447.2802    595.20024     20401.82    5.4414092 
    3330    590.90012   -8513.4101   -8447.4943    633.45891     20389.71    5.4376642 
    3340    583.46706   -8512.8052   -8447.7186    1072.2099    20379.177    5.4366392 
    3350    572.44926   -8511.7971   -8447.9395    1969.9164    20370.974    5.4397394 
    3360    568.57005   -8511.5668    -8448.142    2925.1039      20366.6    5.4459466 
    3370    569.25248   -8511.8348   -8448.3338    3459.7995    20367.635    5.4567054 
    3380    571.71749   -8512.3112   -8448.5352    3360.8417    20374.875    5.4765901 
    3390    569.94667    -8512.336   -8448.7575     2824.939    20388.013    5.5090939 
    3400    553.28431   -8510.7053   -8448.9856    2092.4912    20406.003    5.5549292 
    3410    548.04893   -8510.3213   -8449.1856    703.11969    20427.313    5.6119412 
    3420    566.62282   -8512.5455   -8449.3378   -1015.6991    20449.363    5.6764824 
    3430    564.10548   -8512.3761   -8449.4493   -2091.3733    20469.105    5.7441688 
    3440    555.21314   -8511.4672   -8449.5324   -2310.0598    20484.637    5.8099884 
    3450    570.78058   -8513.2743   -8449.6029    -2487.141    20495.501     5.871826 
    3460    571.71373   -8513.4568   -8449.6813   -2493.6557    20501.509    5.9305139 
    3470    565.37759   -8512.8498   -8449.7811   -2385.4048    20502.766     5.985267 
    3480    564.19323   -8512.8322   -8449.8956   -2236.8676    20499.597    6.0331565 
    3490    561.76779   -8512.6904   -8450.0243   -1875.0321    20492.415    6.0724017 
    3500    558.94101   -8512.5088   -8450.1581   -1003.8957    20482.079    6.1042752 
    3510    571.68135   -8514.0728   -8450.3009    63.353504    20470.184    6.1326355 
    3520    578.91358   -8515.0421   -8450.4634    1130.6487     20458.73    6.1596679 
    3530    572.55319   -8514.5317   -8450.6626    1785.4667    20449.617     6.185134 
    3540    568.82609   -8514.3435   -8450.8901    1397.3003    20443.878    6.2100968 
    3550    588.70588   -8516.8401   -8451.1691    93.310152    20440.723    6.2373622 
    3560     580.1717    -8516.228   -8451.5089   -830.18933    20437.911    6.2688673 
    3570    576.86744   -8516.2585   -8451.9081    -1498.867    20433.665     6.305422 
    3580    570.77275   -8516.0072   -8452.3366   -1437.3171    20426.905    6.3464341 
    3590    578.06509   -8517.2648   -8452.7808   -1227.0916    20417.683    6.3881772 
    3600    596.05196   -8519.7603   -8453.2698   -955.41893     20406.47    6.4291382 
    3610    588.19148   -8519.4154   -8453.8018   -398.96371    20393.848    6.4685377 
    3620    588.43781   -8519.9889   -8454.3478    126.88999     20380.83    6.5032914 
    3630    584.88872   -8520.1296   -8454.8843    612.09759    20368.378    6.5306811 
    3640     565.1636   -8518.3999   -8455.3551    1160.3736    20357.426    6.5497378 
    3650    571.09574   -8519.4642   -8455.7576    916.83871    20348.754    6.5620582 
    3660     558.1032   -8518.3497   -8456.0924    782.18168    20342.033    6.5702956 
    3670    545.86364   -8517.2403   -8456.3484    457.31426    20336.879    6.5754027 
    3680    562.62711   -8519.3013   -8456.5394   -141.15021    20332.648    6.5787009 
    3690    583.14435    -8521.763   -8456.7124   -446.63742    20328.308    6.5832288 
    3700    583.29478    -8521.975   -8456.9076   -132.31446    20323.369    6.5897056 
    3710    568.75011   -8520.5637   -8457.1188   -10.895899     20318.28    6.5952697 
    3720    564.44665    -8520.281   -8457.3161   -430.36592    20313.198    6.5964158 
    3730    573.95808   -8521.5283   -8457.5024   -770.78152    20307.498    6.5903846 
    3740    568.60936   -8521.1159   -8457.6867   -547.46088    20300.656    6.5772938 
    3750    569.10435   -8521.3574   -8457.8729   -217.46698    20293.009    6.5614729 
    3760    580.20547    -8522.795   -8458.0722    23.734326     20285.15    6.5488648 
    3770    581.52086   -8523.1761   -8458.3066    150.40435     20277.49     6.542427 
    3780    573.46693   -8522.5471    -8458.576    464.17225     20270.31    6.5400364 
    3790     560.3947   -8521.3682   -8458.8554    751.32117     20264.13    6.5365044 
    3800    557.34168   -8521.2929   -8459.1206    645.12243     20259.39    6.5310396 
    3810    566.20909   -8522.5282   -8459.3667    333.41595    20255.907    6.5243521 
    3820    573.29847   -8523.5635   -8459.6112    334.10356     20253.15    6.5164639 
    3830    580.37739   -8524.6269   -8459.8849       632.33    20251.118    6.5117637 
    3840    573.19913   -8524.1417   -8460.2005    1055.1602    20250.314    6.5128859 
    3850    563.57461   -8523.3993   -8460.5317     1362.121     20251.43    6.5175145 
    3860    571.25914   -8524.5867   -8460.8619    1168.2378    20254.924    6.5278677 
    3870    573.99274   -8525.2258    -8461.196    612.92669    20260.384    6.5471303 
    3880    569.29552   -8525.0388    -8461.533    451.48317    20266.941    6.5751248 
    3890    571.65773    -8525.644   -8461.8747    154.68542    20274.145    6.6126373 
    3900    577.58225   -8526.6596   -8462.2295   -247.24182    20281.468    6.6588056 
    3910     581.6499   -8527.4932   -8462.6093   -860.69931    20288.134    6.7088836 
    3920     570.4326   -8526.6312   -8462.9986   -946.70536    20293.198    6.7593107 
    3930    564.36726   -8526.3264   -8463.3704   -646.15564    20296.498    6.8116526 
    3940    568.24339   -8527.1018   -8463.7134   -567.14782    20298.493    6.8674634 
    3950    568.41335   -8527.4384    -8464.031   -345.85533    20299.456    6.9248493 
    3960    552.83997   -8525.9892   -8464.3191   -99.581087    20299.762     6.981426 
    3970    532.68101   -8523.9619   -8464.5405    84.112387    20299.879    7.0342536 
    3980    534.80684   -8524.3186     -8464.66    262.65386    20300.165    7.0817942 
    3990     561.0454   -8527.2915    -8464.706    373.61446    20300.926    7.1264303 
    4000    562.93071   -8527.5249   -8464.7292    453.67357    20302.338    7.1680216 
    4010    550.15236   -8526.1131   -8464.7428    726.35414    20304.599     7.201852 
    4020    583.07485   -8529.8068   -8464.7639    314.32429    20307.998    7.2269711 
    4030    597.03301    -8531.433   -8464.8331    70.637639     20311.92    7.2502498 
    4040    573.16852   -8528.9017   -8464.9639    145.20685    20315.944    7.2795635 
    4050    570.98295   -8528.8154   -8465.1213    45.604604    20320.109    7.3152067 
    4060    574.03534   -8529.3246   -8465.2901    386.51524    20324.335    7.3508518 
    4070    573.05025   -8529.4018   -8465.4772     820.8909    20329.171    7.3847621 
    4080    574.23407   -8529.7454   -8465.6888    1142.4422    20335.379    7.4192167 
    4090    569.14364   -8529.4076   -8465.9187    1795.1179    20343.605    7.4562779 
    4100    576.43488   -8530.4697   -8466.1675    2202.7596    20354.895    7.4971572 
    4110    589.40453   -8532.1966   -8466.4476    1680.0195    20369.787    7.5426213 
    4120    587.43422   -8532.2963   -8466.7671    840.17219    20387.368    7.5922548 
    4130    569.35043   -8530.6181   -8467.1062    391.20389    20406.178    7.6458971 
    4140    557.73001   -8529.6362   -8467.4206    93.985031    20425.331    7.7020515 
    4150    584.95257   -8532.9614    -8467.709   -988.21722    20444.075    7.7572576 
    4160    597.27392   -8534.6501   -8468.0233   -1842.5517    20460.614    7.8096189 
    4170    570.06743   -8531.9518     -8468.36   -1889.2223    20473.548    7.8584033 
    4180    573.35172   -8532.6439   -8468.6857   -2655.8674    20482.565    7.9045589 
    4190    577.48135   -8533.4203   -8469.0014   -3528.3446    20486.481    7.9509867 
    4200     564.4579   -8532.2589   -8469.2928   -4385.3533    20483.769    8.0002006 
    4210    572.93917   -8533.4723   -8469.5601   -4937.8201    20473.045    8.0485828 
    4220    581.30832     -8534.68   -8469.8342   -4908.2277    20453.518    8.0890996 
    4230    570.62494   -8533.7742   -8470.1202   -3818.7821    20425.619    8.1181342 
    4240    577.08134   -8534.7601   -8470.3858   -2447.2906    20391.449    8.1359944 
    4250    598.84357   -8537.4475   -8470.6456   -991.33243    20353.699    8.1437095 
    4260    585.65431   -8536.2402   -8470.9096    1085.0764    20315.286    8.1445882 
    4270    570.77428   -8534.8199   -8471.1491     2449.873    20279.818    8.1487508 
    4280    583.37709   -8536.4668   -8471.3903    1873.8445    20249.482    8.1667436 
    4290    591.36367   -8537.6371   -8471.6696    663.77805    20223.311    8.1975969 
    4300    594.16766   -8538.2828   -8472.0025   -144.02394    20199.147    8.2336635 
    4310    585.96342   -8537.7257   -8472.3606   -162.16371    20175.566    8.2691316 
    4320    584.90795   -8537.9612   -8472.7138    79.422265    20152.437    8.3012046 
    4330    581.96471   -8537.9775   -8473.0585    650.52135    20130.218    8.3286789 
    4340    580.95525   -8538.2117   -8473.4053    1348.9788    20109.895    8.3550483 
    4350    580.28945   -8538.4964   -8473.7642    1441.8172    20092.496    8.3840922 
    4360    580.26548   -8538.8609   -8474.1314    1805.7391    20078.249      8.41345 
    4370    567.24002   -8537.7632   -8474.4867    2496.7963    20067.689    8.4399064 
    4380    563.75841   -8537.6987   -8474.8106    2902.3498    20061.838    8.4651855 
    4390    586.74045   -8540.5838   -8475.1321    2460.9852    20061.162    8.4944253 
    4400    591.21478   -8541.4375   -8475.4866    1800.8943    20064.823    8.5327084 
    4410    579.22722   -8540.4825   -8475.8688    1305.9571    20071.606    8.5818036 
    4420    573.33102   -8540.2054   -8476.2495     586.0327    20080.482    8.6381181 
    4430     566.4756   -8539.8009   -8476.6097   -412.42901    20090.118    8.6946858 
    4440    567.80173   -8540.2812   -8476.9421   -1578.4482    20098.732    8.7445604 
    4450    574.39785   -8541.3352   -8477.2603   -2590.5158    20104.305    8.7856953 
    4460    565.93871   -8540.7104   -8477.5791   -2932.5462    20105.226    8.8184705 
    4470    561.39587   -8540.5166   -8477.8921   -2941.5133    20100.953    8.8432358 
    4480    569.18095   -8541.6818   -8478.1888   -2616.9011    20091.588    8.8596378 
    4490     582.5436   -8543.4587    -8478.475   -2109.2074    20077.852    8.8694804 
    4500    588.90769   -8544.4781   -8478.7845   -1419.7263      20060.8    8.8768594 
    4510    568.97291   -8542.5793   -8479.1095   -293.65309    20041.773    8.8821803 
    4520    565.34097   -8542.4823   -8479.4177    695.96601    20022.747    8.8801566 
    4530    584.27631   -8544.8999    -8479.723    1170.4004    20005.405    8.8681724 
    4540    580.83594   -8544.8404   -8480.0473    1808.2625    19990.636    8.8522156 
    4550    578.55156   -8544.9227   -8480.3844    2863.7107    19979.546    8.8409597 
    4560    597.42433   -8547.3978   -8480.7542     3256.964    19973.682    8.8424423 
    4570     591.8273   -8547.1956   -8481.1764    3339.1888    19973.672    8.8590987 
    4580    583.53424    -8546.724   -8481.6299    2802.5813    19979.455    8.8864662 
    4590    600.06005   -8549.0446    -8482.107    1542.1876    19989.916    8.9179906 
    4600    593.78007   -8548.8421    -8482.605    532.47135      20002.9    8.9489409 
    4610    571.86261   -8546.8686   -8483.0764    -380.9411    20016.526    8.9746415 
    4620    575.21823   -8547.6629   -8483.4964   -1579.5913    20029.102     8.991657 
    4630    574.95915   -8548.0111   -8483.8735   -2459.6112    20038.629    9.0019173 
    4640    572.23855   -8548.0568   -8484.2227   -2664.7184    20043.675    9.0087684 
    4650    577.45798   -8548.9712   -8484.5549   -2458.0551    20043.934    9.0102191 
    4660    583.95537   -8550.0248   -8484.8837   -2184.4509    20039.845    9.0056253 
    4670    590.52384   -8551.1026   -8485.2288   -2157.9698    20031.951      8.99655 
    4680    589.14584   -8551.3203   -8485.6002   -2191.2722    20020.401    8.9876744 
    4690    588.13757   -8551.6108   -8486.0032   -2054.8801    20005.274    8.9860905 
    4700    575.97283   -8550.6646    -8486.414   -1609.2405    19986.956    8.9939528 
    4710     581.0061   -8551.6375   -8486.8254   -1896.1502    19966.091     9.005012 
    4720    583.67906   -8552.3668   -8487.2565   -1881.3778    19942.425    9.0098772 
    4730    570.55797   -8551.3257   -8487.6791   -655.71038    19916.237    9.0055766 
    4740    573.56522   -8552.0545   -8488.0725    624.04406    19889.544    8.9960268 
    4750    571.08314    -8552.139   -8488.4338    1543.6069    19864.565    8.9866083 
    4760    576.36799   -8553.0732   -8488.7785    1532.4659    19842.738     8.985669 
    4770    581.34306   -8553.9835   -8489.1338    1035.0536    19824.045    8.9979608 
    4780    565.63226   -8552.5847   -8489.4876    844.81708     19807.68    9.0166242 
    4790    582.46498   -8554.8056   -8489.8308     459.7017    19793.144    9.0339665 
    4800    621.10668   -8559.5152   -8490.2298   -314.10674    19779.707    9.0505913 
    4810    619.59077   -8559.8487   -8490.7324   -1091.7362    19766.065    9.0706672 
    4820    608.86456   -8559.2401   -8491.3204   -1503.4517    19750.959    9.0959297 
    4830    602.04915   -8559.1147   -8491.9552   -1284.5157    19733.755    9.1246372 
    4840    590.17738   -8558.4261   -8492.5909   -640.29787    19714.859    9.1562008 
    4850    586.41347   -8558.6054   -8493.1901   -95.169419    19695.328    9.1915299 
    4860    588.40042   -8559.3805   -8493.7436    344.81524    19676.139    9.2299485 
    4870    589.60938   -8560.0269    -8494.255    179.86894    19657.972    9.2713208 
    4880    596.69887    -8561.319   -8494.7564   -470.16661    19640.532    9.3165111 
    4890    589.25799   -8560.9958   -8495.2632   -655.62148    19622.868    9.3657068 
    4900    590.29611   -8561.6304    -8495.782   -1043.7611    19604.526    9.4216165 
    4910    598.82883   -8563.1323    -8496.332   -1422.6847    19584.933     9.485948 
    4920     592.1219   -8562.9492   -8496.8971   -1105.7408    19563.611    9.5563596 
    4930    591.89174   -8563.4818   -8497.4553   -541.55607    19541.111    9.6320917 
    4940    583.32048   -8563.0744   -8498.0041   -18.736997     19518.39    9.7126771 
    4950    572.14851   -8562.3445   -8498.5204    541.34888    19496.379    9.7955874 
    4960    592.53255   -8565.1181   -8499.0202    365.82151    19475.891     9.879726 
    4970    604.99792   -8567.0329   -8499.5445   -250.67056     19456.64    9.9636496 
    4980    602.78087    -8567.338   -8500.0969   -759.86974    19437.655    10.044969 
    4990    601.02994   -8567.7134   -8500.6677   -967.87497    19418.138    10.123522 
    5000    593.64694   -8567.4696   -8501.2473   -695.66524    19397.808    10.201048 
Loop time of 1916.34 on 16 procs for 3000 steps with 864 atoms

Performance: 0.135 ns/day, 177.439 hours/ns, 1.565 timesteps/s
96.1% CPU use with 16 MPI tasks x 1 OpenMP threads

MPI task timing breakdown:
Section |  min time  |  avg time  |  max time  |%varavg| %total
---------------------------------------------------------------
Pair    | 729.88     | 1268.9     | 1866.7     | 959.9 | 66.22
Bond    | 0.00022721 | 0.00050955 | 0.00094795 |   0.0 |  0.00
Neigh   | 0.027773   | 0.047341   | 0.088931   |   9.4 |  0.00
Comm    | 3.3666     | 419.78     | 1036.1     |1384.9 | 21.91
Output  | 0.18332    | 0.18722    | 0.24448    |   3.4 |  0.01
Modify  | 1.3593     | 227.37     | 673.51     |1419.6 | 11.87
Other   |            | 0.01351    |            |       |  0.00

Nlocal:        54.0000 ave          84 max          36 min
Histogram: 3 4 2 1 0 0 3 1 0 2
Nghost:        512.250 ave         666 max         381 min
Histogram: 2 2 1 3 2 0 2 2 0 2
Neighs:         0.00000 ave           0 max           0 min
Histogram: 16 0 0 0 0 0 0 0 0 0
FullNghs:      2571.12 ave        5430 max        1124 min
Histogram: 6 2 2 0 0 2 2 0 0 2

Total # of neighbors = 41138
Ave neighs/atom = 47.613426
Ave special neighs/atom = 0.0000000
Neighbor list builds = 300
Dangerous builds = 300
unfix   2

fix     3 all npt temp 562.5 562.5 $(100.0*dt) aniso 1.01325 1.01325 $(1000.0*dt)
fix     3 all npt temp 562.5 562.5 0.10000000000000000555 aniso 1.01325 1.01325 $(1000.0*dt)
fix     3 all npt temp 562.5 562.5 0.10000000000000000555 aniso 1.01325 1.01325 1
run     20000
Per MPI rank memory allocation (min/avg/max) = 8.895 | 8.908 | 8.922 Mbytes
Step Temp PotEng TotEng Press Volume c_msd[4] 
    5000    593.64694   -8567.4696   -8501.2473   -695.66524    19397.808    10.201048 
    5010    595.87738    -8567.758    -8501.287   -1005.5343    19397.144    10.246278 
    5020    600.48823   -8568.3941   -8501.4087   -1204.4529    19394.838    10.281069 
    5030    607.69963   -8569.4194   -8501.6296   -1282.2414    19390.531    10.298677 
    5040    608.29432   -8569.8195   -8501.9634   -942.56024    19384.116     10.30685 
    5050    598.65515    -8569.184   -8502.4031   -211.86794    19376.192    10.316663 
    5060    592.74543   -8569.0472   -8502.9255    322.47773    19367.893    10.333338 
    5070    591.78808    -8569.533   -8503.5182    422.20261    19360.075    10.361652 
    5080    591.31954   -8570.1189   -8504.1564    352.35075    19352.933    10.405048 
    5090    605.01495   -8572.3183    -8504.828     490.3176    19346.404     10.46305 
    5100    599.57579   -8572.3878   -8505.5042    648.29633    19340.681    10.531058 
    5110    600.78783   -8573.1674   -8506.1486     415.6465    19335.994    10.604867 
    5120    618.44841   -8575.7644   -8506.7755   -442.13914    19331.899     10.68652 
    5130    618.14208   -8576.3511   -8507.3964   -1022.5989    19327.098    10.779506 
    5140    595.81649   -8574.4415   -8507.9772   -731.50159     19320.78    10.882166 
    5150    583.59245   -8573.5739   -8508.4733   -475.10791    19313.288    10.989393 
    5160    605.62846   -8576.4941   -8508.9353   -1097.0482    19304.885    11.099244 
    5170    598.27426   -8576.1428   -8509.4044   -1223.7933    19294.869    11.212144 
    5180    593.31154   -8576.0504   -8509.8656   -1389.7474    19282.973    11.326345 
    5190    616.67469   -8579.1448   -8510.3538   -2113.5518    19268.887    11.437404 
    5200    621.85042   -8580.2894    -8510.921   -2343.4693    19251.642    11.540706 
    5210    595.14467   -8577.9078   -8511.5185   -1573.9276    19231.043    11.634186 
    5220    585.03893   -8577.3495   -8512.0875   -926.16495    19208.313    11.718659 
    5230    587.90447   -8578.2196   -8512.6379   -492.37275    19184.592    11.797329 
    5240    598.35369   -8579.9382    -8513.191    350.54767    19160.743    11.871706 
    5250    621.23173   -8583.0724   -8513.7731    1029.5052    19138.085    11.941555 
    5260     640.1552   -8585.8626   -8514.4524    1482.2111    19117.703    12.010098 
    5270    624.60724   -8584.8967   -8515.2208    2134.0156    19100.354    12.081589 
    5280    614.22225   -8584.5398   -8516.0224    2527.3886    19086.901    12.155227 
    5290    609.58129   -8584.8125   -8516.8128    2698.0628    19077.879    12.227918 
    5300    613.50795   -8586.0138   -8517.5761    2570.3617    19073.428    12.300305 
    5310    621.08726   -8587.6157   -8518.3325    1896.1518    19073.151    12.373943 
    5320    618.13256   -8588.0447    -8519.091    1142.2954    19075.901    12.449309 
    5330    608.21167   -8587.6822   -8519.8352     929.1858    19080.477    12.523498 
    5340    603.72767   -8587.8979   -8520.5511    1080.9832    19086.449     12.59234 
    5350    602.67567   -8588.4845   -8521.2551    1301.3965     19093.98    12.654958 
    5360    593.43282   -8588.1467   -8521.9484    1498.7791    19103.378    12.712836 
    5370     593.1051   -8588.7889   -8522.6272    1201.2058    19114.842    12.769118 
    5380    590.77417   -8589.1891   -8523.2874    425.01046    19127.806    12.826198 
    5390    592.93188   -8590.0753   -8523.9328   -410.24166    19141.054    12.886376 
    5400    596.32862   -8591.1066   -8524.5852   -1325.7941    19153.241    12.949566 
    5410    586.52266   -8590.6624    -8525.235   -1825.0935    19163.002    13.011497 
    5420    574.49274   -8589.9513   -8525.8658   -1750.5256    19169.622    13.068164 
    5430    556.70868   -8588.5454   -8526.4437   -1191.1981     19173.32    13.120572 
    5440    555.47886   -8588.9216   -8526.9571    -782.0511    19174.976    13.172715 
    5450     569.1671   -8590.9196   -8527.4281    -682.0473    19175.284     13.22514 
    5460    577.49492   -8592.3143   -8527.8939    -702.3297    19174.464    13.276879 
    5470    562.61279   -8591.1158   -8528.3555   -460.17128    19172.575    13.327638 
    5480    555.00611   -8590.6968    -8528.785   -413.50564    19169.955    13.377505 
    5490    576.66287   -8593.5253   -8529.1977   -1011.6106    19166.637    13.425781 
    5500     579.5398   -8594.2713   -8529.6227   -1645.3061    19161.764    13.471252 
    5510    562.24094   -8592.7725   -8530.0537   -1532.3326    19154.454    13.512731 
    5520    549.74962   -8591.7815   -8530.4561   -884.69317     19144.92    13.547825 
    5530    547.96876   -8591.9375   -8530.8107    39.508615    19134.212    13.573469 
    5540    551.55135   -8592.6487   -8531.1223    1309.8768    19123.854    13.590431 
    5550    545.53105   -8592.2481   -8531.3933    2194.6253    19115.801    13.602421 
    5560    555.54862   -8593.6034   -8531.6311    1688.4797    19111.271    13.615543 
    5570    581.40557   -8596.7291   -8531.8724    367.77118     19109.43    13.632598 
    5580     582.1476   -8597.0936   -8532.1542   -576.31958    19108.288    13.650081 
    5590    562.12614   -8595.1725   -8532.4665   -719.22738    19106.367    13.662794 
    5600    552.00851   -8594.3478   -8532.7704   -535.87336    19103.368    13.667863 
    5610    553.58591   -8594.7994   -8533.0461   -468.36208    19099.548    13.665243 
    5620    571.98805   -8597.1216   -8533.3154   -695.80301     19094.98    13.654577 
    5630    570.82279   -8597.2808   -8533.6047   -339.27506    19089.453    13.636485 
    5640    553.20553   -8595.6052   -8533.8943    526.43261    19083.527    13.615055 
    5650    561.41027   -8596.7902    -8534.164    915.71206    19078.456    13.596683 
    5660    573.89635   -8598.4529   -8534.4339     1067.597    19074.905    13.586363 
    5670    562.84677   -8597.5031   -8534.7167    1711.8156    19073.219    13.588787 
    5680     556.4939   -8597.0793   -8535.0015    2226.3417    19074.298     13.60426 
    5690    554.09244   -8597.0846   -8535.2748    2352.6148    19078.908    13.625553 
    5700    562.13404   -8598.2419    -8535.535     1894.121     19087.18    13.645697 
    5710    584.62996   -8601.0233    -8535.807    1124.3982    19098.378    13.666032 
    5720    590.97389   -8602.0509   -8536.1269    590.73462    19111.325    13.691605 
    5730    574.78791   -8600.6176   -8536.4992    333.48417     19125.15    13.721712 
    5740    550.77793    -8598.314   -8536.8739    30.315529    19139.387    13.751276 
    5750    545.93223    -8598.104   -8537.2045     -944.441    19153.429     13.77752 
    5760    554.11718   -8599.2999   -8537.4873   -1814.1875    19165.858    13.801798 
    5770     564.4319   -8600.7133   -8537.7501   -1948.7805    19175.339    13.825434 
    5780    573.43924   -8601.9923   -8538.0243   -1485.4162    19181.656    13.848119 
    5790    568.66097   -8601.7508   -8538.3158   -1029.2311    19185.496    13.869998 
    5800    558.24118   -8600.8864   -8538.6137   -512.82875    19187.617    13.891678 
    5810    545.84092   -8599.7787   -8538.8893    20.344292    19188.885    13.917335 
    5820    556.13171   -8601.1659   -8539.1286   -227.40127    19190.056    13.952152 
    5830    581.64921   -8604.2473   -8539.3635   -947.68526    19190.801    13.992735 
    5840    584.48552   -8604.8357   -8539.6354   -1007.6463    19190.108    14.029273 
    5850    577.07153   -8604.3261   -8539.9529   -466.87935     19187.85    14.057417 
    5860    571.89103   -8604.0925   -8540.2972   -179.44633    19184.812    14.079989 
    5870    572.75072   -8604.5487   -8540.6575   -545.98491    19181.423    14.100482 
    5880    575.89603   -8605.2739   -8541.0318   -1508.8521    19177.055    14.119074 
    5890    581.95892   -8606.3503   -8541.4319   -2239.6172    19170.274    14.130994 
    5900    573.60825    -8605.843   -8541.8562   -2123.2987    19159.982    14.131931 
    5910      570.773   -8605.9508   -8542.2802   -1296.5827    19146.369    14.123303 
    5920    591.61745   -8608.7119   -8542.7161   -838.04989    19130.614    14.112315 
    5930    607.97486   -8611.0273   -8543.2068   -234.10054    19113.584    14.108572 
    5940    601.35959   -8610.8434   -8543.7608     724.9051    19096.294    14.121874 
    5950    579.89597   -8609.0027   -8544.3144    1203.7416    19080.179    14.156778 
    5960     580.4533   -8609.5792   -8544.8287    1288.6509     19066.05    14.206457 
    5970     584.1221   -8610.4624   -8545.3027     1602.385      19054.1    14.260596 
    5980    579.50076   -8610.3808   -8545.7367    2025.6052    19044.806    14.313708 
    5990    573.26935   -8610.0768   -8546.1277    2510.1621    19038.868    14.363491 
    6000    568.79648   -8609.9307   -8546.4806    2393.7898    19036.927     14.40853 
    6010    576.93927   -8611.1736   -8546.8152    1667.6594    19038.774    14.447074 
    6020    581.33001   -8612.0016   -8547.1534    789.12949    19043.269     14.47752 
    6030    567.94797   -8610.8358   -8547.4804    365.07859    19049.119    14.500297 
    6040    575.07241   -8611.9442    -8547.794   -373.12926    19055.488    14.519201 
    6050    576.87713   -8612.4576   -8548.1061   -841.57256    19061.287    14.538313 
    6060    569.28287   -8611.9243   -8548.4199   -680.74273    19065.821    14.559674 
    6070    571.18531   -8612.4496    -8548.733   -449.88296    19069.248     14.58537 
    6080     571.5383   -8612.7991   -8549.0431   -139.64825    19071.961    14.617327 
    6090     577.6397   -8613.7988   -8549.3622   -66.661615    19074.401    14.652738 
    6100    571.66306   -8613.4606   -8549.6908    33.993528    19076.747      14.6855 
    6110    565.23195   -8613.0659   -8550.0135   -113.65995    19079.125    14.710955 
    6120    573.91452   -8614.3506   -8550.3295   -1067.3643    19081.171    14.725943 
    6130    578.63731   -8615.2006   -8550.6527   -1655.3116    19081.533    14.730157 
    6140    583.36381   -8616.0795   -8551.0044    -1308.381    19079.323    14.729652 
    6150    572.66796   -8615.2568   -8551.3748   -168.78035    19075.121     14.72902 
    6160    567.16135   -8615.0148   -8551.7471    405.70276    19070.546    14.725469 
    6170    559.18679   -8614.4793   -8552.1012     882.9552    19066.621    14.712811 
    6180    556.29853   -8614.4756   -8552.4196    1223.5455    19064.104    14.694317 
    6190     572.5544   -8616.5889   -8552.7196     1293.644    19063.551    14.683272 
    6200    575.17917   -8617.1878   -8553.0257    1325.9154    19065.087    14.690208 
    6210     566.7847   -8616.5587    -8553.333     1476.178      19068.8    14.712664 
    6220    568.50492   -8617.0531   -8553.6356    1559.4487    19074.919    14.739047 
    6230    570.34398   -8617.5589   -8553.9361    1363.1072    19083.576    14.759493 
    6240    573.48424   -8618.2165   -8554.2435    471.55181    19094.384      14.7728 
    6250    570.85657   -8618.2269    -8554.547   -874.02404    19105.909    14.784775 
    6260    576.74202   -8619.1839   -8554.8475   -2147.4027    19116.035    14.798932 
    6270    571.49087   -8618.9023   -8555.1516   -2900.9714    19122.767    14.812602 
    6280     573.2647   -8619.4154   -8555.4669   -3965.7517     19124.69    14.822964 
    6290    575.85562   -8620.0435    -8555.806   -4887.4922    19120.157    14.826092 
    6300    560.79721   -8618.7214   -8556.1636   -5106.3899    19107.754    14.817707 
    6310    543.55841   -8617.1314   -8556.4966   -4511.9294    19087.137    14.794494 
    6320     551.2812     -8618.28   -8556.7838   -3812.5358    19059.196    14.755789 
    6330    570.43713   -8620.6801   -8557.0469   -2850.8172    19025.149    14.705888 
    6340    578.32659   -8621.8149   -8557.3017   -1122.8415    18986.692    14.648856 
    6350    577.15376   -8621.9125   -8557.5301    1064.7873    18946.653    14.589419 
    6360    584.95575   -8622.9848   -8557.7321    2859.5937    18908.466    14.534291 
    6370    589.05877   -8623.6433   -8557.9329    4086.2249     18875.01    14.488006 
    6380    587.38053    -8623.691   -8558.1678    4758.2142     18848.17    14.453067 
    6390    559.18105   -8620.8004   -8558.4229    5729.8899    18829.115    14.430877 
    6400    544.47026   -8619.3971   -8558.6606    6037.4889    18819.154    14.422025 
    6410    560.26219   -8621.3912   -8558.8931    5159.6089    18818.599    14.428179 
    6420    563.52686   -8622.0043    -8559.142    4084.3192    18826.181    14.453984 
    6430    560.25676    -8621.902   -8559.4045    3254.4371     18840.22    14.500115 
    6440    561.52013   -8622.3019   -8559.6635    2635.3419    18859.386    14.560021 
    6450    564.12419   -8622.8386   -8559.9097    1687.6929     18882.61    14.627567 
    6460    555.71201   -8622.1079   -8560.1174    121.03044    18908.318    14.700664 
    6470     563.2012   -8623.0995   -8560.2736   -1643.9996    18934.059    14.778686 
    6480    568.47467   -8623.8196   -8560.4054   -3091.4905    18957.063    14.857002 
    6490    552.75647   -8622.1893   -8560.5285    -4079.739    18975.005    14.922198 
    6500    558.54258   -8622.9487   -8560.6424   -4518.9905    18986.329    14.960501 
    6510    560.44992   -8623.2617   -8560.7427   -4400.3494    18990.374    14.970011 
    6520     558.8071   -8623.1662   -8560.8304   -3818.3498    18987.396    14.958953 
    6530    566.05351    -8624.039   -8560.8949   -3210.5171    18978.345    14.936069 
    6540    562.29823    -8623.652   -8560.9268    -2368.658    18964.344    14.907802 
    6550     552.3179   -8622.5376   -8560.9257   -1397.4225    18946.808    14.877239 
    6560    546.99933     -8621.91   -8560.8914    58.903784    18927.436     14.84405 
    6570     557.5212   -8623.0246   -8560.8322    1276.7137    18908.452    14.811094 
    6580     576.3204   -8625.0758   -8560.7864     2381.204    18891.825    14.785457 
    6590    571.30309   -8624.5077    -8560.778    3365.9914    18879.234    14.770123 
    6600    567.70667    -8624.137   -8560.8085    3618.4317    18872.065    14.763116 
    6610    583.95127    -8626.019   -8560.8784     2806.169    18870.586    14.763324 
    6620    586.82294   -8626.4624   -8561.0014    1277.3081    18873.444    14.769024 
    6630    571.73374   -8624.9525   -8561.1747   -49.082678    18878.297    14.776625 
    6640    558.86682   -8623.7134   -8561.3709   -1285.6418    18882.993    14.784401 
    6650    552.38711    -8623.189   -8561.5694    -2095.322    18885.638    14.794505 
    6660    561.65892   -8624.4211   -8561.7672   -2276.1611    18885.011    14.809854 
    6670    581.57097   -8626.8704   -8561.9952   -2410.1589    18880.797    14.832336 
    6680    571.92352   -8626.0858   -8562.2869   -2042.8065    18872.933     14.86204 
    6690     549.7083   -8623.9437   -8562.6229   -1414.8082    18861.996    14.897658 
    6700    552.65983   -8624.6294   -8562.9794   -1313.8968    18848.899    14.936368 
    6710    557.86143   -8625.5945   -8563.3643    -1201.429    18833.958    14.973699 
    6720    563.18113   -8626.6277    -8563.804   -748.51639    18817.434    15.006071 
    6730    567.71672   -8627.6593   -8564.3297   -230.78396    18800.023    15.037136 
    6740    568.64919   -8628.3921   -8564.9584    276.55738    18782.559    15.071543 
    6750    576.39301   -8629.9749   -8565.6774    246.41813    18765.755    15.104888 
    6760    590.48537   -8632.3638   -8566.4942    60.535966    18749.599    15.130002 
    6770    560.83706   -8629.8645   -8567.3022    962.02734    18733.989    15.143962 
    6780    543.05126   -8628.5394   -8567.9612    2261.7756    18720.196     15.14741 
    6790    544.93291   -8629.2324   -8568.4443    3487.1797    18710.149    15.147026 
    6800    548.62535   -8629.9816   -8568.7816    4344.6093    18705.624    15.148859 
    6810    561.44982   -8631.6683   -8569.0377    4687.8036    18707.835    15.155307 
    6820    568.05261   -8632.6264   -8569.2593    4415.6729    18717.217    15.168809 
    6830     571.0685   -8633.1735   -8569.4699    3326.8796    18733.227    15.190939 
    6840    567.92881   -8633.0136   -8569.6603    1672.6565    18754.113    15.220576 
    6850     567.3543   -8633.1041   -8569.8149   -44.059595    18777.302    15.251999 
    6860    567.21357     -8633.21   -8569.9365   -1365.8544    18800.144    15.277945 
    6870    559.50782   -8632.4575   -8570.0435   -1854.1274    18820.632     15.29824 
    6880    550.19104   -8631.5144   -8570.1397   -1586.2668    18838.038    15.320875 
    6890    547.82831   -8631.3235   -8570.2124   -1554.2112     18852.69    15.353194 
    6900    560.29837   -8632.7636   -8570.2615    -2243.871    18864.582    15.395003 
    6910    563.84072   -8633.1977   -8570.3004   -2889.4298    18872.767    15.440604 
    6920    566.14892   -8633.5019   -8570.3471   -3477.3147    18876.268    15.481064 
    6930    576.67365   -8634.7531   -8570.4243   -3703.3846    18874.284    15.511392 
    6940    571.34622   -8634.2803   -8570.5458   -3155.8973    18866.586    15.532831 
    6950    559.55209   -8633.1089     -8570.69    -2045.166    18854.113    15.545142 
    6960     564.9959   -8633.8566   -8570.8305   -1387.0807    18838.538    15.550604 
    6970    583.65991   -8636.0903   -8570.9822   -993.54376    18820.972    15.558367 
    6980    594.45856   -8637.4967   -8571.1839    232.67759     18802.22    15.574917 
    6990    569.81121    -8634.992   -8571.4287    2374.1983    18784.229    15.599975 
    7000    550.30581   -8633.0598   -8571.6724    4035.7529    18770.143    15.632051 
    7010    557.19716   -8634.0704   -8571.9142    4140.8293    18762.336    15.671516 
    7020    555.53404   -8634.1285   -8572.1579    3649.4451    18761.061    15.720334 
    7030    578.97151   -8637.0008   -8572.4156    2556.5744    18765.416    15.781441 
    7040    602.45074   -8639.9404   -8572.7361    1904.5798    18773.778    15.854926 
    7050     575.7543   -8637.3634   -8573.1371    2225.2385    18785.167    15.935957 
    7060    552.20468   -8635.1628   -8573.5635    2079.0073    18799.841    16.019411 
    7070    557.97856   -8636.2094   -8573.9661    887.75024    18817.462    16.101347 
    7080    562.16435   -8637.0403   -8574.3301   -537.87879    18836.242    16.177609 
    7090     558.2435   -8636.9328   -8574.6599   -1436.9864    18854.039    16.245028 
    7100    552.14593   -8636.5531   -8574.9604   -1867.5132    18869.406    16.305177 
    7110    542.94226   -8635.7843   -8575.2183   -1403.9718    18881.777    16.362544 
    7120    551.79234   -8636.9873   -8575.4341   -738.50086    18891.812    16.420974 
    7130     562.7156   -8638.3904   -8575.6187   -440.75914    18900.512    16.483211 
    7140    556.95231   -8637.9208    -8575.792   -205.52735    18908.401    16.548382 
    7150    541.78248   -8636.3796   -8575.9429    210.51652    18915.927     16.61344 
    7160    548.56388    -8637.243   -8576.0499 -0.069933212    18923.625    16.679155 
    7170    572.17064   -8639.9541   -8576.1276   -811.69028    18931.122    16.745633 
    7180    567.18966   -8639.4772   -8576.2063   -811.79898    18937.366    16.810286 
    7190    557.39274    -8638.468     -8576.29   -105.20022    18942.366     16.87054 
    7200      561.118   -8638.9646    -8576.371    255.61167    18947.073    16.927361 
    7210    551.34183   -8637.9444   -8576.4414    390.51738    18952.103    16.984755 
    7220    551.48736    -8638.017   -8576.4978    455.93039    18957.703    17.045543 
    7230    554.57247   -8638.4008   -8576.5374    604.91067    18963.983     17.11139 
    7240    557.92045      -8638.8   -8576.5631    353.56764    18971.098    17.180815 
    7250    563.43994   -8639.4274   -8576.5748   -301.18666    18978.684    17.249801 
    7260    564.95166   -8639.5957   -8576.5745   -1434.8963    18985.645    17.315663 
    7270    576.18037   -8640.8593   -8576.5855   -2779.8328    18990.196    17.376347 
    7280    578.01935   -8641.1149   -8576.6359   -3342.7816    18990.351    17.432643 
    7290    586.52077   -8642.1762   -8576.7489   -2901.5381    18985.273    17.485877 
    7300    590.32842   -8642.7993   -8576.9473   -1983.6693    18975.663    17.535831 
    7310    565.81969   -8640.3361    -8577.218    -863.5545    18963.032    17.575051 
    7320    578.17531   -8642.0661   -8577.5698   -999.25054    18948.947     17.59808 
    7330    585.84919   -8643.4047   -8578.0523   -1192.6808    18933.428    17.613996 
    7340    572.52026   -8642.5315    -8578.666   -1075.4731    18916.219    17.636935 
    7350    577.50268   -8643.8141   -8579.3928   -1231.4518    18897.428    17.672931 
    7360    565.23051   -8643.2352   -8580.1829   -802.07273        18877    17.713878 
    7370    543.50223   -8641.5468   -8580.9183    97.997499    18855.635    17.743906 
    7380    551.84582   -8643.0965   -8581.5373    396.11355    18834.597    17.750304 
    7390    565.91411   -8645.1795   -8582.0509    710.09218    18814.472    17.730675 
    7400    581.54006    -8647.368   -8582.4963    1607.1755    18795.802    17.692327 
    7410    578.04357   -8647.3743   -8582.8927     3304.202    18780.015    17.645745 
    7420     554.4124   -8645.0671   -8583.2216    4813.9668    18769.579    17.603877 
    7430    555.06075   -8645.4064   -8583.4886    4714.2163    18766.577     17.57749 
    7440    563.42809    -8646.565   -8583.7137    3370.8383    18770.812    17.568569 
    7450    561.69477   -8646.5669    -8583.909    2026.5651    18780.295    17.569915 
    7460    553.86983    -8645.857    -8584.072    1038.8101     18792.92    17.571334 
    7470    543.18145   -8644.7804   -8584.1877    138.77131    18807.033    17.566821 
    7480    554.12969   -8646.0645   -8584.2505   -1036.9035    18821.172    17.554987 
    7490    579.11295   -8648.8916   -8584.2907   -2240.3455    18833.523    17.537053 
    7500    575.21802   -8648.5115   -8584.3451   -2974.9852    18842.239    17.516145 
    7510    565.56099   -8647.5181   -8584.4289   -2886.8705    18846.273    17.494545 
    7520    547.94285   -8645.6434   -8584.5195   -2355.8793    18845.787    17.474455 
    7530    545.55698   -8645.4518   -8584.5941   -2545.0847    18841.509    17.458287 
    7540    556.85108   -8646.7734   -8584.6558   -3124.3305    18833.195    17.445665 
    7550    551.31372   -8646.2082   -8584.7083   -2629.1779      18820.2    17.431921 
    7560    554.30107   -8646.5723   -8584.7392   -1280.5725    18803.332    17.412191 
    7570    564.64474   -8647.7218   -8584.7348    367.98611    18784.671    17.386857 
    7580    576.99539   -8649.0767    -8584.712    1989.5509    18766.823    17.361372 
    7590    579.78165   -8649.3911   -8584.7156     2374.124    18752.095    17.344678 
    7600      553.791   -8646.5337   -8584.7574    2260.3674     18741.18    17.344024 
    7610    541.72967   -8645.2315   -8584.8007     1450.685    18733.827    17.361477 
    7620    560.72105   -8647.3815   -8584.8323     33.37156    18728.709    17.392199 
    7630    562.64385   -8647.6199   -8584.8561   -619.94891    18723.805    17.429999 
    7640    567.58605   -8648.1958   -8584.8808   -1044.2924    18718.004    17.471219 
    7650    584.00329   -8650.0615   -8584.9151   -1103.3988    18710.708    17.514518 
    7660    579.14963   -8649.5837   -8584.9786   -821.75829     18701.83     17.55869 
    7670    574.48754   -8649.1685   -8585.0836   -619.30488    18691.797     17.59661 
    7680     583.3986   -8650.3161   -8585.2371   -1071.7451    18680.803    17.616694 
    7690    579.53699   -8650.0965   -8585.4483   -868.27259    18668.373    17.613637 
    7700    585.75802   -8651.0643   -8585.7221   -669.71807    18654.712    17.594706 
    7710    604.30633   -8653.5008   -8586.0896     -455.417    18640.185    17.570638 
    7720    604.03966   -8653.9737   -8586.5922   -306.15711    18625.111    17.549273 
    7730    592.76012   -8653.3459   -8587.2226   -443.93376    18609.701    17.525847 
    7740    588.15113   -8653.5495   -8587.9404   -523.09371    18593.808    17.487866 
    7750    579.09296   -8653.2847   -8588.6861   -368.05845    18577.302    17.430405 
    7760    566.47133   -8652.5689   -8589.3782    246.75673    18560.481    17.359387 
    7770    564.31984   -8652.9104   -8589.9597     969.5562    18544.241    17.289152 
    7780    574.57303   -8654.5235    -8590.429    1495.5903    18529.649    17.230042 
    7790    580.79322   -8655.6022   -8590.8138    2120.2821    18517.537    17.183758 
    7800    578.99328   -8655.7249   -8591.1374    2939.3754    18508.856    17.150287 
    7810    585.28437   -8656.7221   -8591.4328    3314.7701    18504.705    17.131109 
    7820    588.04604   -8657.3324    -8591.735    2991.0592     18505.55    17.127426 
    7830    590.86212   -8657.9765    -8592.065    2322.9579    18510.899    17.137996 
    7840    592.68407   -8658.5401   -8592.4253    1693.6773    18519.734    17.161289 
    7850    586.16986   -8658.1961    -8592.808    1092.9898    18531.055     17.19736 
    7860    574.85674    -8657.319   -8593.1929    270.67938    18543.889    17.247068 
    7870    576.76233   -8657.9096   -8593.5709   -824.89285     18556.95    17.307043 
    7880    580.65049   -8658.7198   -8593.9473    -1801.625    18568.611    17.372655 
    7890    583.12183   -8659.3779   -8594.3298   -2534.1686    18577.404    17.442122 
    7900    584.27573   -8659.9073   -8594.7304   -3162.8664    18582.222    17.509557 
    7910    588.97941    -8660.857   -8595.1554   -3642.8202    18582.151    17.566948 
    7920    599.37683   -8662.4929   -8595.6315   -3457.5384    18576.566    17.607841 
    7930    592.22536   -8662.2153   -8596.1516   -2316.1965    18565.876    17.631158 
    7940    598.06823   -8663.4237   -8596.7083   -1178.8688    18551.748    17.645967 
    7950    595.57638   -8663.7302   -8597.2928   -138.75043    18535.992    17.667712 
    7960     593.4295   -8664.1021   -8597.9042    616.73363    18520.177    17.711944 
    7970    600.70969   -8665.5572   -8598.5472    965.42852    18505.424    17.787089 
    7980    600.54783    -8666.214    -8599.222    1202.4066    18492.315    17.891012 
    7990     591.1322   -8665.8179   -8599.8762    1304.3892    18481.175    18.015895 
    8000    597.10458   -8667.0821   -8600.4742    1110.4148    18472.122    18.155313 
    8010    592.44587   -8667.1058   -8601.0176    877.85565     18464.89    18.302067 
    8020    581.69564   -8666.3968   -8601.5077    620.61162    18459.119    18.446362 
    8030    611.08355   -8670.1687   -8602.0015   -12.183791    18454.329     18.58245 
    8040    616.96053   -8671.3849    -8602.562    153.29395    18449.743    18.712651 
    8050    588.14689   -8668.7531   -8603.1444    779.76569    18445.552    18.839493 
    8060     597.9173   -8670.4145   -8603.7159    303.86606     18442.46    18.962153 
    8070    602.28924    -8671.487   -8604.3007   -206.30478    18439.896    19.082395 
    8080    588.37925   -8670.5134   -8604.8788   -499.05208    18437.109    19.204146 
    8090    596.85136    -8672.026   -8605.4464   -1348.0291    18433.541    19.323009 
    8100    593.03056   -8672.1745    -8606.021   -1786.2434    18428.077    19.427716 
    8110    579.16647    -8671.202   -8606.5951   -1162.1283    18420.215    19.513873 
    8120     574.0623   -8671.1834   -8607.1459   -330.32281    18410.794     19.58635 
    8130    565.65073    -8670.753   -8607.6538     699.6942    18401.126     19.64836 
    8140    560.97013   -8670.6738   -8608.0967    1870.9363    18392.757    19.701151 
    8150     575.0013   -8672.6432   -8608.5009     2388.886    18387.265     19.75133 
    8160    573.08356   -8672.8281   -8608.8998    1897.5281    18385.333    19.802816 
    8170    576.00351   -8673.5579   -8609.3039    695.85259    18386.202    19.852737 
    8180    591.18832    -8675.683   -8609.7351    -465.2732     18388.09    19.904395 
    8190    586.60075   -8675.6313   -8610.1951   -871.50405     18389.36    19.964145 
    8200    596.64498   -8677.2423   -8610.6857   -1274.7115    18389.296    20.027466 
    8210    591.98929   -8677.2549   -8611.2176   -1459.9514    18387.374    20.084407 
    8220    584.51203   -8676.9707   -8611.7675   -1915.8265    18383.276    20.134464 
    8230    596.77926   -8678.9205   -8612.3489   -2881.4386    18376.334    20.181284 
    8240    581.32247   -8677.8039   -8612.9565   -3191.9786    18365.363    20.224374 
    8250    578.17008   -8678.0574   -8613.5616   -3160.4225    18349.936    20.262073 
    8260     592.3256   -8680.2483   -8614.1735   -2973.8788    18330.203    20.299042 
    8270    593.84997   -8681.0482   -8614.8033   -2419.8298    18306.581    20.346336 
    8280    599.23585   -8682.3028   -8615.4571   -1511.7773    18279.988    20.409583 
    8290    595.65463   -8682.5691    -8616.123   -45.724814    18251.916      20.4843 
    8300    582.09289   -8681.6795   -8616.7461    1662.5968    18224.548    20.561533 
    8310    573.31618   -8681.2411   -8617.2868    3210.2282    18200.356    20.636499 
    8320    570.67561   -8681.4267    -8617.767    3988.3744    18181.407    20.714017 
    8330    573.12816   -8682.1349   -8618.2016    4250.3893    18168.772    20.800965 
    8340    581.18613   -8683.4399   -8618.6077    3821.9084    18162.579    20.894707 
    8350     581.0854   -8683.8238   -8619.0029    3745.5554    18162.156    20.987113 
    8360    592.66123   -8685.5428   -8619.4306    3704.7027      18167.2    21.075964 
    8370    596.51115   -8686.4654   -8619.9237    3147.8149    18177.415    21.161756 
    8380    575.98921   -8684.7058   -8620.4533    2597.5109    18191.956    21.243607 
    8390    573.06805   -8684.9024   -8620.9758    1690.4136    18209.865    21.323829 
    8400    573.76595    -8685.487   -8621.4825      682.085    18229.772    21.403851 
    8410    542.99363    -8682.506   -8621.9342    269.95217    18250.278    21.478327 
    8420    547.66645   -8683.4007   -8622.3077    -343.1124    18270.664    21.542952 
    8430    564.95904   -8685.6505   -8622.6284   -1278.4151    18290.017    21.601531 
    8440    558.87555   -8685.2609   -8622.9175   -1892.5204    18307.086    21.659975 
    8450    564.10774   -8686.1209   -8623.1938   -2370.4416    18320.965    21.717937 
    8460    554.64218   -8685.3307   -8623.4595   -2471.5667    18331.049    21.770199 
    8470    546.39995   -8684.6486   -8623.6969   -2071.7513    18337.324    21.813396 
[...]
   22890    571.34952   -8817.1437   -8753.4088    3285.5891    18097.707    44.485181 
   22900    572.20574   -8817.9576   -8754.1272    3198.2855     18097.84    44.478072 
   22910    567.95588   -8818.3185   -8754.9622    2798.0875    18102.584    44.480152 
   22920    572.21935   -8819.6713   -8755.8394    1482.3063    18111.252    44.487556 
   22930    557.43013   -8818.8276   -8756.6455     255.0089    18122.041    44.499548 
   22940    543.22889   -8817.8875   -8757.2895   -435.63594    18133.161    44.519815 
   22950     539.1924   -8817.9062   -8757.7584   -636.33476    18143.582    44.563326 
   22960    540.22536   -8818.3508   -8758.0879    103.33963    18153.113    44.639636 
   22970    540.28263   -8818.5827   -8758.3133    480.49552    18162.632     44.73574 
   22980    540.29475   -8818.7271   -8758.4564   -36.834532    18172.652    44.828726 
   22990    549.84055   -8819.8765   -8758.5409   -782.40811    18182.511    44.894915 
   23000     547.8685   -8819.6979   -8758.5823   -1177.7421    18191.206    44.924109 
   23010    552.42395   -8820.2158   -8758.5921    -1601.609    18198.086    44.926654 
   23020    557.41153   -8820.7582   -8758.5781   -1451.4215    18202.659    44.921876 
   23030    546.70698   -8819.5342   -8758.5482   -613.73975    18205.161    44.922442 
   23040    545.34721   -8819.3262   -8758.4919    329.79908    18206.733    44.928433 
   23050    555.57697   -8820.3787   -8758.4032    884.63507    18208.724     44.93397 
   23060    554.78286   -8820.1793   -8758.2924    1035.6181    18211.956    44.938097 
   23070    551.69426   -8819.7088   -8758.1665    1361.6603    18216.742    44.951003 
   23080    556.04487   -8820.0572   -8758.0296    1441.9675    18223.489    44.983414 
   23090    555.32131   -8819.8266   -8757.8797    1195.9377    18232.322     45.03772 
   23100    561.66057   -8820.3711    -8757.717    124.91813    18242.765    45.115244 
   23110    552.73836   -8819.1906   -8757.5318   -1030.1604    18253.346    45.215482 
   23120    544.46416   -8818.0497   -8757.3139   -2157.3331     18262.33    45.325405 
   23130    552.02623   -8818.6295   -8757.0502   -2946.6596    18268.114    45.422309 
   23140      545.236   -8817.5702   -8756.7483   -3270.4079    18269.544    45.486896 
   23150    545.29841   -8817.2476   -8756.4187   -3307.3071    18266.126    45.512312 
   23160    553.70895   -8817.8237   -8756.0567    -2780.755    18257.882    45.505367 
   23170    543.19375    -8816.264   -8755.6699   -1428.1136    18245.674    45.482728 
   23180    571.99801   -8819.0692    -8755.262    65.619744    18231.458    45.469462 
   23190    611.26377   -8823.0538   -8754.8664    1366.9977    18217.395    45.488375 
   23200    594.09995   -8820.8394   -8754.5667    3054.0583    18205.501    45.541188 
   23210    584.11771   -8819.5245   -8754.3653    3927.6714    18198.095    45.611462 
   23220    591.05442   -8820.1658   -8754.2328    3837.8697    18196.382    45.683795 
   23230    582.25664   -8819.1231   -8754.1715    3683.9057    18200.329    45.758558 
   23240    590.26686   -8820.0297   -8754.1845    2879.1707    18209.599    45.846378 
   23250    584.88792   -8819.5046   -8754.2594    1860.7217    18223.085     45.95009 
   23260    569.92088   -8817.9525   -8754.3769    559.50827    18239.223    46.061259 
   23270     545.9379   -8815.3806   -8754.4804   -512.29765    18256.194    46.169495 
   23280     552.5091   -8816.1771   -8754.5439   -1753.5977    18272.335    46.270696 
   23290    572.52975   -8818.4489   -8754.5824   -2816.4652    18285.838    46.361182 
   23300     570.3004   -8818.2543   -8754.6364    -3075.583    18295.176    46.435049 
   23310    558.33564   -8817.0025   -8754.7193   -2197.8546     18300.03    46.486031 
   23320     553.4278   -8816.5474   -8754.8117   -627.88131    18301.676    46.511389 
   23330    551.99892   -8816.4672   -8754.8908    852.88961    18302.378    46.515265 
   23340    553.37212   -8816.6838   -8754.9543    1592.0493    18304.268    46.511248 
   23350    556.25789   -8817.0555   -8755.0041    1101.1842    18308.394    46.515898 
   23360    565.32919   -8818.1111   -8755.0478   -459.51099    18314.009    46.540262 
   23370    559.89936   -8817.5529   -8755.0953   -1480.0706    18318.989    46.585409 
   23380    553.06398   -8816.8359   -8755.1407   -1657.3733    18321.862    46.636994 
   23390    578.57101   -8819.7349   -8755.1944   -1716.7595    18322.246    46.677892 
   23400    582.23072   -8820.2407    -8755.292    -963.6239    18320.174    46.700797 
   23410    566.03851   -8818.5914    -8755.449    519.08852    18316.767    46.707523 
   23420    567.60948   -8818.9704   -8755.6527    1882.9751    18314.136    46.704756 
   23430    574.03527   -8819.9533   -8755.9188    2621.1369     18314.25    46.702858 
   23440    562.78873   -8819.0484   -8756.2685    3142.9648    18318.304    46.710504 
   23450    546.00295   -8817.5818   -8756.6744    2536.9038    18326.926    46.734731 
   23460    559.81009   -8819.5651   -8757.1175    917.87814    18339.262    46.772114 
   23470    569.65987   -8821.1427   -8757.5962   -769.06444    18352.988     46.80667 
   23480    569.58369   -8821.6478   -8758.1099    -1865.274    18365.646    46.819236 
   23490    561.69724   -8821.2977   -8758.6395    -2813.742    18375.523    46.805588 
   23500    552.05121   -8820.7344   -8759.1522   -3651.3642      18381.2    46.775636 
   23510    544.04054   -8820.3114   -8759.6228   -4104.9579    18381.406    46.735324 
   23520    528.68802    -8818.994    -8760.018    -3524.801    18375.552    46.685419 
   23530    529.60425   -8819.3979   -8760.3197   -1457.5145    18364.619    46.627554 
   23540    537.04178   -8820.4335   -8760.5257    894.69802    18351.522    46.567254 
   23550    543.34819   -8821.2703    -8760.659    2531.8651    18339.709      46.5218 
   23560     551.5239    -8822.285   -8760.7616    2849.6309    18331.552    46.516444 
   23570    551.97988   -8822.4388   -8760.8646    2332.5269    18327.589    46.568459 
   23580    544.24963   -8821.6629   -8760.9511    1522.0241    18327.095    46.676912 
   23590     542.6081   -8821.5175   -8760.9888    767.64287    18328.896    46.826783 
   23600     527.3972   -8819.7798   -8760.9478    179.28921    18331.889     47.00216 
   23610    517.90123   -8818.5828   -8760.8102   -520.85106    18335.137    47.184188 
   23620    531.96789   -8819.9099   -8760.5681   -1133.9222     18337.61    47.348118 
   23630    544.43876   -8820.9751   -8760.2421   -1219.1798    18338.466    47.474025 
   23640      544.192   -8820.5779   -8759.8725   -444.36192    18337.621    47.554862 
   23650    551.42366    -8820.997   -8759.4849    29.624088    18336.033    47.597772 
   23660    550.40433   -8820.4945   -8759.0961    305.72336    18334.475    47.615343 
   23670    529.70432   -8817.8051   -8758.7158    740.66637    18333.418    47.617323 
   23680    544.27992   -8819.0357   -8758.3205    778.19536     18333.42    47.604859 
   23690    558.25082   -8820.1708   -8757.8971    1073.5108    18334.635    47.572447 
   23700    555.31446   -8819.4372    -8757.491    1323.5246    18337.465    47.526846 
   23710    559.38585   -8819.5197   -8757.1194    1242.4421    18342.224    47.477365 
   23720    548.74516   -8817.9958   -8756.7825    1377.8281    18348.874    47.427152 
   23730    567.91979   -8819.8415   -8756.4892    1214.2793    18357.538    47.383673 
   23740    574.54404    -8820.336   -8756.2448     1122.309    18368.059     47.35924 
   23750    571.97344   -8819.8685    -8756.064    389.06427    18380.199    47.361304 
   23760    587.10378   -8821.4185   -8755.9261   -1737.2902    18392.739    47.383265 
   23770    583.13408   -8820.8842   -8755.8347   -3689.4596    18402.695    47.403347 
   23780     563.6305    -8818.666   -8755.7922   -4274.0561     18407.28    47.393853 
   23790    579.68441    -8820.462   -8755.7974   -4140.6356    18405.498    47.335925 
   23800    563.25959   -8818.6682   -8755.8357   -2781.3405    18397.637    47.230345 
   23810    545.99133   -8816.7754   -8755.8692   -1300.6891    18385.566    47.096041 
   23820    558.89522   -8818.2089   -8755.8633   -597.76595    18371.447    46.953517 
   23830    580.15632   -8820.5678   -8755.8505   -35.600186    18356.431    46.816025 
   23840    571.24755   -8819.5875    -8755.864    1318.0061     18341.49    46.691686 
   23850    543.61164   -8816.5118   -8755.8711    3162.6986    18328.621    46.590234 
   23860    561.16492   -8818.4485   -8755.8497    4106.5688    18320.396    46.520103 
   23870    584.59739   -8821.0507   -8755.8379    4211.9676    18318.262    46.488282 
   23880    588.67828   -8821.5565   -8755.8886    3279.7715     18322.33     46.50401 
   23890    589.80539   -8821.8127    -8756.019    1805.1556    18331.275    46.564158 
   23900    560.79911   -8818.7468   -8756.1888    1245.0539    18343.081    46.648745 
   23910    558.47261   -8818.6695    -8756.371    972.74381    18356.818    46.740329 
   23920    552.20694   -8818.1402   -8756.5407    463.54003    18372.042    46.838174 
   23930    551.17976   -8818.1772   -8756.6923   -245.51627    18387.989    46.945703 
   23940    567.96535   -8820.1891   -8756.8317   -1393.7815    18403.525    47.067207 
   23950    571.16502   -8820.7039   -8756.9896   -2476.6258     18416.97    47.203968 
   23960    543.76038   -8817.8134   -8757.1561   -2694.1126     18426.82    47.343664 
   23970    540.92825   -8817.6366   -8757.2952   -3083.1875    18432.593    47.468867 
   23980    553.75681   -8819.1743   -8757.4019   -4044.9822    18433.609    47.567629 
   23990    554.16146   -8819.3226    -8757.505   -4590.5695    18428.551    47.634577 
   24000    550.17996    -8818.989   -8757.6156   -4312.3447    18416.677    47.672762 
   24010     548.6476   -8818.9169   -8757.7145   -3541.2526    18398.358    47.687278 
   24020    563.55774   -8820.6685   -8757.8028   -2632.1776    18374.711     47.67086 
   24030    562.14279   -8820.5963   -8757.8884   -457.74115    18347.337    47.610227 
   24040    544.07417   -8818.6313    -8757.939    2489.0455    18319.432    47.513813 
   24050    547.77455   -8819.0458   -8757.9407    4726.0486    18295.206    47.402883 
   24060    551.96629    -8819.493   -8757.9204    6046.1149    18277.993     47.29797 
   24070     552.5782   -8819.5581   -8757.9172    6260.9566    18269.706    47.215513 
   24080    547.13469   -8818.9652   -8757.9315    5361.8465    18270.621    47.160378 
   24090    563.17231    -8820.765   -8757.9422    3552.7462    18279.397    47.125851 
   24100     577.7253   -8822.3873   -8757.9412    1586.6069    18293.442    47.103022 
   24110    566.97943   -8821.1947   -8757.9473    269.53739    18309.958    47.079528 
   24120    563.61703   -8820.8218   -8757.9495   -1173.6161    18326.831    47.044572 
   24130       575.28   -8822.1136   -8757.9403   -2484.6854    18341.936    46.997466 
   24140    557.04457   -8820.0545   -8757.9154   -2739.1306    18353.437    46.949452 
   24150    559.28952   -8820.2667   -8757.8771   -2745.1062    18360.812    46.916884 
   24160    565.39204   -8820.8991   -8757.8288   -2556.2744    18364.089    46.899211 
   24170    560.18113   -8820.2758   -8757.7867   -2340.7532    18363.538    46.882221 
   24180    572.73492   -8821.6525   -8757.7631    -2079.461    18359.507    46.860647 
   24190    559.81413   -8820.2048   -8757.7567   -1064.5757    18352.487    46.834881 
   24200    553.52184   -8819.4949   -8757.7487   -394.14317    18343.845    46.806136 
   24210    568.81833   -8821.1854   -8757.7328   -580.39296    18334.557    46.774506 
   24220    565.12997   -8820.7684   -8757.7273   -854.29528    18324.431    46.733953 
   24230    561.52436    -8820.382   -8757.7432   -840.91071    18313.098     46.67789 
   24240    565.12991   -8820.8103   -8757.7692   -260.33407    18300.646    46.611746 
   24250    550.88855   -8819.2426   -8757.7901    1268.2236    18288.009    46.550113 
   24260    535.80388   -8817.5335   -8757.7637      2863.22    18277.361    46.503882 
   24270    581.19999    -8822.546   -8757.7123    2855.1171    18270.784    46.474391 
   24280    572.73739   -8821.5631   -8757.6733    3784.6676    18268.682     46.47337 
   24290    561.56402   -8820.3182   -8757.6749    4454.5081    18272.181    46.521235 
   24300    585.54288   -8823.0201   -8757.7019    3990.3787    18282.149    46.615424 
   24310    579.20232   -8822.3748   -8757.7639    3399.7326     18298.03    46.738962 
   24320    571.86235    -8821.645   -8757.8529    2270.3163    18318.866    46.885999 
   24330    585.19372   -8823.2313    -8757.952   -293.82782    18342.805    47.053164 
   24340    570.29697    -8821.668   -8758.0505   -2866.2195    18366.218    47.226433 
   24350    566.09103   -8821.3187   -8758.1704   -4798.6434    18385.278    47.384577 
   24360    554.27962   -8820.1479   -8758.3172   -5482.3566    18397.201    47.507863 
   24370    549.11524   -8819.7419   -8758.4873   -5071.1211    18400.939    47.583695 
   24380    549.52616   -8819.9697   -8758.6692   -3917.0857    18397.115     47.60953 
   24390    546.69697    -8819.825   -8758.8401   -2702.5018    18387.422    47.591742 
   24400    567.81495   -8822.3439   -8759.0032   -1548.5368    18373.702    47.542314 
   24410    581.24224   -8824.0274    -8759.189    228.48217    18357.826    47.481585 
   24420     557.3173   -8821.5694   -8759.3998    2783.2883    18342.518    47.434941 
   24430    538.32687   -8819.6496   -8759.5984    4380.2849    18331.354    47.422759 
   24440    555.65443   -8821.7698   -8759.7857    4121.9003    18326.575    47.451553 
   24450    561.06417   -8822.5674   -8759.9799    3078.5163    18327.904    47.510253 
   24460    547.70101    -8821.257   -8760.1601    1549.3682    18333.772    47.579462 
   24470    570.90866   -8824.0023   -8760.3166   -572.28942    18341.838    47.641605 
   24480    586.28417   -8825.9083   -8760.5075   -1700.8752    18349.141    47.683884 
   24490     546.4766   -8821.7104   -8760.7501   -687.03865    18354.191    47.698541 
   24500    541.04601   -8821.3583   -8761.0038   -307.43114    18358.082    47.686557 
   24510    540.41066   -8821.5139   -8761.2303   -849.13969    18361.388    47.647337 
   24520    536.68534   -8821.2764   -8761.4084   -2029.0342    18363.313    47.577684 
   24530    556.69255   -8823.6587   -8761.5588   -3283.0694    18362.154     47.48335 
   24540    552.56211   -8823.3471    -8761.708   -2980.9973    18356.271    47.372193 
   24550    542.05384   -8822.3082   -8761.8412   -1162.1037    18346.123    47.250843 
   24560    544.32793   -8822.6486    -8761.928    1078.3316    18334.337    47.130814 
   24570    541.06468   -8822.3124   -8761.9558    3111.3308    18324.191    47.032125 
   24580    547.44608   -8823.0169   -8761.9484    4518.5411    18318.674    46.975272 
   24590    544.35745   -8822.6512   -8761.9273    5139.2531    18319.829     46.96728 
   24600    545.79511   -8822.7837   -8761.8994    4730.3579    18328.541    47.010738 
   24610    559.30756    -8824.241   -8761.8494    3361.3185    18344.181    47.103754 
   24620    552.86624   -8823.4347   -8761.7616    2122.9931    18364.838    47.242231 
   24630    554.65744   -8823.4984   -8761.6255    579.18405    18388.547    47.418962 
   24640    554.40403   -8823.2669   -8761.4223   -1038.2239    18413.027    47.616801 
   24650    530.99924   -8820.3702   -8761.1364    -2517.238     18435.85    47.819875 
   24660    540.09707   -8820.9928   -8760.7442   -4458.6571    18454.669    48.016003 
   24670    565.71062   -8823.3498    -8760.244   -6409.4755    18466.582    48.189244 
   24680    553.11409   -8821.4222   -8759.7215   -6170.5112    18468.976    48.323151 
   24690    537.23462   -8819.1363    -8759.207   -4641.0368    18462.156    48.412761 
   24700    544.72941    -8819.426   -8758.6606   -3441.7571    18448.309    48.463331 
   24710    553.15625   -8819.7941   -8758.0887   -2506.0614    18429.355    48.479303 
   24720    572.63023   -8821.4224   -8757.5446   -1507.3152    18406.779    48.464945 
   24730    571.88896   -8820.8511   -8757.0561    674.30684    18382.311    48.430821 
   24740     563.3487   -8819.4676   -8756.6252    2925.5444    18359.089    48.389939 
   24750    579.91196   -8820.9405   -8756.2504    4519.6197    18340.424    48.354478 
   24760     592.4553   -8822.0512   -8755.9619    5544.4387    18328.642    48.332082 
   24770    582.71697   -8820.7941   -8755.7911    6175.0621    18325.214    48.331568 
   24780    565.09078   -8818.7517    -8755.715    6380.1783    18330.995    48.362964 
   24790    561.10127   -8818.2824   -8755.6907    5541.4347    18346.139    48.438894 
   24800     573.5469   -8819.6652   -8755.6852    3754.2715    18369.352    48.566022 
   24810    575.55945   -8819.8901   -8755.6856    2005.6976    18398.017    48.733717 
   24820    582.99065   -8820.7282   -8755.6947     83.44254    18429.471    48.916804 
   24830    589.09254   -8821.4192    -8755.705   -3012.4659    18460.598    49.083165 
   24840    574.52248   -8819.8106   -8755.7218   -5637.0396    18486.943    49.197503 
   24850    572.90415   -8819.6857   -8755.7774   -7096.8305    18504.629    49.235852 
   24860    578.23013   -8820.4047   -8755.9022   -7675.5102    18511.442    49.196302 
   24870    582.03287   -8821.0484   -8756.1218   -7213.6155    18506.637    49.093627 
   24880    579.44742    -8821.066   -8756.4277   -5449.6031    18491.105    48.943934 
   24890     563.5564   -8819.6136    -8756.748   -2975.2268    18467.612    48.766118 
   24900    575.23221   -8821.2257   -8757.0577   -967.76399    18439.852     48.57716 
   24910    558.39657   -8819.6322   -8757.3423     987.9673    18411.031    48.382277 
   24920    562.28386   -8820.3169   -8757.5933    1779.0834    18383.961    48.186994 
   24930    597.71022   -8824.5425    -8757.867    1970.0418    18359.881    48.004979 
   24940    587.01724   -8823.6807    -8758.198     3780.407    18339.377    47.849076 
   24950    566.02578   -8821.7005   -8758.5595     5309.366    18324.783    47.731104 
   24960    565.84165   -8822.0657   -8758.9453    5331.1494    18318.116    47.653151 
   24970    551.24307    -8820.825    -8759.333    4631.0759     18319.41    47.607607 
   24980    554.48963   -8821.5463   -8759.6922    3335.2823    18327.513    47.588234 
   24990      559.661   -8822.4433   -8760.0123    1880.4811    18340.446    47.589237 
   25000    545.90079   -8821.1739   -8760.2779    957.26484    18356.098    47.601215 
Loop time of 13223.9 on 16 procs for 20000 steps with 864 atoms

Performance: 0.131 ns/day, 183.666 hours/ns, 1.512 timesteps/s
95.5% CPU use with 16 MPI tasks x 1 OpenMP threads

MPI task timing breakdown:
Section |  min time  |  avg time  |  max time  |%varavg| %total
---------------------------------------------------------------
Pair    | 3873.3     | 7630.4     | 12881      |3774.9 | 57.70
Bond    | 0.0015595  | 0.0026114  | 0.004766   |   2.0 |  0.00
Neigh   | 0.17398    | 0.34952    | 0.64883    |  30.3 |  0.00
Comm    | 84.027     | 4124.7     | 8329       |4407.5 | 31.19
Output  | 1.3496     | 1.3819     | 1.8559     |  10.4 |  0.01
Modify  | 256.35     | 1467       | 6318       |5192.7 | 11.09
Other   |            | 0.08716    |            |       |  0.00

Nlocal:        54.0000 ave          87 max          29 min
Histogram: 3 3 4 0 0 0 1 1 1 3
Nghost:        523.312 ave         683 max         353 min
Histogram: 2 1 2 1 3 1 0 1 1 4
Neighs:         0.00000 ave           0 max           0 min
Histogram: 16 0 0 0 0 0 0 0 0 0
FullNghs:      2797.62 ave        5924 max         790 min
Histogram: 3 6 1 0 0 0 1 1 0 4

Total # of neighbors = 44762
Ave neighs/atom = 51.807870
Ave special neighs/atom = 0.0000000
Neighbor list builds = 2000
Dangerous builds = 2000
unfix   3
                
Total wall time: 4:35:56
