LAMMPS (2 Aug 2023)
OMP_NUM_THREADS environment is not set. Defaulting to 1 thread. (src/comm.cpp:98)
  using 1 OpenMP thread(s) per MPI task
Reading restart file ...
  restart file = 2 Aug 2023, LAMMPS = 2 Aug 2023
  restoring atom style full from restart
  orthogonal box = (-0.96561355 -0.92810536 -8.6502923) to (22.50209 22.464582 73.259722)
  1 by 1 by 1 MPI processor grid
  pair style chgnet/gpu stores no restart info
  1536 atoms
Finding 1-2 1-3 1-4 neighbors ...
  special bond factors lj:    0        0        0       
  special bond factors coul:  0        0        0       
     0 = max # of 1-2 neighbors
     0 = max # of 1-3 neighbors
     0 = max # of 1-4 neighbors
     1 = max # of special neighbors
  special bonds CPU = 0.000 seconds
  read_restart CPU = 0.043 seconds
Resetting peratom fix info from restart file:
  fix style: STORE/ATOM, fix ID: msd_COMPUTE_STORE
All restart file peratom fix info was re-assigned
Neighbor list info ...
  update: every = 1 steps, delay = 10 steps, check = yes
  max neighbors/atom: 2000, page size: 100000
  master list distance cutoff = 6.3
  ghost atom cutoff = 6.3
  binsize = 3.15, bins = 8 8 27
  1 neighbor lists, perpetual/occasional/extra = 1 0 0
  (1) pair chgnet/gpu, perpetual
      attributes: full, newton on
      pair build: full/bin
      stencil: full/bin/3d
      bin: standard
Setting up Verlet run ...
  Unit style    : metal
  Current step  : 20000
  Time step     : 0.001
Per MPI rank memory allocation (min/avg/max) = 6.552 | 6.552 | 6.552 Mbytes
   Step          Temp          PotEng         TotEng         Press          Volume        c_msd[4]   
     20000   1489.388      -5641.9175     -5346.4016      4439.9455      44966.358      56.411627    
     20010   1487.2099     -5641.4344     -5346.3507      4458.9454      44966.468      56.609392    
     20020   1520.5841     -5647.9966     -5346.2909      4149.5498      44966.634      56.793892    
     20030   1505.4347     -5644.9534     -5346.2536      4181.0804      44966.667      56.997404    
     20040   1496.5119     -5643.2168     -5346.2874      4211.0604      44966.564      57.20074     
     20050   1480.4236     -5640.0374     -5346.3001      4266.3222      44966.336      57.386372    
     20060   1484.4208     -5640.8148     -5346.2845      4172.357       44965.681      57.563096    
     20070   1477.8405     -5639.4324     -5346.2077      4130.577       44964.331      57.74102     
     20080   1494.4179     -5642.6125     -5346.0986      3925.3287      44962.568      57.926764    
     20090   1490.9342     -5641.775      -5345.9523      3933.8096      44960.567      58.126319    
     20100   1520.8905     -5647.5894     -5345.8229      3793.7606      44958.296      58.314853    
     20110   1525.5569     -5648.451      -5345.7587      4385.6906      44955.668      58.48102     
     20120   1508.0807     -5645.0332     -5345.8084      5456.0004      44953.216      58.647492    
     20130   1505.3952     -5644.6458     -5345.9538      5868.1819      44951.619      58.838758    
     20140   1497.7567     -5643.3622     -5346.1858      5884.533       44951.201      59.045758    
     20150   1492.6113     -5642.6708     -5346.5153      5680.0757      44952.295      59.256647    
     20160   1487.4893     -5642.0812     -5346.942       5384.7312      44954.882      59.453946    
     20170   1470.3725     -5639.1819     -5347.4389      5411.7012      44958.248      59.635838    
     20180   1478.0622     -5641.2755     -5348.0068      5203.639       44962.029      59.830135    
     20190   1492.6482     -5644.8179     -5348.6551      4893.9146      44966.074      60.046266    
     20200   1484.5501     -5643.9994     -5349.4434      4771.1901      44969.896      60.257398    
     20210   1471.6948     -5642.3511     -5350.3457      4833.6853      44973.078      60.444986    
     20220   1473.7115     -5643.724      -5351.3185      4627.7504      44975.383      60.606124    
     20230   1505.6662     -5651.1467     -5352.401       4128.6287      44976.693      60.746031    
     20240   1508.8958     -5653.0543     -5353.6678      4089.8769      44977.204      60.887931    
     20250   1499.7553     -5652.6852     -5355.1123      4495.3266      44977.126      61.050348    
     20260   1452.2786     -5644.752      -5356.5991      5230.131       44976.721      61.233228    
     20270   1433.8261     -5642.4888     -5357.9971      5313.5745      44976.62       61.427779    
     20280   1442.1326     -5645.3533     -5359.2135      4894.6353      44977.273      61.639283    
     20290   1440.8827     -5646.1501     -5360.2584      4427.3425      44978.474      61.838839    
     20300   1422.1022     -5643.2988     -5361.1334      4351.7101      44979.91       62.030824    
     20310   1448.5496     -5649.2289     -5361.8159      4252.8917      44981.374      62.231548    
     20320   1487.3652     -5657.5404     -5362.4259      4282.8217      44982.58       62.421306    
     20330   1477.7163     -5656.2316     -5363.0315      4774.2859      44983.619      62.595619    
     20340   1469.3171     -5655.1978     -5363.6642      4967.0297      44985.155      62.773818    
     20350   1444.9809     -5650.9552     -5364.2503      4828.4685      44987.611      62.974096    
     20360   1432.0356     -5648.8989     -5364.7626      4477.564       44990.815      63.183378    
     20370   1391.2498     -5641.1411     -5365.0972      4923.1636      44994.287      63.375021    
     20380   1415.4471     -5646.0575     -5365.2125      4940.7841      44998.107      63.538018    
     20390   1452.9527     -5653.4286     -5365.142       4597.7291      45002.496      63.695979    
     20400   1460.4219     -5654.7953     -5365.0267      4543.9486      45007.453      63.876109    
     20410   1440.5881     -5650.7058     -5364.8725      4561.6807      45012.748      64.07309     
     20420   1434.4506     -5649.2761     -5364.6606      4563.8199      45018.314      64.263495    
     20430   1418.9347     -5645.8484     -5364.3114      4946.2376      45024.24       64.429431    
     20440   1426.8282     -5646.9298     -5363.8267      5006.9314      45030.568      64.562102    
     20450   1449.5048     -5650.8007     -5363.1981      4686.0088      45037.309      64.697297    
     20460   1410.0928     -5642.2379     -5362.4553      4955.6037      45044.667      64.851215    
     20470   1417.9429     -5642.8722     -5361.532       4487.6178      45053.251      65.00926     
     20480   1468.0692     -5651.6821     -5360.3962      3980.3591      45062.812      65.16267     
     20490   1453.8513     -5647.6208     -5359.1559      4580.5041      45072.81       65.291157    
     20500   1459.7099     -5647.4978     -5357.8705      4704.7842      45083.63       65.400737    
     20510   1473.4144     -5648.8938     -5356.5473      4659.2294      45095.32       65.543142    
     20520   1472.8192     -5647.467      -5355.2386      4509.1749      45107.536      65.743094    
     20530   1534.5104     -5658.5112     -5354.0424      3660.9985      45120.179      65.973603    
     20540   1550.6589     -5660.729      -5353.0561      3593.8956      45133.009      66.214935    
     20550   1533.3166     -5656.704      -5352.472       3806.9801      45145.72       66.472991    
     20560   1522.8607     -5654.3932     -5352.2358      3788.2633      45158.228      66.747722    
     20570   1477.8384     -5645.4529     -5352.2286      4064.6911      45170.517      67.019403    
     20580   1480.221      -5646.0663     -5352.3692      3799.4013      45182.891      67.27135     
     20590   1471.1092     -5644.4982     -5352.609       3638.7248      45195.527      67.519095    
     20600   1452.6859     -5641.1836     -5352.9499      3893.9398      45208.581      67.745429    
     20610   1428.6009     -5636.7788     -5353.3239      4434.1561      45222.295      67.942465    
     20620   1410.8808     -5633.5836     -5353.6447      4726.6307      45236.759      68.140369    
     20630   1426.3928     -5636.9066     -5353.8898      4290.2376      45252.2        68.349447    
     20640   1424.0953     -5636.6356     -5354.0747      4008.2257      45268.56       68.551405    
     20650   1410.3572     -5634.0359     -5354.2008      3921.2846      45285.552      68.737699    
     20660   1437.8853     -5639.5529     -5354.2558      3528.8797      45302.838      68.923571    
     20670   1456.059      -5643.208      -5354.305       3587.1518      45320.242      69.13349     
     20680   1448.6943     -5641.8647     -5354.423       3687.6625      45337.963      69.394802    
     20690   1438.3704     -5640.0095     -5354.6162      3772.1047      45356.312      69.714773    
     20700   1432.02       -5639.0394     -5354.9062      3757.2829      45375.353      70.06369     
     20710   1414.6028     -5635.9156     -5355.2382      3665.5756      45394.624      70.406836    
     20720   1417.3551     -5636.8158     -5355.5922      3240.7234      45413.662      70.71284     
     20730   1424.9818     -5638.7241     -5355.9873      3028.8304      45432.358      70.95991     
     20740   1423.333      -5638.8281     -5356.4185      3023.5214      45450.717      71.170365    
     20750   1430.6712     -5640.7822     -5356.9166      2954.2498      45468.797      71.385191    
     20760   1433.1412     -5641.8018     -5357.446       2972.3072      45486.567      71.618256    
     20770   1449.1729     -5645.6034     -5358.0667      2773.8758      45503.985      71.859175    
     20780   1429.6134     -5642.4185     -5358.7627      3011.8548      45521.054      72.094666    
     20790   1422.2029     -5641.7219     -5359.5365      2815.1586      45537.915      72.319584    
     20800   1393.1841     -5636.6906     -5360.2629      2861.827       45554.436      72.537905    
     20810   1380.5507     -5634.8276     -5360.9066      2876.0327      45570.663      72.767546    
     20820   1404.6429     -5640.1523     -5361.4511      2742.1179      45586.661      73.024016    
     20830   1381.3333     -5635.9497     -5361.8734      3006.4605      45602.233      73.274551    
     20840   1408.5885     -5641.6959     -5362.2118      2602.6983      45617.085      73.486612    
     20850   1405.1196     -5641.2729     -5362.4771      2554.4566      45630.849      73.662227    
     20860   1367.1577     -5633.9264     -5362.6627      2887.1467      45643.728      73.814963    
     20870   1385.1584     -5637.5457     -5362.7104      2521.3244      45656.274      73.943297    
     20880   1409.1011     -5642.2214     -5362.6356      2228.5036      45668.471      74.057764    
     20890   1394.4383     -5639.1372     -5362.4607      2350.2281      45679.82       74.165396    
     20900   1403.574      -5640.698      -5362.2088      2247.4602      45689.983      74.283867    
     20910   1409.531      -5641.5751     -5361.9039      2105.8252      45698.758      74.427799    
     20920   1394.1557     -5638.1572     -5361.5368      2240.9009      45706.006      74.583314    
     20930   1391.5904     -5637.2146     -5361.1031      2366.7765      45711.852      74.73741     
     20940   1399.5115     -5638.2349     -5360.5517      2425.0641      45716.676      74.888534    
     20950   1421.3219     -5641.9574     -5359.9468      2579.3617      45720.458      75.047052    
     20960   1399.0817     -5636.8865     -5359.2886      3002.0564      45723.015      75.204637    
     20970   1445.6396     -5645.4496     -5358.614       2459.6406      45724.461      75.337675    
     20980   1458.131      -5647.3077     -5357.9937      2037.9087      45725.025      75.460875    
     20990   1412.1169     -5637.6617     -5357.4775      2309.1352      45724.83       75.585903    
     21000   1412.9091     -5637.345      -5357.0036      2373.3026      45724.006      75.700119    
     21010   1415.5896     -5637.4054     -5356.5321      2519.0047      45722.631      75.792315    
     21020   1378.7541     -5629.585      -5356.0204      3023.685       45720.71       75.864968    
     21030   1374.6942     -5628.1996     -5355.4406      3193.2698      45718.325      75.927137    
     21040   1389.0296     -5630.3013     -5354.6979      3162.8297      45715.28       75.984668    
     21050   1419.3583     -5635.4879     -5353.8669      2860.7903      45711.336      76.023175    
     21060   1442.7921     -5639.2958     -5353.0252      2464.8213      45706.205      76.016696    
     21070   1447.0037     -5639.3789     -5352.2726      2128.8244      45699.939      75.957639    
     21080   1443.227      -5638.028      -5351.671       2309.973       45692.938      75.890906    
     21090   1429.3476     -5634.7771     -5351.1741      2837.6107      45685.338      75.856693    
     21100   1455.6622     -5639.6235     -5350.7993      2680.9511      45677.094      75.84426     
     21110   1434.7436     -5635.2217     -5350.548       3087.0191      45668.239      75.845901    
     21120   1425.9862     -5633.3987     -5350.4626      3497.2642      45659.118      75.833394    
     21130   1433.0306     -5634.8097     -5350.4759      3357.4662      45649.719      75.806639    
     21140   1425.9388     -5633.5093     -5350.5826      3273.4282      45639.628      75.770803    
     21150   1456.4369     -5639.8429     -5350.865       3012.5906      45628.704      75.727581    
     21160   1447.2454     -5638.5385     -5351.3842      3188.264       45617.124      75.705437    
     21170   1444.4156     -5638.7563     -5352.1636      3356.0721      45604.616      75.68478     
     21180   1471.2078     -5645.1914     -5353.2827      3395.1393      45590.504      75.621891    
     21190   1451.7521     -5642.8059     -5354.7575      4056.3009      45575.111      75.540672    
     21200   1443.6548     -5643.0132     -5356.5714      4113.99        45559.589      75.478234    
     21210   1427.2579     -5641.8047     -5358.6163      3595.7037      45544.13       75.424715    
     21220   1411.5011     -5640.7668     -5360.7048      3030.4482      45528.04       75.359516    
     21230   1410.3017     -5642.4888     -5362.6647      2329.7527      45510.71       75.279376    
     21240   1414.0583     -5644.9849     -5364.4155      2249.3027      45491.981      75.193995    
     21250   1387.8387     -5641.2352     -5365.8681      2902.8243      45472.219      75.112836    
     21260   1389.3721     -5642.6924     -5367.0211      3236.4351      45452.191      75.055951    
     21270   1409.6503     -5647.6403     -5367.9454      3557.3814      45432.543      75.048075    
     21280   1403.8404     -5647.2821     -5368.7401      4153.9834      45413.69       75.067856    
     21290   1382.8847     -5643.8141     -5369.4299      4296.479       45396.124      75.106694    
     21300   1389.8736     -5645.8044     -5370.0336      3521.0539      45379.893      75.136166    
     21310   1372.531      -5642.8938     -5370.564       3234.6094      45364.457      75.142479    
     21320   1369.1274     -5642.6763     -5371.0218      3126.3211      45349.561      75.147762    
     21330   1382.4624     -5645.7253     -5371.425       2881.3835      45335.274      75.172234    
     21340   1374.3039     -5644.4656     -5371.784       3041.8424      45321.598      75.2365      
     21350   1385.1864     -5646.9543     -5372.1135      3074.2792      45308.603      75.30926     
     21360   1417.5524     -5653.7732     -5372.5105      3041.6618      45296.138      75.364345    
     21370   1411.0215     -5652.9697     -5373.0028      3490.5806      45283.915      75.428802    
     21380   1395.7752     -5650.5498     -5373.608       3980.7007      45272.148      75.506886    
     21390   1378.571      -5647.7908     -5374.2625      4311.8627      45261.413      75.587476    
     21400   1364.3042     -5645.6301     -5374.9326      4481.8416      45252.071      75.670631    
     21410   1359.7597     -5645.3591     -5375.5633      4458.9357      45244.116      75.731963    
     21420   1382.3753     -5650.4648     -5376.1818      3680.3787      45237.316      75.757308    
     21430   1384.1114     -5651.4393     -5376.8118      2860.1653      45231.221      75.761498    
     21440   1395.064      -5654.3013     -5377.5006      1880.9337      45225.256      75.744197    
     21450   1402.8603     -5656.6359     -5378.2883      1247.7839      45218.41       75.693431    
     21460   1425.8671     -5662.1642     -5379.2517      1336.8959      45209.923      75.637377    
     21470   1424.6546     -5663.0925     -5380.4207      2575.9634      45199.858      75.617324    
     21480   1401.2198     -5659.7476     -5381.7255      4050.6385      45188.898      75.629311    
     21490   1406.1603     -5662.1246     -5383.1223      4299.0268      45177.794      75.660399    
     21500   1373.7455     -5657.0804     -5384.5097      4205.6747      45166.706      75.717278    
     21510   1383.4797     -5660.3445     -5385.8423      3221.303       45155.544      75.790304    
     21520   1390.5868     -5663.0299     -5387.1176      2602.0241      45143.818      75.875627    
     21530   1387.5814     -5663.6569     -5388.3408      2572.53        45131.063      75.965293    
     21540   1375.8556     -5662.5026     -5389.5131      2617.4357      45116.808      76.05151     
     21550   1361.6792     -5660.7305     -5390.5538      2910.5868      45100.631      76.122255    
     21560   1353.0928     -5659.9475     -5391.4745      3237.1192      45082.817      76.163945    
     21570   1332.8888     -5656.6666     -5392.2024      3616.1421      45063.952      76.178673    
     21580   1340.8757     -5658.8412     -5392.7922      3408.0556      45044.231      76.176009    
     21590   1332.4786     -5657.6338     -5393.251       3142.434       45023.478      76.167683    
     21600   1340.6085     -5659.619      -5393.6231      2923.568       45001.488      76.166459    
     21610   1324.5717     -5656.6897     -5393.8757      3503.9464      44978.164      76.187211    
     21620   1324.2273     -5656.778      -5394.0323      4026.7167      44953.925      76.210591    
     21630   1350.0821     -5661.9727     -5394.097       3965.2758      44929.079      76.173855    
     21640   1339.365      -5659.8556     -5394.1064      4232.2559      44903.807      76.100016    
     21650   1301.5219     -5652.2798     -5394.0392      4413.4137      44878.697      76.033927    
     21660   1321.1937     -5656.0115     -5393.8677      3643.4935      44853.921      75.975842    
     21670   1358.1486     -5663.0768     -5393.6006      2787.3279      44828.68       75.936656    
     21680   1354.0513     -5662.0089     -5393.3457      2815.6808      44802.364      75.92911     
     21690   1360.9888     -5663.1603     -5393.1206      3030.5419      44775.019      75.930735    
     21700   1378.6899     -5666.469      -5392.9172      2897.496       44747.044      75.911033    
     21710   1385.4139     -5667.6731     -5392.7871      3165.6402      44718.951      75.866241    
     21720   1397.9866     -5670.1798     -5392.7992      3594.4281      44691.162      75.816758    
     21730   1382.7948     -5667.3776     -5393.0113      4266.0719      44663.84       75.800775    
     21740   1358.3169     -5662.8625     -5393.353       4589.136       44636.995      75.810867    
     21750   1360.9228     -5663.8359     -5393.8094      4382.935       44610.636      75.818232    
     21760   1348.9253     -5661.9935     -5394.3474      4024.3459      44584.797      75.811176    
     21770   1326.5854     -5658.1227     -5394.9091      3718.2325      44559.657      75.782537    
     21780   1338.8423     -5661.1794     -5395.534       3485.3422      44535.164      75.719297    
     21790   1315.9572     -5657.2705     -5396.1657      3785.425       44510.885      75.624608    
     21800   1328.8767     -5660.484      -5396.8158      3752.4341      44487.102      75.52189     
     21810   1323.5043     -5660.0684     -5397.4661      3769.8288      44464.145      75.434065    
     21820   1328.2704     -5661.6958     -5398.1479      3823.0905      44441.906      75.372267    
     21830   1348.3094     -5666.4543     -5398.9305      3765.7041      44420.229      75.329584    
     21840   1337.8425     -5665.2616     -5399.8145      3984.3882      44398.998      75.303147    
     21850   1349.7322     -5668.6439     -5400.8377      4103.8954      44378.373      75.312035    
     21860   1353.4344     -5670.575      -5402.0342      4244.9836      44358.4        75.350769    
     21870   1348.8922     -5671.0356     -5403.3961      4486.1055      44339.032      75.406613    
     21880   1355.2703     -5673.8416     -5404.9365      4365.7684      44320.218      75.461303    
     21890   1333.449      -5671.1385     -5406.5632      4731.3703      44301.639      75.52393     
     21900   1322.0855     -5670.4878     -5408.1671      5031.8503      44283.277      75.597011    
     21910   1300.7529     -5667.7083     -5409.6202      5016.8148      44265.291      75.682885    
     21920   1253.4265     -5659.474      -5410.7762      5278.0912      44247.844      75.786881    
     21930   1244.642      -5658.4933     -5411.5385      5155.5201      44231.213      75.891095    
     21940   1279.3165     -5665.8069     -5411.9722      4184.7682      44215.419      75.987657    
     21950   1291.877      -5668.5333     -5412.2064      3832.2063      44200.131      76.061998    
     21960   1310.5131     -5672.332      -5412.3075      3975.8671      44185.322      76.096854    
     21970   1331.5618     -5676.5654     -5412.3645      4216.7295      44171.308      76.130846    
     21980   1310.5471     -5672.4456     -5412.4142      4919.2884      44158.168      76.203854    
     21990   1315.3929     -5673.4233     -5412.4305      4989.8896      44146.017      76.325038    
     22000   1324.5464     -5675.2467     -5412.4377      4675.9473      44134.863      76.491662    
     22010   1317.9921     -5673.9639     -5412.4554      4470.1773      44124.514      76.690355    
     22020   1320.1615     -5674.4121     -5412.4732      4105.6156      44114.749      76.892991    
     22030   1320.5724     -5674.4832     -5412.4627      3984.8999      44105.552      77.054754    
     22040   1327.853      -5675.9656     -5412.5005      4159.4982      44097.272      77.136114    
     22050   1289.1639     -5668.3099     -5412.5214      4912.6776      44090.174      77.159214    
     22060   1288.4385     -5668.1444     -5412.4997      4979.0012      44084.249      77.164014    
     22070   1297.999      -5669.9257     -5412.3841      4815.0347      44079.304      77.193609    
     22080   1287.4564     -5667.6665     -5412.2167      5148.446       44075.382      77.262242    
     22090   1276.9248     -5665.3264     -5411.9662      5788.4603      44072.476      77.36632     
     22100   1284.003      -5666.3676     -5411.603       5799.212       44070.67       77.504849    
     22110   1309.7623     -5671.032      -5411.1564      5238.712       44070.018      77.669359    
     22120   1329.6252     -5674.5117     -5410.695       4823.7549      44070.33       77.833114    
     22130   1325.0584     -5673.1996     -5410.289       4808.0249      44071.56       77.960718    
     22140   1328.8188     -5673.6064     -5409.9498      4463.7833      44073.751      78.050428    
     22150   1346.429      -5676.8507     -5409.6999      3914.958       44076.547      78.13915     
     22160   1340.2253     -5675.4756     -5409.5557      4054.1995      44079.485      78.240994    
     22170   1347.5284     -5676.9302     -5409.5612      4237.0683      44082.668      78.333513    
     22180   1374.757      -5682.5101     -5409.7386      4148.3883      44086.34       78.410712    
     22190   1349.5394     -5677.9358     -5410.1678      4435.8913      44090.603      78.483947    
     22200   1343.7085     -5677.433      -5410.822       4594.3606      44095.857      78.563079    
     22210   1346.172      -5678.8315     -5411.7317      4880.7546      44102.306      78.644868    
     22220   1312.9778     -5673.3735     -5412.8599      5711.5439      44109.976      78.736158    
     22230   1303.8668     -5672.8729     -5414.1671      5794.4846      44119.224      78.853643    
     22240   1293.5517     -5672.2822     -5415.623       5298.1711      44130.294      79.007815    
     22250   1286.5333     -5672.3976     -5417.131       4201.5041      44142.81       79.195203    
     22260   1293.592      -5675.3606     -5418.6934      3235.0841      44156.071      79.410761    
     22270   1264.6723     -5671.1074     -5420.1783      3212.8877      44169.549      79.621144    
     22280   1241.2574     -5667.7405     -5421.4572      3617.5623      44183.229      79.783669    
     22290   1257.5861     -5671.9999     -5422.4768      3659.3556      44197.214      79.877898    
     22300   1262.283      -5673.7262     -5423.2712      4125.5649      44211.453      79.932271    
     22310   1248.1348     -5671.4901     -5423.8423      4664.9571      44226.141      79.987107    
     22320   1270.0342     -5676.2007     -5424.2077      4332.8849      44241.394      80.071113    
     22330   1286.0996     -5679.6174     -5424.4369      3748.4514      44256.845      80.209927    
     22340   1293.6888     -5681.3167     -5424.6303      3300.9103      44272.326      80.412053    
     22350   1266.9587     -5676.1501     -5424.7674      3435.6882      44288.116      80.656245    
     22360   1285.0305     -5679.8181     -5424.8497      3241.0559      44304.432      80.909067    
     22370   1250.2622     -5672.9432     -5424.8733      3726.9813      44321.042      81.166199    
     22380   1219.5657     -5666.7869     -5424.8076      4112.7651      44338.177      81.424324    
     22390   1220.4343     -5666.6906     -5424.5389      4032.2865      44356.006      81.674992    
     22400   1257.7264     -5673.6929     -5424.1419      3843.9117      44374.405      81.922559    
     22410   1253.4734     -5672.3621     -5423.655       4200.8813      44393.169      82.164075    
     22420   1244.4909     -5670.0645     -5423.1396      4490.4         44412.444      82.408759    
     22430   1269.3388     -5674.4279     -5422.5729      4236.727       44432.28       82.650349    
     22440   1296.0441     -5679.1494     -5421.9957      3850.0786      44452.475      82.884574    
     22450   1303.8849     -5680.2008     -5421.4914      3689.6456      44472.871      83.147573    
     22460   1282.1861     -5675.5126     -5421.1085      4081.2611      44493.332      83.432748    
     22470   1257.9234     -5670.3527     -5420.7626      4266.9009      44513.863      83.700138    
     22480   1277.1564     -5673.809      -5420.4028      4028.2964      44534.563      83.900421    
     22490   1295.1234     -5676.9792     -5420.0082      3811.8087      44555.386      84.024126    
     22500   1314.7805     -5680.5692     -5419.6979      3593.173       44575.823      84.1103      
     22510   1288.0487     -5675.0848     -5419.5175      3990.9969      44595.737      84.232666    
     22520   1266.8484     -5670.7625     -5419.4016      4202.329       44615.709      84.435374    
     22530   1291.634      -5675.588      -5419.3093      3821.1124      44635.981      84.693179    
     22540   1289.1328     -5675.001      -5419.2186      3248.0237      44656.226      84.964042    
     22550   1287.0554     -5674.5809     -5419.2107      2914.2286      44675.958      85.216353    
     22560   1285.9902     -5674.4066     -5419.2477      3054.1519      44694.73       85.459332    
     22570   1294.5458     -5676.2139     -5419.3574      3081.8289      44712.527      85.721836    
     22580   1304.6522     -5678.4525     -5419.5908      3019.4286      44729.389      86.009899    
     22590   1276.8338     -5673.2571     -5419.915       3396.5282      44745.103      86.284495    
     22600   1280.3142     -5674.3938     -5420.3611      3481.5023      44759.805      86.544798    
     22610   1278.8995     -5674.6176     -5420.8656      3465.6817      44773.889      86.814837    
     22620   1298.4768     -5679.1256     -5421.4892      3090.9078      44787.813      87.085955    
     22630   1286.8097     -5677.623      -5422.3016      3200.6274      44801.861      87.335269    
     22640   1244.2861     -5670.0967     -5423.2125      3603.9398      44816.261      87.564007    
     22650   1247.6059     -5671.7051     -5424.1622      3244.6039      44830.855      87.781435    
     22660   1251.644      -5673.46       -5425.1159      2796.1611      44844.791      87.985393    
     22670   1246.5225     -5673.4266     -5426.0987      2544.1369      44857.533      88.194054    
     22680   1258.9269     -5676.9031     -5427.1139      2149.1446      44869.148      88.426364    
     22690   1242.0559     -5674.5945     -5428.1528      2147.2004      44879.833      88.670564    
     22700   1248.5748     -5676.9185     -5429.1833      2098.4294      44889.613      88.907153    
     22710   1241.9308     -5676.6233     -5430.2064      2441.1264      44898.469      89.118381    
     22720   1236.6913     -5676.5533     -5431.1761      2604.9261      44906.756      89.278443    
     22730   1235.5031     -5677.2103     -5432.0688      2527.3582      44914.809      89.394682    
     22740   1244.4931     -5679.8126     -5432.8874      2190.7217      44922.536      89.505219    
     22750   1255.9021     -5682.8423     -5433.6533      2010.2372      44929.496      89.626242    
     22760   1228.5227     -5678.1211     -5434.3646      2450.337       44935.158      89.734048    
     22770   1224.0529     -5677.8354     -5434.9658      2479.3064      44939.54       89.819094    
     22780   1220.5113     -5677.6121     -5435.4451      2243.8478      44942.824      89.909056    
     22790   1228.0885     -5679.4625     -5435.7922      1855.7387      44944.969      90.010977    
     22800   1238.5378     -5681.785      -5436.0414      1646.3366      44945.758      90.094628    
     22810   1237.2573     -5681.7429     -5436.2534      1733.0997      44945.247      90.141965    
     22820   1217.9873     -5678.0614     -5436.3953      1842.6238      44943.842      90.192787    
     22830   1219.4683     -5678.421      -5436.461       1920.8117      44941.76       90.27191     
     22840   1216.1511     -5677.7058     -5436.404       2167.5235      44938.949      90.36147     
     22850   1232.4585     -5680.834      -5436.2966      2213.4235      44935.577      90.442866    
     22860   1223.0536     -5678.825      -5436.1536      2451.9153      44931.64       90.523285    
     22870   1237.0684     -5681.4456     -5435.9935      2350.0733      44927.012      90.602896    
     22880   1257.734      -5685.3728     -5435.8204      1979.0352      44921.751      90.660069    
     22890   1257.7261     -5685.2677     -5435.7168      1974.2309      44915.846      90.704862    
     22900   1239.1868     -5681.573      -5435.7006      2113.9145      44909.314      90.783001    
     22910   1226.9105     -5679.1388     -5435.7022      2314.3683      44902.196      90.876512    
     22920   1206.1227     -5674.949      -5435.637       2674.6279      44894.576      90.96932     
     22930   1228.2304     -5679.2234     -5435.5249      2638.4831      44886.63       91.04427     
     22940   1226.0221     -5678.647      -5435.3866      2813.3835      44878.607      91.095114    
     22950   1201.5523     -5673.631      -5435.2258      2921.008       44870.739      91.133222    
     22960   1204.3362     -5673.9697     -5435.0122      2527.2779      44863.027      91.187934    
     22970   1209.9146     -5674.7922     -5434.7279      2259.6591      44855.441      91.265922    
     22980   1225.8886     -5677.6377     -5434.4038      2156.5162      44847.887      91.330587    
     22990   1229.3716     -5678.0164     -5434.0914      2319.8806      44840.301      91.376075    
     23000   1228.9677     -5677.6417     -5433.7969      2283.1034      44832.649      91.416889    
     23010   1239.6197     -5679.4896     -5433.5313      2047.9532      44824.654      91.432771    
     23020   1232.3094     -5677.8175     -5433.3097      2373.2055      44816.094      91.445241    
     23030   1228.4372     -5676.8778     -5433.1383      2924.6748      44806.794      91.478225    
     23040   1220.1071     -5675.046      -5432.9593      3374.1928      44796.77       91.555543    
     23050   1234.8172     -5677.7838     -5432.7784      3209.5582      44786.273      91.663357    
     23060   1239.7664     -5678.6122     -5432.6248      3045.007       44775.287      91.775628    
     23070   1226.3562     -5675.8575     -5432.5309      3170.0213      44763.771      91.871647    
     23080   1229.1233     -5676.3365     -5432.4609      2835.2694      44751.945      91.943816    
     23090   1209.243      -5672.3016     -5432.3705      2935.4646      44739.92       91.993998    
     23100   1228.2691     -5675.9875     -5432.2814      2671.0898      44727.875      92.024724    
     23110   1257.0743     -5681.6433     -5432.2218      2015.1458      44715.45       92.056776    
     23120   1235.8609     -5677.4824     -5432.2699      2075.9226      44701.954      92.078485    
     23130   1229.7987     -5676.4241     -5432.4144      2294.9997      44686.94       92.090119    
     23140   1225.3305     -5675.7059     -5432.5828      2830.0832      44670.559      92.102418    
     23150   1239.0144     -5678.632      -5432.7938      3012.6994      44653.559      92.115398    
     23160   1255.9119     -5682.2886     -5433.0977      2944.3146      44636.566      92.131343    
     23170   1243.5655     -5680.3125     -5433.5713      3075.5131      44619.547      92.130489    
     23180   1220.9766     -5676.4362     -5434.1769      3171.3147      44602.498      92.089589    
     23190   1219.829      -5676.9353     -5434.9038      3004.2352      44585.657      92.003705    
     23200   1209.83       -5675.7792     -5435.7316      3002.3711      44568.93       91.929423    
     23210   1214.8875     -5677.7146     -5436.6635      2751.4104      44552.17       91.894503    
     23220   1228.0615     -5681.3983     -5437.7333      2307.2911      44535.171      91.876494    
     23230   1212.5562     -5679.5647     -5438.9762      2569.9888      44517.751      91.861317    
     23240   1183.9256     -5675.168      -5440.2602      3136.532       44499.857      91.842284    
     23250   1207.2974     -5681.1193     -5441.5742      3171.8411      44481.466      91.823326    
     23260   1192.4938     -5679.4625     -5442.8547      3587.6966      44462.71       91.801113    
     23270   1185.6556     -5679.3124     -5444.0613      3428.1273      44444.122      91.764342    
     23280   1182.4073     -5679.7295     -5445.1229      2893.4469      44425.85       91.709978    
     23290   1199.5609     -5684.0878     -5446.0777      2527.4315      44407.558      91.662483    
     23300   1208.575      -5686.7102     -5446.9116      2811.1714      44388.995      91.633531    
     23310   1239.9657     -5693.7477     -5447.7207      3051.0383      44370.134      91.620858    
     23320   1232.9191     -5693.168      -5448.5392      3513.9736      44350.837      91.594751    
     23330   1194.1855     -5686.2352     -5449.2917      4035.9587      44331.373      91.544063    
     23340   1191.6089     -5686.3557     -5449.9234      4026.8055      44312.224      91.486208    
     23350   1188.7962     -5686.3033     -5450.4291      3998.9775      44293.561      91.434919    
     23360   1179.6756     -5684.874      -5450.8095      4043.0445      44275.438      91.39694     
     23370   1187.2724     -5686.6351     -5451.0633      3470.6547      44257.937      91.364772    
     23380   1220.9138     -5693.5441     -5451.2973      2400.5872      44240.806      91.337118    
     23390   1207.5377     -5691.1406     -5451.5479      2418.4392      44223.679      91.299132    
     23400   1185.4832     -5687.0171     -5451.8002      2932.2379      44206.723      91.263167    
     23410   1175.7931     -5685.2926     -5451.9984      3242.248       44190.174      91.247333    
     23420   1189.655      -5688.1897     -5452.1451      3557.3751      44174.108      91.252584    
     23430   1185.9067     -5687.554      -5452.2531      4280.1037      44158.434      91.269143    
     23440   1178.0258     -5686.0642     -5452.327       4660.69        44143.37       91.275154    
     23450   1186.6236     -5687.8107     -5452.3676      4333.3542      44129.152      91.257675    
     23460   1188.7434     -5688.2578     -5452.3941      3959.321       44115.618      91.227238    
     23470   1188.3546     -5688.1886     -5452.402       3349.8632      44102.768      91.201076    
     23480   1215.2748     -5693.5979     -5452.47        2772.7716      44090.357      91.170278    
     23490   1199.7696     -5690.636      -5452.5845      3086.7798      44078.119      91.133724    
     23500   1192.0604     -5689.2803     -5452.7584      3650.2578      44066.039      91.083319    
     23510   1195.3333     -5690.1383     -5452.9671      4092.4056      44054.167      91.011161    
     23520   1197.8699     -5690.8986     -5453.224       4363.7105      44042.598      90.954099    
     23530   1166.4366     -5684.941      -5453.5033      4647.3073      44031.319      90.952821    
     23540   1200.0718     -5691.8936     -5453.7821      4086.8572      44020.365      91.014114    
     23550   1232.7347     -5698.7256     -5454.1334      3262.0025      44009.691      91.117067    
     23560   1222.3604     -5697.2234     -5454.6896      3254.2695      43999.141      91.216636    
     23570   1192.5757     -5692.0298     -5455.4057      3665.0861      43988.667      91.277249    
     23580   1160.4984     -5686.4572     -5456.1976      4304.567       43978.368      91.313881    
     23590   1145.2356     -5684.1775     -5456.9464      4641.3401      43968.393      91.361966    
     23600   1163.927      -5688.5786     -5457.6388      4114.3016      43958.774      91.412776    
     23610   1205.7407     -5697.6013     -5458.3651      3392.6721      43949.299      91.463219    
     23620   1204.8754     -5698.2726     -5459.2081      3061.1916      43939.619      91.545307    
     23630   1202.4281     -5698.8021     -5460.2232      2857.5422      43929.514      91.651357    
     23640   1194.5673     -5698.3872     -5461.3679      2649.5623      43918.823      91.736139    
     23650   1170.9844     -5694.9283     -5462.5883      2801.7655      43907.538      91.750751    
     23660   1133.8702     -5688.6793     -5463.7032      3285.7688      43895.87       91.676837    
     23670   1136.7996     -5690.2233     -5464.6659      3538.8485      43884.111      91.569471    
     23680   1135.3372     -5690.7012     -5465.434       3845.4424      43872.442      91.494712    
     23690   1129.2962     -5690.0903     -5466.0218      4040.8852      43861.123      91.450525    
     23700   1144.0951     -5693.428      -5466.4231      3843.405       43850.571      91.407437    
     23710   1155.3258     -5695.9515     -5466.7183      3751.5804      43840.82       91.389576    
     23720   1148.4891     -5694.7983     -5466.9216      4056.9448      43831.852      91.410648    
     23730   1162.335      -5697.6866     -5467.0627      3983.0749      43824.014      91.45893     
     23740   1167.4234     -5698.7915     -5467.158       3953.1501      43817.509      91.530428    
     23750   1189.0779     -5703.2084     -5467.2783      3805.8482      43812.51       91.615006    
     23760   1174.1976     -5700.4138     -5467.4362      4009.4781      43808.901      91.687873    
     23770   1167.87       -5699.3518     -5467.6297      3880.3139      43806.526      91.741598    
     23780   1159.4763     -5697.8463     -5467.7896      3655.5098      43805.14       91.792064    
     23790   1181.8064     -5702.4408     -5467.9535      3255.3937      43804.491      91.845491    
     23800   1186.045      -5703.4962     -5468.1679      3318.4407      43804.292      91.904406    
     23810   1150.4415     -5696.6807     -5468.4166      4002.2762      43804.341      91.970133    
     23820   1137.0782     -5694.2432     -5468.6306      3997.8955      43804.772      92.040804    
     23830   1140.3888     -5695.0151     -5468.7457      3527.0792      43805.555      92.127039    
     23840   1144.6797     -5695.9255     -5468.8047      3278.736       43806.582      92.239048    
     23850   1146.868      -5696.3862     -5468.8312      3430.1478      43807.96       92.379473    
     23860   1160.6406     -5699.1277     -5468.84        3699.0759      43809.952      92.535412    
     23870   1176.9168     -5702.3947     -5468.8775      4033.6812      43812.868      92.689072    
     23880   1180.9304     -5703.3175     -5469.004       4339.4904      43816.94       92.827953    
     23890   1159.8561     -5699.3364     -5469.2044      4422.9347      43822.423      92.936232    
     23900   1165.8947     -5700.7767     -5469.4465      3874.5676      43829.521      93.013847    
     23910   1183.0466     -5704.4718     -5469.7384      3230.2552      43837.916      93.085267    
     23920   1186.4848     -5705.5657     -5470.1501      3032.4889      43846.878      93.16251     
     23930   1169.1938     -5702.6495     -5470.6647      3514.4397      43855.954      93.260701    
     23940   1164.186      -5702.2588     -5471.2676      3642.401       43865.244      93.396666    
     23950   1161.9001     -5702.4492     -5471.9116      3588.4115      43874.842      93.55078     
     23960   1157.9507     -5702.3514     -5472.5974      3612.9075      43884.579      93.702388    
     23970   1163.4881     -5704.1829     -5473.3302      3555.1087      43894.126      93.854161    
     23980   1160.7522     -5704.4121     -5474.1022      3713.7838      43903.119      94.011614    
     23990   1134.8582     -5700.0425     -5474.8704      4031.4726      43911.63       94.180263    
     24000   1134.2816     -5700.6621     -5475.6044      3856.9526      43919.955      94.349622    
     24010   1134.7683     -5701.4099     -5476.2556      3492.1607      43928.079      94.472522    
     24020   1156.2209     -5706.2878     -5476.8771      2952.6033      43936.041      94.567008    
     24030   1154.9536     -5706.6456     -5477.4863      2679.0445      43943.823      94.689368    
     24040   1135.5546     -5703.3948     -5478.0845      2967.588       43951.069      94.834669    
     24050   1120.1763     -5700.8708     -5478.6118      3557.8347      43957.479      94.947875    
     24060   1113.0172     -5699.8759     -5479.0373      3863.4022      43963.389      94.985092    
     24070   1105.8103     -5698.7377     -5479.3291      3915.799       43969.35       94.962949    
     24080   1126.5789     -5703.0461     -5479.5168      3335.1009      43975.592      94.918559    
     24090   1157.7379     -5709.3904     -5479.6786      2748.2156      43981.817      94.879258    
     24100   1148.3862     -5707.7281     -5479.8719      2926.4498      43987.662      94.855595    
     24110   1132.1754     -5704.7483     -5480.1085      3286.1861      43993.096      94.861599    
     24120   1126.0954     -5703.7474     -5480.314       3292.3096      43998.229      94.910039    
     24130   1124.98       -5703.6837     -5480.4716      2988.4808      44003.168      95.00182     
     24140   1128.1129     -5704.4579     -5480.6241      2857.8799      44007.78       95.114856    
     24150   1117.1456     -5702.3877     -5480.73        3065.9641      44011.99       95.243514    
     24160   1127.6592     -5704.5637     -5480.82        3059.8393      44016.104      95.383787    
     24170   1123.4135     -5703.7943     -5480.893       3034.8223      44020.486      95.521695    
     24180   1120.273      -5703.2432     -5480.965       3090.8903      44025.515      95.664686    
     24190   1112.1854     -5701.6805     -5481.007       3024.7058      44031.227      95.807287    
     24200   1111.408      -5701.5388     -5481.0195      2924.5562      44037.369      95.908749    
     24210   1106.1411     -5700.4567     -5480.9824      2757.3485      44043.743      95.953034    
     24220   1113.9329     -5701.9336     -5480.9134      2453.7864      44050.25       95.97499     
     24230   1117.4826     -5702.5547     -5480.8301      2452.1242      44056.819      96.007138    
     24240   1123.8159     -5703.7137     -5480.7326      2519.977       44063.28       96.055199    
     24250   1133.4496     -5705.5598     -5480.6672      2505.1216      44069.336      96.130152    
     24260   1143.8599     -5707.6168     -5480.6586      2351.7056      44074.781      96.226171    
     24270   1124.6564     -5703.8752     -5480.7273      2570.0379      44079.642      96.317686    
     24280   1090.9622     -5697.2886     -5480.8261      2902.1259      44084.253      96.39332     
     24290   1079.765      -5695.0942     -5480.8534      2875.6431      44088.864      96.46169     
     24300   1077.8535     -5694.6174     -5480.7559      2603.9196      44093.271      96.525889    
     24310   1089.8135     -5696.792      -5480.5574      2108.5046      44097.066      96.599934    
     24320   1101.3237     -5698.8018     -5480.2834      1787.7373      44099.938      96.688174    
     24330   1113.0803     -5700.8254     -5479.9744      1860.7277      44101.676      96.797254    
     24340   1118.2149     -5701.5253     -5479.6554      2197.7745      44102.395      96.935847    
     24350   1121.4209     -5701.8582     -5479.3522      2431.4581      44102.498      97.08327     
     24360   1120.0111     -5701.322      -5479.0958      2569.9107      44102.158      97.181905    
     24370   1112.0088     -5699.4888     -5478.8503      2695.7037      44101.516      97.191972    
     24380   1128.9545     -5702.6342     -5478.6334      2351.2215      44100.855      97.143843    
     24390   1126.6357     -5701.99       -5478.4493      2440.4506      44100.113      97.095271    
     24400   1139.2501     -5704.392      -5478.3484      2709.0427      44099.217      97.067315    
     24410   1133.7521     -5703.3025     -5478.3498      3111.0981      44098.126      97.061084    
     24420   1114.774      -5699.6521     -5478.465       3475.3919      44097.029      97.091578    
     24430   1111.3665     -5699.1592     -5478.6481      3173.9982      44096.397      97.144286    
     24440   1135.0462     -5704.1722     -5478.9628      2341.1953      44096.12       97.194409    
     24450   1114.8467     -5700.6519     -5479.4503      1953.3913      44095.639      97.249101    
     24460   1121.6754     -5702.7448     -5480.1883      1425.8984      44094.482      97.320499    
     24470   1117.3074     -5702.8693     -5481.1795      1371.8694      44092.201      97.412329    
     24480   1100.3644     -5700.7343     -5482.4062      1862.5005      44088.662      97.507797    
     24490   1095.7321     -5701.1997     -5483.7908      1986.3687      44084.003      97.578395    
     24500   1095.0803     -5702.5115     -5485.2319      1846.4334      44078.369      97.603197    
     24510   1099.2021     -5704.7699     -5486.6725      1771.6066      44071.95       97.583841    
     24520   1094.6976     -5705.2196     -5488.0159      1869.6214      44064.957      97.540762    
     24530   1100.4751     -5707.6022     -5489.2522      1889.4289      44057.416      97.502787    
     24540   1091.0792     -5706.8518     -5490.3661      2095.6061      44049.36       97.491143    
     24550   1075.3647     -5704.6908     -5491.323       2428.3181      44040.838      97.496667    
     24560   1078.9027     -5706.1816     -5492.1119      2322.9001      44031.995      97.503863    
     24570   1081.9456     -5707.4572     -5492.7837      1953.2966      44022.91       97.508038    
     24580   1068.1174     -5705.2815     -5493.3517      1662.3582      44013.497      97.506379    
     24590   1065.5107     -5705.2306     -5493.818       1562.7816      44003.446      97.482583    
     24600   1070.1965     -5706.5303     -5494.188       1671.0552      43992.459      97.427254    
     24610   1066.4109     -5706.0747     -5494.4835      2053.3877      43980.344      97.358419    
     24620   1064.5492     -5705.9209     -5494.6991      2249.4346      43967.1        97.294136    
     24630   1094.5641     -5712.0659     -5494.8887      1991.3969      43952.74       97.25989     
     24640   1084.7552     -5710.3154     -5495.0845      2130.6127      43937.139      97.249295    
     24650   1067.5222     -5707.0957     -5495.284       2508.8889      43920.27       97.220404    
     24660   1082.17       -5710.1851     -5495.467       2626.2392      43902.278      97.168192    
     24670   1081.5811     -5710.2209     -5495.6198      2930.6807      43883.445      97.123377    
     24680   1080.314      -5710.132      -5495.7822      3413.6739      43864.411      97.095086    
     24690   1089.4932     -5712.1172     -5495.9461      3644.8723      43845.759      97.050637    
     24700   1100.719      -5714.5587     -5496.1603      3516.6382      43827.787      96.974949    
     24710   1079.0647     -5710.5458     -5496.4439      3516.6526      43810.411      96.892096    
     24720   1071.7012     -5709.4098     -5496.7689      3226.7062      43793.531      96.819757    
     24730   1065.799      -5708.5529     -5497.0831      3183.7771      43776.989      96.761951    
     24740   1063.2841     -5708.3741     -5497.4033      3211.0358      43760.793      96.692808    
     24750   1051.8989     -5706.3973     -5497.6855      3264.9495      43744.864      96.605476    
     24760   1056.5444     -5707.556      -5497.9225      3115.1388      43729.163      96.522367    
     24770   1065.3541     -5709.5046     -5498.1231      2818.9405      43713.683      96.463051    
     24780   1069.9571     -5710.6219     -5498.3271      2735.014       43698.344      96.443122    
     24790   1075.4928     -5711.9403     -5498.5471      2568.5395      43683.235      96.461846    
     24800   1085.2156     -5714.1497     -5498.8273      2154.0145      43668.181      96.510566    
     24810   1066.4681     -5710.7827     -5499.1802      2039.8727      43652.601      96.55143     
     24820   1054.9999     -5708.8942     -5499.5671      2109.5604      43636.028      96.54319     
     24830   1051.0355     -5708.4943     -5499.9538      2151.2681      43618.454      96.485765    
     24840   1065.799      -5711.8147     -5500.3449      2077.8647      43600.188      96.407347    
     24850   1055.0845     -5710.0961     -5500.7522      2459.2715      43581.452      96.329709    
     24860   1059.0758     -5711.3225     -5501.1867      2703.3775      43562.487      96.253807    
     24870   1070.4669     -5714.0632     -5501.6673      2861.9628      43543.474      96.188448    
     24880   1054.1568     -5711.3778     -5502.218       3268.5041      43524.629      96.155678    
     24890   1037.5919     -5708.6587     -5502.7856      3468.7748      43506.22       96.154455    
     24900   1053.4733     -5712.3959     -5503.3717      3324.168       43488.157      96.158184    
     24910   1054.0009     -5713.106      -5503.9771      3531.316       43470.277      96.132135    
     24920   1039.2721     -5710.8197     -5504.6132      3966.8035      43452.723      96.077923    
     24930   1055.246      -5714.6477     -5505.2718      4123.7294      43435.693      96.017393    
     24940   1052.7799     -5714.8403     -5505.9537      4303.6154      43419.614      95.959375    
     24950   1061.5383     -5717.3097     -5506.6853      4093.9433      43404.883      95.919229    
     24960   1078.9491     -5721.576      -5507.4971      3583.1679      43391.453      95.919117    
     24970   1082.5479     -5723.2562     -5508.4632      3287.7665      43379.005      95.954207    
     24980   1056.6936     -5719.1722     -5509.5091      3333.9305      43367.07       96.003416    
     24990   1057.5943     -5720.436      -5510.5942      3048.3544      43355.469      96.042092    
     25000   1030.363      -5716.0562     -5511.6174      3063.2506      43344.259      96.068329    
     25010   1011.5413     -5713.1895     -5512.4852      3037.6609      43333.648      96.087362    
     25020   1039.1788     -5719.3784     -5513.1905      2689.8899      43323.709      96.086918    
     25030   1066.8335     -5725.4934     -5513.8184      2306.7026      43314.345      96.053121    
     25040   1063.2672     -5725.4095     -5514.4421      2272.2899      43305.345      96.038036    
     25050   1052.0929     -5723.796      -5515.0457      2599.5541      43296.525      96.102429    
     25060   1053.4373     -5724.6248     -5515.6077      2879.8901      43287.835      96.231778    
     25070   1052.7215     -5724.9899     -5516.1148      3056.2292      43279.534      96.350188    
     25080   1051.6789     -5725.2664     -5516.5982      3109.5596      43271.987      96.416085    
     25090   1024.4605     -5720.302      -5517.0344      3210.3265      43265.335      96.434986    
     25100   992.9118      -5714.3412     -5517.3333      3192.8818      43259.589      96.413962    
     25110   1012.0672     -5718.3102     -5517.5016      2406.8261      43254.641      96.371887    
     25120   1006.6321     -5717.261      -5517.5308      2012.5694      43250.185      96.344803    
     25130   993.89808     -5714.6605     -5517.4569      2099.8006      43246.135      96.351189    
     25140   1013.1306     -5718.2871     -5517.2675      2107.8834      43242.613      96.408946    
     25150   1037.7976     -5722.9255     -5517.0116      2171.5709      43239.513      96.510845    
     25160   1051.5618     -5725.4092     -5516.7643      2253.2467      43236.518      96.64338     
     25170   1049.5737     -5724.8328     -5516.5823      2487.9664      43233.466      96.801325    
     25180   1040.9094     -5722.9962     -5516.4649      2831.1686      43230.549      96.972295    
     25190   1032.0693     -5721.1472     -5516.3699      3031.9632      43227.993      97.112836    
     25200   1040.2148     -5722.6831     -5516.2896      2943.5103      43225.761      97.201751    
     25210   1040.4933     -5722.6783     -5516.2296      3074.5577      43223.901      97.269008    
     25220   1032.5147     -5721.0663     -5516.2006      3241.9315      43222.635      97.338372    
     25230   1026.6496     -5719.8871     -5516.1851      3412.1102      43222.104      97.411581    
     25240   1030.0058     -5720.5309     -5516.163       3532.2027      43222.228      97.504332    
     25250   1042.1375     -5722.9263     -5516.1513      3474.292       43223.015      97.621175    
     25260   1052.4763     -5725.0074     -5516.1811      3406.1351      43224.488      97.726886    
     25270   1056.3987     -5725.9222     -5516.3176      3326.7033      43226.457      97.789331    
     25280   1034.8169     -5721.8555     -5516.533       3312.9307      43228.762      97.793405    
     25290   1054.481      -5726.0662     -5516.842       2962.8642      43231.493      97.73757     
     25300   1044.7448     -5724.5577     -5517.2654      3075.9528      43234.67       97.649107    
     25310   1005.0938     -5717.1881     -5517.7631      3686.9279      43238.561      97.549268    
     25320   1011.0127     -5718.8862     -5518.2868      3824.3363      43243.463      97.450153    
     25330   1015.7443     -5720.3544     -5518.8161      3906.065       43249.352      97.376659    
     25340   1014.0516     -5720.6008     -5519.3985      3891.414       43256.185      97.33523     
     25350   1031.4285     -5724.7064     -5520.0562      3330.2652      43263.904      97.328137    
     25360   1051.9658     -5729.6049     -5520.8798      2741.4519      43272.056      97.339121    
     25370   1044.6016     -5729.1965     -5521.9326      2785.1069      43280.205      97.344404    
     25380   1039.0104     -5729.3533     -5523.1987      3053.643       43288.343      97.364476    
     25390   1045.2527     -5732.072      -5524.6789      3412.3796      43296.837      97.419224    
     25400   1026.1989     -5729.8323     -5526.2197      4149.0954      43306.059      97.496712    
     25410   1031.8862     -5732.4595     -5527.7185      4228.2502      43316.09       97.588884    
     25420   1015.1763     -5730.4252     -5528.9996      4196.9643      43326.353      97.698757    
     25430   1009.8251     -5730.397      -5530.0332      3851.9236      43336.564      97.820574    
     25440   1002.917      -5729.7986     -5530.8055      3288.9524      43346.838      97.953632    
     25450   990.66159     -5727.9053     -5531.3438      2901.7198      43356.951      98.073354    
     25460   1001.4119     -5730.4065     -5531.712       2621.3974      43366.632      98.158085    
     25470   1013.0483     -5732.993      -5531.9897      2758.7021      43375.691      98.230126    
     25480   993.3829      -5729.3177     -5532.2164      3289.2055      43384.266      98.302902    
     25490   987.0965      -5728.2451     -5532.391       3232.3952      43392.801      98.362076    
     25500   964.46719     -5723.8341     -5532.47        3015.6083      43401.543      98.416117    
     25510   964.20856     -5723.7466     -5532.4338      2630.7007      43410.421      98.480853    
     25520   978.02752     -5726.3295     -5532.2748      2376.4144      43419.195      98.549443    
     25530   987.93878     -5728.0525     -5532.0313      2446.3072      43427.634      98.613304    
     25540   1012.0021     -5732.5474     -5531.7516      2437.9095      43435.547      98.69312     
     25550   1011.771      -5732.2397     -5531.4899      2493.0633      43442.96       98.795068    
     25560   1017.1093     -5733.0916     -5531.2825      2281.9957      43450.044      98.889567    
     25570   1017.0852     -5732.9257     -5531.1214      2010.2385      43456.763      98.940058    
     25580   1001.2147     -5729.658      -5531.0026      2109.7046      43462.842      98.936649    
     25590   1006.2731     -5730.5801     -5530.9211      2107.3293      43468.101      98.895852    
     25600   1015.4884     -5732.3628     -5530.8753      2076.0633      43472.391      98.850795    
     25610   1017.0545     -5732.6715     -5530.8733      2335.7972      43475.382      98.833917    
     25620   1042.2672     -5737.7893     -5530.9886      2242.723       43477.023      98.854508    
     25630   1031.641      -5735.9297     -5531.2373      2481.2659      43477.616      98.902846    
     25640   1016.4686     -5733.3292     -5531.6473      2487.6209      43477.618      98.964879    
     25650   998.38084     -5730.23       -5532.1369      2159.426       43477.088      99.020001    
     25660   1005.5467     -5732.2145     -5532.6996      1931.3233      43475.67       99.053941    
     25670   989.15496     -5729.569      -5533.3065      2262.5613      43473.404      99.077129    
     25680   973.66984     -5727.1128     -5533.9228      2478.2333      43470.94       99.112001    
     25690   976.05433     -5728.1656     -5534.5025      2282.877       43468.595      99.151681    
     25700   982.8246      -5730.0619     -5535.0554      1870.385       43466.104      99.167826    
     25710   972.64863     -5728.5732     -5535.5858      2052.3034      43463.195      99.165488    
     25720   969.41301     -5728.4231     -5536.0777      2402.7664      43460.033      99.176228    
     25730   976.78393     -5730.3428     -5536.5349      2511.5882      43456.824      99.246602    
     25740   971.01655     -5729.6239     -5536.9603      2725.373       43453.751      99.369718    
     25750   973.28236     -5730.4706     -5537.3574      2606.0408      43451.007      99.517189    
     25760   973.43264     -5730.8617     -5537.7187      2531.0284      43448.532      99.680847    
     25770   969.90262     -5730.4984     -5538.0558      2538.7188      43446.063      99.833509    
     25780   969.54629     -5730.7438     -5538.3719      2573.4248      43443.431      99.948474    
     25790   973.22037     -5731.7651     -5538.6643      2633.7444      43440.746      100.00907    
     25800   983.95008     -5734.181      -5538.9512      2580.5883      43437.982      100.00368    
     25810   980.35212     -5733.7885     -5539.2726      2721.4181      43434.974      99.9606      
     25820   956.54121     -5729.3921     -5539.6006      3114.01        43431.738      99.924964    
     25830   955.59793     -5729.5063     -5539.902       3041.0054      43428.486      99.907419    
     25840   964.15743     -5731.4564     -5540.1538      2713.2926      43425.169      99.893587    
     25850   982.84694     -5735.4042     -5540.3933      2057.4433      43421.633      99.879123    
     25860   997.58421     -5738.6477     -5540.7127      1653.1912      43417.626      99.883332    
     25870   998.69376     -5739.3168     -5541.1616      1635.9183      43412.998      99.92659     
     25880   976.25234     -5735.4415     -5541.7391      2157.0127      43407.838      99.9993      
     25890   972.3832      -5735.3555     -5542.4207      2706.5688      43402.467      100.08893    
     25900   961.51208     -5733.9672     -5543.1894      3181.4512      43397.137      100.19826    
     25910   964.00367     -5735.3104     -5544.0383      3239.6978      43391.849      100.30329    
     25920   987.71162     -5740.96       -5544.9838      2836.9793      43386.461      100.37569    
     25930   985.79185     -5741.6873     -5546.092       2862.1325      43380.73       100.41176    
     25940   959.93041     -5737.7347     -5547.2708      3318.8343      43374.524      100.42667    
     25950   942.70292     -5735.4456     -5548.3998      3693.714       43367.922      100.42632    
     25960   945.25954     -5736.9441     -5549.3911      3384.7219      43361.12       100.43134    
     25970   958.38641     -5740.4092     -5550.2516      2675.4349      43354.122      100.47169    
     25980   957.36011     -5740.9438     -5550.9899      2280.2953      43346.808      100.54357    
     25990   953.16978     -5740.73       -5551.6074      2143.6699      43339.066      100.60948    
     26000   948.44616     -5740.2784     -5552.0931      2047.1553      43330.891      100.6594     
     26010   953.37423     -5741.6455     -5552.4824      1841.2156      43322.357      100.71504    
     26020   952.30552     -5741.7371     -5552.786       1847.1396      43313.463      100.76937    
     26030   950.40049     -5741.6045     -5553.0314      1993.2941      43304.103      100.83991    
     26040   944.11704     -5740.5458     -5553.2194      2220.4304      43294.131      100.9639     
     26050   947.70646     -5741.3833     -5553.3448      2303.8012      43283.433      101.11708    
     26060   957.73359     -5743.4652     -5553.4371      2393.7777      43272.096      101.24701    
     26070   961.77049     -5744.3599     -5553.5308      2513.0623      43260.456      101.34891    
     26080   957.839       -5743.6831     -5553.6341      2575.0864      43248.676      101.4434     
     26090   945.82586     -5741.4141     -5553.7487      2871.6172      43236.72       101.54016    
     26100   934.27222     -5739.2058     -5553.8328      3074.1742      43224.582      101.63166    
     26110   934.98815     -5739.3878     -5553.8728      2867.4286      43212.213      101.69906    
     26120   940.8359      -5740.5388     -5553.8635      2544.971       43199.562      101.74126    
     26130   931.25913     -5738.5858     -5553.8107      2541.9126      43186.702      101.78062    
     26140   934.06611     -5739.037      -5553.7049      2770.3305      43173.945      101.81758    
     26150   955.27216     -5743.1067     -5553.567       2976.1896      43161.724      101.8348     
     26160   971.0347      -5746.1136     -5553.4465      3189.5743      43150.238      101.81104    
     26170   982.82641     -5748.4189     -5553.4121      3090.0883      43139.44       101.74869    
     26180   975.0628      -5746.9695     -5553.5031      3044.8832      43129.246      101.66952    
     26190   940.03801     -5740.1931     -5553.6761      3386.7083      43119.773      101.60022    
     26200   942.34857     -5740.8505     -5553.875       3122.5006      43111.324      101.55837    
     26210   948.32457     -5742.2395     -5554.0783      2587.4357      43103.873      101.52633    
     26220   945.50393     -5741.922      -5554.3205      2316.0429      43097.101      101.4885     
     26230   940.91296     -5741.2928     -5554.6022      2313.6086      43090.573      101.45085    
     26240   930.08683     -5739.4486     -5554.9061      2583.8331      43083.979      101.42187    
     26250   942.17638     -5742.1637     -5555.2224      2592.1659      43077.387      101.4098     
     26260   956.07994     -5745.2955     -5555.5956      2574.7056      43070.808      101.41025    
     26270   954.05707     -5745.3713     -5556.0728      2877.6068      43064.271      101.42377    
     26280   955.19088     -5746.1979     -5556.6743      2847.2318      43058.034      101.46815    
     26290   966.42553     -5749.2092     -5557.4566      2501.2343      43052.039      101.52776    
     26300   951.68525     -5747.25       -5558.422       2306.0483      43045.961      101.57317    
     26310   939.71983     -5745.9536     -5559.4997      1897.6825      43039.804      101.60526    
     26320   950.9869      -5749.366      -5560.6765      1111.9737      43033.407      101.64055    
     26330   927.77537     -5745.9456     -5561.8616      1106.0233      43026.267      101.6813     
     26340   922.17945     -5745.9375     -5562.9639      1195.0503      43018.365      101.7013     
     26350   925.74335     -5747.5807     -5563.8999      1497.8528      43009.771      101.68938    
     26360   928.79357     -5748.9858     -5564.6999      2132.3455      43000.652      101.6662     
     26370   909.12106     -5745.7002     -5565.3176      2827.4775      42991.439      101.65731    
     26380   935.05094     -5751.3263     -5565.7988      2616.8266      42982.623      101.65451    
     26390   945.64067     -5753.8469     -5566.2183      2334.1411      42974.204      101.65654    
     26400   926.72068     -5750.4796     -5566.605       2511.959       42966.048      101.66802    
     26410   922.27345     -5749.9468     -5566.9545      2600.5435      42958.119      101.70188    
     26420   895.35016     -5744.8572     -5567.2069      3074.881       42950.322      101.76773    
     26430   905.78526     -5747.1108     -5567.3901      3103.3592      42942.718      101.8541     
     26440   915.38765     -5749.1199     -5567.4939      3189.6043      42935.362      101.90581    
     26450   906.8459      -5747.4998     -5567.5685      3400.3749      42928.236      101.90173    
     26460   901.16984     -5746.4044     -5567.5994      3518.3355      42921.255      101.87138    
     26470   912.01904     -5748.5372     -5567.5796      3031.9935      42914.383      101.84543    
     26480   927.077       -5751.4951     -5567.5498      2348.3105      42907.529      101.84493    
     26490   924.62666     -5751.0007     -5567.5416      1947.0439      42900.519      101.88904    
     26500   920.83909     -5750.2753     -5567.5676      1760.1786      42893.302      101.96131    
     26510   910.74375     -5748.3146     -5567.61        1722.3678      42885.781      102.0448     
     26520   897.026       -5745.6185     -5567.6357      1818.2732      42877.854      102.12273    
     26530   909.97847     -5748.1868     -5567.634       1848.8653      42869.504      102.17877    
     26540   908.44288     -5747.8542     -5567.6062      2296.5254      42860.662      102.23612    
     26550   908.33068     -5747.7982     -5567.5724      2713.0615      42851.412      102.31333    
     26560   911.68852     -5748.4153     -5567.5232      2944.6697      42842.094      102.41139    
     26570   908.67716     -5747.7784     -5567.4839      3112.6278      42833.047      102.50632    
     26580   898.58604     -5745.7119     -5567.4196      3300.6668      42824.222      102.56313    
     26590   920.53353     -5749.9958     -5567.3488      2981.9184      42815.388      102.54977    
     26600   934.8873      -5752.8105     -5567.3155      2607.626       42806.191      102.49857    
     26610   933.56483     -5752.6077     -5567.375       2584.0505      42796.481      102.44895    
     26620   922.95073     -5750.6616     -5567.535       2963.236       42786.396      102.4177     
     26630   922.41443     -5750.8019     -5567.7816      3120.6409      42776.151      102.4073     
     26640   923.42635     -5751.3369     -5568.1159      3030.511       42765.892      102.39525    
     26650   925.94877     -5752.3022     -5568.5807      2834.4523      42755.639      102.34158    
     26660   930.61635     -5753.8282     -5569.1806      2434.6756      42745.297      102.26424    
     26670   931.32248     -5754.7555     -5569.9678      2201.4468      42734.665      102.19861    
     26680   911.82371     -5751.8199     -5570.9011      2475.9564      42723.56       102.16488    
     26690   893.46971     -5749.1704     -5571.8932      2843.3934      42712.188      102.15834    
     26700   891.64404     -5749.7944     -5572.8795      2972.3179      42700.941      102.17607    
     26710   886.10643     -5749.6102     -5573.794       2915.6637      42689.903      102.2146     
     26720   887.5702      -5750.7382     -5574.6315      2709.3336      42678.936      102.26466    
     26730   875.27367     -5749.0199     -5575.3531      2779.6386      42667.848      102.32408    
     26740   874.0092      -5749.3564     -5575.9405      2859.5371      42656.598      102.37992    
     26750   883.51505     -5751.7006     -5576.3985      2981.2825      42645.281      102.43271    
     26760   903.9713      -5756.1548     -5576.7939      3115.4465      42634.006      102.50785    
     26770   893.87678     -5754.5054     -5577.1474      3426.384       42622.956      102.61902    
     26780   890.73122     -5754.2219     -5577.4881      3340.6966      42612.37       102.74681    
     26790   880.57409     -5752.4941     -5577.7756      3125.538       42602.147      102.84345    
     26800   888.9027      -5754.3984     -5578.0274      2869.7388      42591.994      102.88482    
     26810   892.3119      -5755.2993     -5578.2519      2959.69        42581.765      102.87318    
     26820   892.23685     -5755.5081     -5578.4755      3217.1057      42571.577      102.83035    
     26830   896.90925     -5756.6536     -5578.6939      3349.0187      42561.532      102.79631    
     26840   912.84499     -5760.074      -5578.9525      3236.7915      42551.621      102.7715     
     26850   904.97065     -5758.823      -5579.2639      3460.8987      42541.942      102.74092    
     26860   899.32624     -5758.0602     -5579.621       3519.1832      42532.79       102.719      
     26870   912.24253     -5761.0353     -5580.0333      3244.8567      42524.331      102.7066     
     26880   897.03212     -5758.4923     -5580.5083      3424.1068      42516.393      102.70303    
     26890   878.72098     -5755.3407     -5580.9899      3630.7946      42508.784      102.70735    
     26900   885.92954     -5757.2384     -5581.4573      3326.3725      42501.372      102.70256    
     26910   879.1528      -5756.3394     -5581.9028      3139.0547      42494.057      102.67274    
     26920   871.44318     -5755.2242     -5582.3174      3106.5666      42486.822      102.62949    
     26930   880.59358     -5757.4248     -5582.7024      3121.5088      42479.633      102.60235    
     26940   879.36791     -5757.5372     -5583.058       3178.3578      42472.65       102.59208    
     26950   874.55623     -5756.9249     -5583.4004      3276.7479      42466.041      102.58778    
     26960   861.65104     -5754.6749     -5583.711       3282.8167      42459.788      102.58664    
     26970   857.62624     -5754.1318     -5583.9665      3083.8985      42453.862      102.60304    
     26980   857.96981     -5754.3955     -5584.162       2869.6184      42448.314      102.64626    
     26990   863.22861     -5755.5769     -5584.3         2723.718       42443.234      102.69186    
     27000   866.80291     -5756.3936     -5584.4074      2826.0414      42438.658      102.71417    
     27010   851.68044     -5753.4683     -5584.4827      3213.8228      42434.698      102.72133    
     27020   860.53007     -5755.2645     -5584.523       3157.0645      42431.57       102.73987    
     27030   862.13027     -5755.5784     -5584.5194      3108.6172      42429.285      102.78278    
     27040   871.00314     -5757.3289     -5584.5094      3087.9473      42427.69       102.83414    
     27050   884.58555     -5760.0322     -5584.5178      3073.5785      42426.585      102.88494    
     27060   889.80988     -5761.1323     -5584.5813      3241.2045      42425.717      102.95109    
     27070   892.46285     -5761.8131     -5584.7357      3286.4105      42425.021      103.04397    
     27080   893.1357      -5762.1951     -5584.9842      3155.4136      42424.711      103.15732    
     27090   873.77258     -5758.6838     -5585.3148      3176.9702      42424.968      103.24273    
     27100   859.79025     -5756.2782     -5585.6835      2963.1828      42425.809      103.26995    
     27110   855.5088      -5755.7875     -5586.0423      2591.0016      42426.948      103.25564    
     27120   857.06462     -5756.4397     -5586.3858      2471.9145      42427.789      103.23176    
     27130   865.62911     -5758.4835     -5586.7303      2653.6585      42428.007      103.23294    
     27140   871.07559     -5759.9348     -5587.1009      3075.4438      42427.791      103.27038    
     27150   886.26168     -5763.3845     -5587.5375      3207.8423      42427.457      103.31515    
     27160   891.30243     -5764.9211     -5588.074       3244.3918      42427.121      103.34618    
     27170   892.226       -5765.7733     -5588.7429      3111.2629      42426.85       103.375      
     27180   888.16031     -5765.7546     -5589.5309      3071.2377      42426.666      103.40465    
     27190   870.12986     -5763.0399     -5590.3937      3109.2883      42426.435      103.43149    
     27200   843.25487     -5758.5161     -5591.2023      3224.4741      42426.033      103.45943    
     27210   846.67878     -5759.885      -5591.8918      2929.5863      42425.499      103.50282    
     27220   849.10541     -5760.9243     -5592.4496      2725.2805      42424.698      103.55958    
     27230   836.49596     -5758.8398     -5592.8671      3015.0204      42423.515      103.63095    
     27240   833.56031     -5758.5447     -5593.1544      3232.9917      42422.155      103.701      
     27250   833.36608     -5758.6611     -5593.3094      3080.335       42420.86       103.74047    
     27260   847.94303     -5761.6425     -5593.3984      2621.2366      42419.54       103.73281    
     27270   866.44737     -5765.3862     -5593.4707      2170.7382      42417.87       103.66868    
     27280   869.2678      -5766.0597     -5593.5845      2030.4251      42415.741      103.58046    
     27290   853.18461     -5763.0344     -5593.7504      2191.1237      42413.278      103.52135    
     27300   845.65276     -5761.7124     -5593.9228      2523.4253      42410.812      103.51514    
     27310   861.19759     -5764.9746     -5594.1007      2551.7827      42408.612      103.53921    
     27320   865.58232     -5766.0681     -5594.3242      2672.6807      42406.557      103.57296    
     27330   850.97298     -5763.4512     -5594.6059      3125.9801      42404.506      103.61799    
     27340   853.48261     -5764.2532     -5594.91        3448.2704      42402.556      103.69588    
     27350   868.63804     -5767.6296     -5595.2794      3344.1573      42400.981      103.81399    
     27360   851.35688     -5764.6278     -5595.7064      3445.4554      42399.955      103.96181    
     27370   851.36486     -5765.1116     -5596.1886      3094.424       42399.472      104.11957    
     27380   845.30304     -5764.4176     -5596.6974      2763.8466      42399.336      104.25465    
     27390   838.64655     -5763.6138     -5597.2143      2665.5011      42399.378      104.35552    
     27400   834.57027     -5763.33       -5597.7393      2778.8495      42399.582      104.43358    
     27410   821.16854     -5761.1653     -5598.2337      3090.5799      42400.112      104.49626    
     27420   818.6094      -5761.1027     -5598.6788      3123.7678      42401.117      104.53286    
     27430   825.75538     -5762.9099     -5599.0682      3121.9403      42402.504      104.53408    
     27440   834.77701     -5765.0735     -5599.4418      3237.6925      42404.097      104.51982    
     27450   841.73993     -5766.8452     -5599.832       3404.5642      42405.872      104.52012    
     27460   837.79048     -5766.4622     -5600.2325      3421.9512      42407.96       104.54785    
     27470   838.53108     -5767.043      -5600.6664      3237.5539      42410.618      104.58681    
     27480   840.25881     -5767.8611     -5601.1417      3189.9176      42414.142      104.6238     
     27490   822.67225     -5764.8461     -5601.6161      3441.2281      42418.424      104.66784    
     27500   818.76984     -5764.5344     -5602.0788      3348.5332      42423.189      104.72695    
     27510   814.42041     -5764.0895     -5602.4968      3104.6931      42428.262      104.79225    
     27520   827.55699     -5767.0931     -5602.894       2491.2348      42433.504      104.84988    
     27530   827.11437     -5767.3901     -5603.2788      2234.1045      42438.678      104.87841    
     27540   827.2669      -5767.8179     -5603.6763      2135.6472      42443.857      104.88012    
     27550   824.69846     -5767.7142     -5604.0822      2366.416       42449.275      104.86635    
     27560   821.69578     -5767.522      -5604.4858      2775.0702      42455.104      104.84898    
     27570   839.64692     -5771.5049     -5604.9069      2727.7694      42461.557      104.84021    
     27580   839.84068     -5772.0201     -5605.3837      2800.3629      42468.785      104.8475     
     27590   817.00294     -5768.0032     -5605.8981      3035.437       42476.913      104.86323    
     27600   811.39243     -5767.3839     -5606.392       3147.0279      42486.031      104.89278    
     27610   805.27816     -5766.6226     -5606.8438      3271.3441      42496.07       104.94915    
     27620   788.68317     -5763.7068     -5607.2207      3350.7859      42506.932      105.03941    
     27630   800.18216     -5766.2875     -5607.5199      3045.9555      42518.545      105.16084    
     27640   813.51232     -5769.171      -5607.7585      2697.1871      42530.734      105.31243    
     27650   812.13673     -5769.123      -5607.9835      2545.5395      42543.326      105.48637    
     27660   802.44353     -5767.4088     -5608.1925      2576.9767      42556.269      105.64748    
     27670   807.5719      -5768.6089     -5608.3751      2261.3817      42569.638      105.76381    
[...]
     48200   606.36797     -5804.1061     -5683.794       689.2405       44586.168      175.92693    
     48210   601.44395     -5803.9614     -5684.6263      575.17816      44610.746      176.12576    
     48220   588.371       -5802.1161     -5685.3749      500.96955      44637.835      176.31012    
     48230   581.97105     -5801.4565     -5685.9852      340.71649      44666.963      176.47248    
     48240   589.41456     -5803.4022     -5686.4539     -55.024063      44697.302      176.61573    
     48250   592.90587     -5804.4569     -5686.8159     -372.59058      44727.124      176.7489     
     48260   586.42442     -5803.4487     -5687.0937     -411.47348      44755.042      176.8602     
     48270   584.01283     -5803.1631     -5687.2866     -301.27698      44780.825      176.94188    
     48280   590.14596     -5804.4968     -5687.4034     -181.21561      44804.939      177.00877    
     48290   592.66046     -5805.0652     -5687.4729      55.074958      44828.026      177.07632    
     48300   590.75049     -5804.7213     -5687.508       272.7674       44851.149      177.15674    
     48310   588.55842     -5804.2892     -5687.5108      466.61313      44875.352      177.25136    
     48320   585.95548     -5803.7329     -5687.471       507.52047      44901.486      177.3534     
     48330   595.20737     -5805.4823     -5687.3846      291.56314      44929.684      177.45578    
     48340   603.79274     -5807.083      -5687.2819      51.575759      44959.01       177.55146    
     48350   605.82444     -5807.3932     -5687.1889     -109.91352      44988.367      177.63601    
     48360   608.12949     -5807.7795     -5687.1179     -196.5446       45016.991      177.70966    
     48370   609.89566     -5808.0897     -5687.0777     -354.09522      45044.363      177.77838    
     48380   604.46372     -5807.0068     -5687.0726     -424.62739      45069.867      177.85601    
     48390   604.51654     -5807.0281     -5687.0833     -567.48355      45093.108      177.94407    
     48400   613.91297     -5808.928      -5687.1189     -796.44886      45113.419      178.02916    
     48410   616.2687      -5809.4802     -5687.2037     -879.93237      45129.831      178.10118    
     48420   609.86929     -5808.3666     -5687.3598     -837.9734       45141.973      178.16106    
     48430   607.57571     -5808.1187     -5687.5669     -872.52246      45149.958      178.20755    
     48440   611.65884     -5809.1865     -5687.8246     -1039.3607      45153.625      178.23058    
     48450   611.37003     -5809.4583     -5688.1537     -1190.1297      45152.295      178.21727    
     48460   596.69747     -5806.9336     -5688.5403     -1163.8672      45145.403      178.17409    
     48470   588.38257     -5805.687      -5688.9435     -1212.2305      45132.943      178.11457    
     48480   580.75125     -5804.5551     -5689.3257     -1221.9529      45114.785      178.05071    
     48490   575.62724     -5803.8713     -5689.6586     -1158.8923      45090.96       177.98429    
     48500   575.46283     -5804.1046     -5689.9245     -1073.3608      45061.791      177.89514    
     48510   576.76431     -5804.5613     -5690.123      -959.93434      45027.738      177.76371    
     48520   577.45908     -5804.822      -5690.2459     -786.81575      44989.437      177.59283    
     48530   581.98111     -5805.7632     -5690.2898     -646.52968      44947.677      177.40654    
     48540   587.06381     -5806.7406     -5690.2587     -458.12294      44903.192      177.23329    
     48550   592.53148     -5807.722      -5690.1553     -324.37414      44856.884      177.08219    
     48560   600.78437     -5809.1979     -5689.9937     -256.66745      44809.412      176.93818    
     48570   604.70348     -5809.7695     -5689.7877     -208.16439      44761.127      176.79722    
     48580   602.48298     -5809.0891     -5689.5479     -77.887378      44712.372      176.6667     
     48590   606.31859     -5809.571      -5689.2688     -85.715812      44663.656      176.53598    
     48600   603.62191     -5808.7141     -5688.9469     -31.842236      44615.078      176.39644    
     48610   601.28965     -5807.8872     -5688.5827      159.82288      44566.953      176.25835    
     48620   598.58595     -5806.9237     -5688.1557      505.43479      44520.179      176.13381    
     48630   599.2771      -5806.5641     -5687.6589      760.99797      44476.21       176.0244     
     48640   607.54794     -5807.6484     -5687.1022      765.07589      44436.161      175.91567    
     48650   628.87497     -5811.3113     -5686.5335      461.38936      44399.992      175.78405    
     48660   637.99728     -5812.6267     -5686.0389      199.4009       44366.398      175.61862    
     48670   627.32688     -5810.1445     -5685.6739      216.28635      44334.242      175.43798    
     48680   628.33759     -5810.1028     -5685.4316      193.30926      44303.451      175.27477    
     48690   629.02856     -5810.1046     -5685.2963      163.51326      44273.879      175.14363    
     48700   617.04891     -5807.7004     -5685.2691      429.81332      44245.495      175.03476    
     48710   599.95309     -5804.3394     -5685.3001      839.85712      44219.488      174.93955    
     48720   603.49905     -5805.0886     -5685.3458      875.08389      44197.447      174.85879    
     48730   614.29461     -5807.3068     -5685.4219      690.45744      44179.529      174.78146    
     48740   612.03311     -5806.9922     -5685.5561      684.75283      44165.044      174.69826    
     48750   617.09512     -5808.2025     -5685.762       639.07         44153.805      174.60871    
     48760   624.93308     -5810.0544     -5686.0588      496.15025      44145.557      174.51891    
     48770   617.03766     -5808.8917     -5686.4626      518.30191      44139.745      174.44307    
     48780   613.03328     -5808.5977     -5686.9631      405.21833      44136.282      174.39777    
     48790   610.686       -5808.7097     -5687.5409      317.40855      44134.728      174.3899     
     48800   598.28158     -5806.8772     -5688.1696      515.91788      44134.787      174.42161    
     48810   584.42717     -5804.7341     -5688.7754      839.61136      44137.287      174.49193    
     48820   590.04557     -5806.3971     -5689.3236      850.13779      44143.444      174.59288    
     48830   606.90664     -5810.2577     -5689.8387      597.32474      44153.306      174.71434    
     48840   614.86822     -5812.3667     -5690.368       486.32496      44165.89       174.82725    
     48850   613.71452     -5812.6985     -5690.9287      540.42155      44180.686      174.90436    
     48860   608.44199     -5812.2279     -5691.5043      563.57859      44197.803      174.95359    
     48870   606.50405     -5812.4008     -5692.0617      471.50555      44217.322      175.00166    
     48880   606.89005     -5813.0101     -5692.5945      289.53265      44238.841      175.06631    
     48890   601.13747     -5812.3627     -5693.0884      112.46179      44261.515      175.154      
     48900   591.50846     -5810.8861     -5693.5224      52.527842      44284.602      175.25207    
     48910   579.73197     -5808.887      -5693.8598      34.064885      44307.804      175.3404     
     48920   581.32583     -5809.4297     -5694.0863     -94.812408      44330.968      175.40416    
     48930   590.13312     -5811.3149     -5694.2241     -279.13424      44353.49       175.4385     
     48940   590.08735     -5811.3845     -5694.3027     -160.83871      44374.702      175.45419    
     48950   587.78243     -5810.9619     -5694.3375      96.273856      44395.093      175.46885    
     48960   593.89945     -5812.1722     -5694.3341      60.112404      44415.667      175.49295    
     48970   594.4255      -5812.2458     -5694.3033      68.114632      44436.438      175.53484    
     48980   584.92699     -5810.3057     -5694.2478      207.40437      44457.454      175.60269    
     48990   583.97519     -5810.0182     -5694.1491      200.24153      44479.249      175.69256    
     49000   593.25038     -5811.7101     -5694.0007      4.0597961      44501.767      175.78433    
     49010   590.78702     -5811.0385     -5693.8178      23.629061      44524.262      175.85418    
     49020   586.33418     -5809.946      -5693.6089      75.674713      44546.736      175.9069     
     49030   599.81153     -5812.3781     -5693.3669     -57.874613      44569.397      175.96608    
     49040   602.67928     -5812.6981     -5693.1179     -75.934848      44591.728      176.04326    
     49050   589.38133     -5809.8201     -5692.8784      125.37651      44613.696      176.14816    
     49060   582.02454     -5808.0989     -5692.6169      198.94776      44636.11       176.28147    
     49070   587.53346     -5808.8705     -5692.2954      4.1073879      44659.222      176.43156    
     49080   592.80833     -5809.5465     -5691.9248     -269.92224      44682.218      176.59108    
     49090   582.53063     -5807.109      -5691.5266     -389.80382      44703.899      176.75008    
     49100   570.03909     -5804.1804     -5691.0765     -363.06898      44723.722      176.89132    
     49110   577.09017     -5805.0472     -5690.5443     -465.58396      44741.677      177.00732    
     49120   588.63789     -5806.7406     -5689.9464     -513.37577      44757.375      177.11394    
     49130   591.47356     -5806.7029     -5689.3461     -488.70622      44770.62       177.23177    
     49140   597.53352     -5807.3427     -5688.7834     -586.2289       44781.444      177.3624     
     49150   595.29233     -5806.3971     -5688.2826     -561.27731      44789.523      177.48376    
     49160   590.26139     -5804.9645     -5687.8482     -409.64613      44794.989      177.5767     
     49170   593.98327     -5805.3153     -5687.4605     -305.59953      44798.478      177.63793    
     49180   600.75527     -5806.3213     -5687.1228     -332.30929      44800.446      177.67531    
     49190   601.69701     -5806.2345     -5686.8492     -327.35724      44800.867      177.70489    
     49200   594.39396     -5804.5646     -5686.6283     -265.91067      44799.787      177.73272    
     49210   595.96013     -5804.6777     -5686.4307     -303.01613      44797.425      177.751      
     49220   601.88424     -5805.6779     -5686.2554     -362.48329      44793.654      177.75399    
     49230   603.67865     -5805.8873     -5686.1088     -412.89838      44788.17       177.75387    
     49240   606.37018     -5806.3092     -5685.9967     -439.16698      44780.727      177.76733    
     49250   602.65603     -5805.4922     -5685.9166     -408.23851      44771.259      177.80458    
     49260   600.32351     -5804.97       -5685.8572     -440.97178      44759.893      177.85802    
     49270   597.06163     -5804.2672     -5685.8016     -479.69937      44746.479      177.89957    
     49280   599.47083     -5804.688      -5685.7444     -553.54126      44730.823      177.91534    
     49290   598.41811     -5804.417      -5685.6823     -514.56841      44712.677      177.89817    
     49300   591.72991     -5803.0129     -5685.6053     -417.69246      44692.171      177.83977    
     49310   598.90505     -5804.3364     -5685.5051     -571.92831      44669.58       177.74693    
     49320   606.88099     -5805.8159     -5685.402      -649.21832      44644.397      177.63998    
     49330   612.89784     -5806.9384     -5685.3306     -627.25194      44616.256      177.54678    
     49340   612.1946      -5806.7699     -5685.3017     -384.61144      44585.332      177.46751    
     49350   611.20831     -5806.5952     -5685.3227     -111.37582      44552.702      177.37689    
     49360   606.86272     -5805.7877     -5685.3775      166.43934      44519.677      177.25448    
     49370   604.69716     -5805.4435     -5685.4629      291.29192      44487.453      177.10658    
     49380   602.66496     -5805.1516     -5685.5743      292.51006      44456.592      176.94588    
     49390   598.50943     -5804.4489     -5685CHGNet v0.3.0 initialized with 412,525 parameters
CHGNet will run on cuda:0
CHGNet will run on cuda:0
.696       313.63871      44427.186      176.77319    
     49400   606.82923     -5806.2404     -5685.8367      210.26488      44399.238      176.58442    
     49410   610.73238     -5807.1903     -5686.0123      165.63893      44372.352      176.39083    
     49420   606.74048     -5806.634      -5686.248       270.91489      44346.357      176.21136    
     49430   597.73532     -5805.1293     -5686.53        455.909        44321.673      176.05967    
     49440   594.93975     -5804.8748     -5686.8302      561.9732       44299.073      175.93828    
     49450   595.23629     -5805.2476     -5687.1442      575.96154      44279.05       175.84367    
     49460   594.66128     -5805.4596     -5687.4703      494.59511      44261.652      175.77147    
     49470   602.31122     -5807.332      -5687.8249      249.90183      44246.471      175.70951    
     49480   603.18833     -5807.9103     -5688.2291      140.11503      44232.554      175.65799    
     49490   598.93146     -5807.5239     -5688.6873      159.3162       44219.388      175.60987    
     49500   598.34481     -5807.9114     -5689.1912      136.71772      44206.917      175.55234    
     49510   602.66893     -5809.325      -5689.7468      61.292533      44195.024      175.49108    
     49520   597.03628     -5808.809      -5690.3484      143.37441      44183.492      175.42924    
     49530   595.52102     -5809.1331     -5690.9732      214.24414      44172.586      175.35735    
     49540   603.446       -5811.3501     -5691.6178      163.64896      44162.574      175.26661    
     49550   606.19358     -5812.5663     -5692.2888      72.287677      44153.257      175.16137    
     49560   600.03744     -5812.0258     -5692.9697      105.7628       44144.298      175.05575    
     49570   594.14089     -5811.512      -5693.6259      191.76487      44135.79       174.95889    
     49580   582.82667     -5809.8486     -5694.2075      565.69946      44128.265      174.87227    
     49590   580.76675     -5809.905      -5694.6726      849.08176      44123.308      174.79363    
     49600   588.01717     -5811.7064     -5695.0354      805.74312      44122.09       174.7356     
     49610   577.75324     -5809.9354     -5695.3009      876.40882      44124.635      174.7064     
     49620   567.31251     -5808.0135     -5695.4506      996.84018      44131.282      174.70357    
     49630   571.30993     -5808.8394     -5695.4833      882.19697      44142.422      174.72615    
     49640   574.42595     -5809.3821     -5695.4077      775.22845      44157.639      174.76897    
     49650   577.91671     -5809.92       -5695.2531      621.8161       44176.423      174.82784    
     49660   580.78984     -5810.2698     -5695.0328      475.19701      44198.132      174.88488    
     49670   583.09539     -5810.4558     -5694.7613      342.02763      44222.079      174.93394    
     49680   586.70958     -5810.8663     -5694.4548      235.25138      44247.694      174.97676    
     49690   590.1606      -5811.2267     -5694.1304      224.68491      44274.522      175.00812    
     49700   586.22208     -5810.1193     -5693.8044      310.07672      44302.48       175.03336    
     49710   580.55504     -5808.6584     -5693.468       354.01012      44331.886      175.05996    
     49720   576.96874     -5807.5865     -5693.1077      219.34722      44362.897      175.09464    
     49730   571.45945     -5806.0975     -5692.7118      60.022576      44395.018      175.14369    
     49740   563.72506     -5804.1167     -5692.2656     -77.856573      44427.497      175.21862    
     49750   574.11175     -5805.6735     -5691.7615     -448.15176      44459.526      175.3306     
     49760   586.32571     -5807.5583     -5691.2229     -792.62859      44489.552      175.46761    
     49770   585.75486     -5806.9263     -5690.7041     -854.93331      44516.071      175.59916    
     49780   589.16648     -5807.1248     -5690.2257     -932.43379      44538.557      175.6947     
     49790   595.97017     -5808.0344     -5689.7854     -918.25982      44556.735      175.73676    
     49800   601.05036     -5808.6584     -5689.4014     -796.61541      44570.662      175.73191    
     49810   599.14571     -5807.9491     -5689.07       -573.21566      44580.93       175.6987     
     49820   595.53771     -5806.9424     -5688.7792     -329.99191      44588.519      175.65287    
     49830   599.19852     -5807.4005     -5688.5109     -256.99944      44594.451      175.61562    
     49840   604.93327     -5808.2893     -5688.2619     -352.87572      44599.101      175.60406    
     49850   604.13519     -5807.9136     -5688.0445     -488.36954      44602.062      175.61736    
     49860   594.92097     -5805.8965     -5687.8556     -466.92695      44602.799      175.63842    
     49870   586.86999     -5804.1031     -5687.6597     -370.5148       44601.343      175.64497    
     49880   583.45496     -5803.1917     -5687.4258     -304.19125      44598.108      175.62323    
     49890   593.30474     -5804.8656     -5687.1454     -456.83514      44593.363      175.56744    
     49900   602.7033      -5806.4238     -5686.8389     -578.57666      44586.498      175.48019    
     49910   603.78348     -5806.3455     -5686.5462     -528.07284      44576.971      175.38161    
     49920   605.3277      -5806.3784     -5686.2727     -332.89926      44565.051      175.29663    
     49930   610.78721     -5807.2163     -5686.0274     -249.51198      44551.511      175.24201    
     49940   613.66291     -5807.5781     -5685.8186     -336.2884       44536.731      175.21802    
     49950   609.61557     -5806.6238     -5685.6673     -427.08229      44520.392      175.20825    
     49960   599.87938     -5804.5756     -5685.5509     -428.08378      44502.128      175.17998    
     49970   595.57627     -5803.6099     -5685.439      -477.91117      44481.812      175.11267    
     49980   597.12374     -5803.7904     -5685.3125     -423.85753      44459.263      175.00658    
     49990   590.13351     -5802.2549     -5685.1639     -154.98371      44434.751      174.87167    
     50000   584.92389     -5801.0284     -5684.9712      108.94628      44409.415      174.73815    
Loop time of 8683.59 on 1 procs for 20000 steps with 1536 atoms

Performance: 0.199 ns/day, 120.605 hours/ns, 2.303 timesteps/s, 3.538 katom-step/s
121.2% CPU use with 1 MPI tasks x 1 OpenMP threads

MPI task timing breakdown:
Section |  min time  |  avg time  |  max time  |%varavg| %total
---------------------------------------------------------------
Pair    | 8607.1     | 8607.1     | 8607.1     |   0.0 | 99.12
Bond    | 0.007643   | 0.007643   | 0.007643   |   0.0 |  0.00
Neigh   | 6.1216     | 6.1216     | 6.1216     |   0.0 |  0.07
Comm    | 0.72955    | 0.72955    | 0.72955    |   0.0 |  0.01
Output  | 67.93      | 67.93      | 67.93      |   0.0 |  0.78
Modify  | 1.5261     | 1.5261     | 1.5261     |   0.0 |  0.02
Other   |            | 0.1749     |            |       |  0.00

Nlocal:           1536 ave        1536 max        1536 min
Histogram: 1 0 0 0 0 0 0 0 0 0
Nghost:           2635 ave        2635 max        2635 min
Histogram: 1 0 0 0 0 0 0 0 0 0
Neighs:              0 ave           0 max           0 min
Histogram: 1 0 0 0 0 0 0 0 0 0
FullNghs:        53962 ave       53962 max       53962 min
Histogram: 1 0 0 0 0 0 0 0 0 0

Total # of neighbors = 53962
Ave neighs/atom = 35.13151
Ave special neighs/atom = 0
Neighbor list builds = 2000
Dangerous builds = 2000
System init for write_data ...
System init for write_restart ...
Total wall time: 3:40:32
