LAMMPS data file via write_data, version 2 Aug 2023, timestep = 50000, units = metal

1536 atoms
3 atom types

-0.7095550718519252 22.24603170615492 xlo xhi
-1.2966439516084556 22.833120585911274 ylo yhi
-7.782286710897786 72.39171661380942 zlo zhi

Masses

1 35.45
2 39.0983
3 6.94

Atoms # full

1153 0 2 1 0.6942743391226665 1.049234134259033 -6.9562342588800306 1 0 0
4 0 3 1 4.778453535241972 0.45813657326223933 -5.063890404760286 0 0 0
392 0 1 -1 6.721037414929926 0.612682993497004 -6.555128778457981 0 0 0
487 0 1 -1 10.71722557391481 1.887866346219901 -7.144060285884751 0 0 0
769 0 2 1 14.006889247494401 0.7018710877286203 -7.073332925648399 0 0 0
1059 0 3 1 17.72424789474826 2.1334197513270134 -6.29552223182969 0 1 0
574 0 1 -1 18.372361994284645 -0.2699633522750189 -4.9915738040466175 -1 0 1
101 0 1 -1 3.464590943454729 3.4496461112611936 -6.165021669822043 0 0 0
491 0 3 1 5.568803585494043 4.732812318298456 -5.443779054780444 0 0 0
489 0 3 1 8.469701732405168 2.1736868507683313 -6.484100395725704 0 0 0
485 0 1 -1 7.236978157208734 4.4353724545436535 -6.891841846083794 0 0 0
1054 0 1 -1 11.774226165666192 4.398594852489728 -4.593478961446447 0 0 1
1255 0 1 -1 15.874159518236963 2.638781319483642 -4.615865536829238 0 0 0
6 0 1 -1 19.284652015713156 3.448480184450996 -5.621455368578808 -1 0 0
657 0 3 1 2.0512575600875618 5.655199949623539 -6.063812212650926 0 0 1
199 0 1 -1 4.848330873489568 7.204742355412478 -5.797797285971678 0 0 0
776 0 1 -1 8.957818569749655 8.510987876347913 -6.9058948465397485 0 0 0
868 0 2 1 13.940063481782861 8.565067797571247 -5.33595181952417 0 0 0
193 0 3 1 21.423154754403015 7.060116540064776 -4.69081032711539 -1 0 0
1254 0 1 -1 21.141607721456857 7.396452615581028 -7.5103035990648115 0 0 0
1535 0 1 -1 2.643860477319817 12.409537790638634 -6.772017771047782 0 0 1
866 0 3 1 7.965933761423816 10.652759531019624 -7.158537862918221 0 0 0
581 0 1 -1 14.879196070715691 11.481515091591765 -7.151225571582662 0 0 0
1251 0 3 1 17.4750269936876 10.436505285520177 -5.5902822987883685 0 0 0
1349 0 1 -1 20.51816248396794 9.589156451300619 -4.984251160207762 0 0 0
178 0 3 1 20.58522359915976 9.92699456671292 -7.525241426691482 -1 -1 1
194 0 3 1 1.0460506630887005 14.23623772932898 -6.0573000312615 0 0 0
588 0 3 1 3.982069789947972 14.332701723839545 -6.5431477575919486 0 0 0
301 0 1 -1 4.746968293604179 15.297045965709952 -4.589986628784394 0 0 0
496 0 1 -1 7.988982405641508 12.499790365200758 -5.846079053157612 0 0 0
484 0 2 1 11.21532764371354 13.11295309242238 -6.503944126419153 0 0 0
1447 0 1 -1 13.929141562905972 15.12853825089989 -7.2793778768839825 0 0 0
90 0 3 1 15.460461851482718 13.265880897152234 -5.7340157035956105 -1 0 1
1351 0 1 -1 17.060940726169115 14.55181716524877 -6.175825473175576 0 0 0
208 0 1 -1 2.300733712366239 16.110781874799446 -6.959701339834743 0 0 0
680 0 1 -1 5.1356909744798465 19.152961750780758 -5.24779127723051 0 0 0
659 0 3 1 8.34337398134755 18.70039535880354 -5.762520832124144 0 0 1
766 0 1 -1 9.983932702236741 17.21450809334153 -6.528589898942315 0 0 1
1028 0 3 1 11.201213227875424 19.276455040729346 -6.698305126017709 0 0 1
969 0 3 1 15.045279231577483 17.11391341774646 -7.0126385630704196 0 0 0
1446 0 1 -1 13.585119644385188 19.09910993995725 -6.301356121895987 0 0 0
9 0 2 1 19.223670301229348 16.12604580443693 -4.670273161038633 -1 -1 0
200 0 1 -1 19.89503737967555 17.922531674561196 -7.397220487907546 -1 0 0
3 0 3 1 3.34029738732844 20.751254598235242 -4.765773971037614 0 -1 0
958 0 1 -1 9.597428953181124 20.738643051729152 -6.143708067584653 0 -1 1
1160 0 1 -1 14.900791409719632 21.974317184495167 -5.886456814785773 0 -1 0
1442 0 3 1 17.102886357576836 22.00678597816127 -5.327966445656486 0 0 0
12 0 2 1 0.6061884832683697 -0.14904848522118197 -2.630601140233069 0 0 0
5 0 1 -1 3.0214269899412276 -0.8679881772518352 -4.539727855489501 0 0 0
109 0 1 -1 5.161703934786867 1.6484681906486718 -3.1029403546998386 0 0 0
493 0 1 -1 8.796174268653006 1.869313349681946 -4.114364926703038 0 0 0
481 0 3 1 11.00755398379418 1.9565432890429464 -4.46654692998499 0 0 0
784 0 1 -1 12.660926865533058 0.48384832197704686 -3.9347693289088177 0 0 0
867 0 3 1 17.28723954163482 0.9604626841973389 -3.179864838486135 0 0 0
100 0 3 1 20.44714766866118 1.9147846749180975 -4.438021302310776 -1 0 0
774 0 1 -1 19.353350450622905 1.9714294343040422 -2.0587545321306884 0 0 0
296 0 1 -1 -0.284232426877305 2.195503759154959 -4.532811703691095 0 1 0
16 0 1 -1 3.269536380190355 5.074920777722503 -1.872009676388899 0 0 0
203 0 3 1 3.301193270703874 3.8940081007917993 -3.7035327095615136 0 0 0
102 0 1 -1 6.751154093011212 5.2977822804982555 -3.358653803068078 0 0 0
393 0 3 1 7.155380212699313 2.7106509012670266 -2.651224781144757 0 0 0
1250 0 3 1 13.779270370649593 3.1580248666867634 -3.523630303492782 0 0 0
865 0 2 1 17.487300939619182 5.434931059584624 -3.9285496957859594 0 0 0
99 0 3 1 22.199363522024157 3.9740553214970173 -2.922475017711779 -1 0 0
103 0 1 -1 20.147564296509344 5.491485154735829 -3.3024306739050546 -1 0 0
104 0 1 -1 0.5350026042387275 5.986686087800734 -4.4354301667664275 0 0 0
681 0 3 1 0.9983483664561386 5.9861371716001885 -1.8636470153254958 0 0 0
207 0 1 -1 0.9468608943613315 8.461130893220444 -1.743245219547286 0 0 0
201 0 3 1 5.434517398464584 7.092101630870539 -3.515959102230716 0 0 0
482 0 2 1 9.540026210088 5.7577450089044495 -3.086435200778177 0 0 0
486 0 1 -1 11.461741297954134 8.138322753108948 -1.8401286085794553 0 0 0
1439 0 1 -1 16.6151463409608 8.430202808847767 -4.122958806464835 0 0 1
1252 0 2 1 1.972419190400791 10.239437680315163 -3.993706359913974 1 0 0
688 0 1 -1 4.034430786097789 12.014544882431407 -2.200095519991681 0 0 0
501 0 1 -1 7.105726370642903 9.202762345594982 -2.3864552488636326 0 0 0
872 0 1 -1 12.403848641222574 11.27659242039763 -4.491788055946445 0 0 0
1058 0 3 1 14.292729653234252 12.007371413241247 -2.9715963811437476 0 0 0
976 0 1 -1 16.360942043912203 11.622604755534653 -3.80183018627186 0 0 0
1449 0 3 1 16.840024149603536 9.917629182767536 -2.4152277779210465 0 0 0
972 0 3 1 20.02978504926783 10.617972801571575 -2.869746727748189 0 0 0
1453 0 1 -1 0.941733361856365 13.274198423093043 -3.99702092573886 1 0 0
689 0 3 1 3.165987488469733 13.959710460719913 -3.1476518681057417 0 0 0
195 0 2 1 7.4679407781862945 14.064587642841772 -3.004886094120522 0 0 0
1063 0 1 -1 10.824525573190932 14.939913666718084 -3.8575627716755068 0 0 0
578 0 3 1 11.365860766646286 12.641767182510828 -2.7774807729180493 0 0 0
580 0 3 1 11.934260940713326 15.828972391882477 -1.5139481559121641 0 0 0
1069 0 1 -1 13.497550194690612 13.83127447548842 -1.8924331073324634 0 0 0
1350 0 1 -1 19.956419367001892 12.849317878469346 -2.9604270009810953 0 0 0
1443 0 3 1 21.906556717034128 14.063922324604222 -3.016719782658945 0 0 0
289 0 3 1 0.20326073021116564 19.25362535709514 -2.5000394461177198 0 0 0
294 0 1 -1 2.197449716350623 19.25771890033296 -3.4921913119790826 0 0 0
297 0 3 1 0.12333176839232884 16.386276635921604 -1.4047109393417188 0 0 0
299 0 3 1 3.7586365781870184 17.04041788389433 -4.160289861913731 0 0 0
13 0 1 -1 2.8146998984891054 15.976738701177489 -1.9673274620027739 0 -1 0
1064 0 1 -1 8.599471809923324 18.87681474723516 -3.435191787857991 0 0 0
673 0 3 1 6.148057343439084 18.59560203445196 -2.9310965252010055 0 0 0
679 0 1 -1 6.467133208735265 16.753321495035042 -1.5640272562170718 0 0 0
1155 0 3 1 10.177663565137188 17.12673510837718 -3.992055258062941 0 -1 0
389 0 1 -1 12.093149038134932 18.167016996003262 -1.5150015343555774 0 -1 0
295 0 1 -1 21.540746577210108 16.554724919150164 -3.242854530614017 -1 0 0
14 0 1 -1 5.591138109674741 20.59313729417533 -1.5480824046456076 0 -1 0
385 0 2 1 7.709450633586018 22.096219109147263 -3.569904900873037 0 -1 0
390 0 1 -1 10.437261633518315 22.238695568160516 -1.7311682615710025 0 -1 0
770 0 3 1 12.509916598738544 22.451506916140335 -3.565862425881509 0 -1 0
396 0 3 1 14.942825449546364 20.314915495137228 -4.3408788095085065 0 -1 0
871 0 1 -1 13.987846037377617 20.856998288624613 -2.3945586884120136 0 -1 0
1157 0 1 -1 17.591833557499825 20.14227632194409 -4.338163209024736 0 -1 0
1167 0 1 -1 21.02304644263355 22.00003141342171 -2.426139825920183 0 -1 0
1353 0 3 1 19.136698952412146 20.211046165966756 -2.5399811815018216 0 0 0
1 0 2 1 3.864119631860347 -0.02666672890661337 -1.2272559553991966 0 0 0
408 0 1 -1 6.027787930237698 -0.8544627000396727 1.2728665711926688 0 0 0
483 0 2 1 9.38398151674256 0.28910170563654347 0.6108843405676936 0 0 0
778 0 2 1 13.326113928284226 0.5152596207447426 0.18916647503566963 0 0 0
781 0 1 -1 16.357827626351472 0.42308464391104894 -1.1710489697396493 0 0 0
1161 0 3 1 18.992663684017757 0.052738602132492485 -0.8969559951934123 0 0 0
1261 0 1 -1 21.217132083225486 0.13676511076410391 0.4620085773213294 0 0 0
1253 0 1 -1 0.1197170901392558 3.7115271154101217 -0.6357393084730223 1 0 0
113 0 3 1 1.9892615335401849 2.8690326601880383 0.684952242166359 0 0 0
111 0 1 -1 4.47739550895245 3.3778280991960594 1.7606495532635495 0 0 0
490 0 2 1 5.734534189086078 5.515409014567758 0.14057636709079802 0 0 0
400 0 1 -1 7.6192375848192135 2.453132945630428 -0.5415882996715498 0 0 0
386 0 3 1 6.3352423103238165 2.216789140045499 1.452493482231386 0 0 0
873 0 2 1 11.273684242556012 5.3255820620339 0.7339018731231004 0 0 0
870 0 1 -1 13.700198964289234 3.495217585896105 -1.0322965103825457 0 0 0
881 0 3 1 16.0367881920872 2.6718798239763375 -0.48184146250573967 0 0 0
1264 0 1 -1 17.244663210418643 4.647839416489626 -0.3988297451983671 0 0 0
1168 0 1 -1 15.754098157375518 2.21631212798965 1.7365483359616594 0 0 0
1164 0 3 1 20.41499249027391 2.543950603893823 -0.1620228188589703 0 0 0
202 0 3 1 1.6698846540083965 7.7459078284757314 0.5583082802954706 0 0 0
205 0 1 -1 3.9685678919809977 8.096060496115541 -0.8339814692415333 0 0 0
874 0 3 1 7.626547834991916 8.51305708029167 1.6038280486005547 0 0 0
597 0 1 -1 8.389404310033598 6.052011643205322 1.5534555934609333 0 0 0
1258 0 2 1 15.324309264999426 8.164163440556532 1.424238942471236 0 0 0
112 0 1 -1 22.108592998329556 7.650011016151685 0.9327454391960011 -1 0 0
1260 0 2 1 19.659627690564392 7.059130050555217 -0.2150840899928248 0 0 0
209 0 3 1 -0.38907334373252356 9.811383870649054 0.012279595611751404 0 0 0
303 0 1 -1 1.450788201024646 11.159372295934249 0.30317706941877276 0 0 0
586 0 3 1 5.384612490689935 9.636468842940415 -1.0591258948222544 0 0 0
587 0 3 1 3.395303694624965 12.219777147680677 0.15678579084125488 0 0 0
291 0 3 1 8.919995488590084 9.771483379310563 -1.3525553272350237 0 0 0
1065 0 3 1 11.591394838790256 9.750245297243554 -0.2526148879131904 0 0 0
592 0 1 -1 9.732985138098533 9.411762610013058 1.1888156353190968 0 0 0
589 0 1 -1 10.401836129961017 11.661969919060574 -1.0170105362934594 0 0 0
880 0 1 -1 14.482264974232931 10.190342803682007 -1.1956850219664714 0 0 0
973 0 1 -1 18.735216837334377 9.611005847071912 -1.2319734638361908 0 0 0
1346 0 3 1 18.778492903223906 10.848892214236855 0.9298524126189474 0 0 0
213 0 1 -1 21.08252635669445 11.131653049321246 1.2803735272730066 -1 0 0
304 0 1 -1 -0.6503898289137753 14.48304390911438 -0.41934785554048837 0 0 0
582 0 1 -1 7.212875781683588 13.113118412505877 0.4741170000330488 0 0 0
404 0 3 1 6.6721588179864355 15.42083580813124 0.502530743931521 0 -1 0
683 0 3 1 9.70091345290942 13.451950994665713 0.5098460330171637 0 0 0
1072 0 1 -1 9.462248255113016 15.51412383518673 -0.3112308924986049 0 0 0
1067 0 2 1 15.649596417253113 13.286850257062373 0.4625249808746048 0 0 0
1456 0 1 -1 17.428743551206317 15.434423380212063 -1.1471241509603294 0 0 0
1360 0 1 -1 18.473566182376537 13.373264888906109 1.3231415652437182 0 0 0
1451 0 3 1 19.275382362370955 13.965469191183846 -0.7420445979294943 0 0 0
298 0 3 1 -0.38359066988788265 18.033542674731184 1.7583762198319892 0 0 0
7 0 1 -1 -0.20057122561533092 18.417197392342324 -0.5599835979833001 0 -1 0
676 0 3 1 8.289397914537451 17.759410945164472 -0.8821154999849705 0 0 0
682 0 2 1 10.293102834705286 17.822257912000065 1.7252719282670022 0 0 0
777 0 2 1 15.166186365133417 18.319730248648206 -0.7164410054477761 0 -1 0
779 0 3 1 18.321442080379477 16.973507949869646 0.08250999320992314 0 -1 0
1165 0 1 -1 18.33724462745223 19.350915649238335 -0.5909189324684432 0 -1 0
391 0 1 -1 1.733852529542729 21.515852040100217 -1.1498287930077007 0 -1 0
300 0 3 1 3.2000920449855044 19.864566527492293 -1.2746867635102967 0 0 0
107 0 3 1 6.747953426664112 21.092184547941887 0.5410910881868176 0 -1 0
397 0 1 -1 8.435894954720158 19.731376202241673 0.03564237189240327 0 -1 0
675 0 3 1 12.204805251450317 20.770606801930292 -0.9861952774020768 0 0 0
398 0 1 -1 11.889771956785863 20.295278322248134 1.313809046164737 0 -1 0
10 0 2 1 21.132913261330827 21.059911578483497 0.6802003934529175 -1 -1 0
1269 0 1 -1 2.166532309786473 0.3948662266212801 2.183843725387584 1 0 0
105 0 3 1 -0.15677961732080137 0.232203668566767 2.075074355614756 0 0 0
792 0 1 -1 9.637815339579381 -0.8915173633513022 3.314985700196406 0 0 0
780 0 3 1 10.270643002888567 2.069278308538659 4.388705291407414 0 0 0
2 0 3 1 16.36275033280782 0.16685971523866505 2.7769553310128465 -1 0 0
1176 0 1 -1 17.29434085416755 0.49638413065759424 4.887150754642105 0 0 0
23 0 1 -1 21.62088799751372 0.05225225931138677 4.1077819518023695 -1 0 0
120 0 1 -1 0.9718996448601414 4.115977425405232 2.546657019875198 0 0 0
402 0 3 1 3.159986180710837 2.593646569987619 3.2913258973624746 0 0 0
108 0 2 1 4.476530841222673 5.484891966594564 4.386671550485369 0 0 0
495 0 1 -1 8.069454157573553 2.658741012633085 2.997535886113468 0 0 0
877 0 1 -1 11.380004680362477 2.393401511536787 2.258924211566754 0 0 0
788 0 2 1 13.916246550107182 3.032356203944788 4.150272050002805 0 0 0
1257 0 3 1 17.227648894671816 4.1631849136588235 2.1476104329571246 0 0 0
1262 0 1 -1 19.762905101102312 3.5858095678954456 1.8729754734187605 0 0 0
1268 0 3 1 21.753863343085897 3.1226962961605826 3.2311185547933476 0 0 0
1355 0 3 1 0.1855799486864277 6.681768552853761 3.2137225755102943 1 0 0
110 0 1 -1 2.450526866849504 7.9604434560080275 2.778475525085751 0 0 0
494 0 1 -1 6.036425926352193 8.158038890234865 3.7242513972097075 0 0 0
878 0 1 -1 13.232918125236582 5.936311173800166 2.899074689429 0 0 0
1361 0 3 1 12.819449325972297 7.84103584828296 3.9828695310461324 0 0 0
1263 0 1 -1 17.04133005701999 6.079805978525287 3.4685243501525846 0 0 0
206 0 1 -1 1.13223257799066 11.288278781545598 4.316116523467583 0 0 0
1356 0 3 1 2.5770429044657375 10.239511313188787 2.771936943687063 1 0 0
591 0 1 -1 4.859398712692532 11.446082205224638 2.1375563706550995 0 0 0
585 0 3 1 4.927038702305265 10.628915466397496 4.134655757279635 0 0 0
492 0 3 1 11.126685320698174 9.886600695108626 3.3422695191126888 0 0 0
687 0 1 -1 10.413185227220598 12.344532949314063 2.8458100968621185 0 0 0
1071 0 1 -1 13.225870120096786 9.892215146315813 3.014637507126519 0 0 0
1066 0 3 1 12.71705051021849 12.401040841432055 3.0788031766901582 0 0 0
1357 0 1 -1 18.296334018287475 9.577123910365307 3.0282691001261846 0 0 0
106 0 3 1 20.483290576851118 9.856646580624306 3.4515446983306077 -1 0 0
290 0 2 1 0.42836797115698033 13.267623719309132 2.1497566312744407 0 0 0
693 0 1 -1 4.330168194338318 13.40806800508884 4.908162572615007 0 0 0
674 0 2 1 7.865465099362856 14.312273714803146 3.900723644877802 0 0 0
685 0 1 -1 14.181135001784357 14.594244626106988 2.852285310593503 0 0 0
979 0 3 1 12.551694564922126 15.787270769172942 4.556713687907946 0 0 0
1354 0 2 1 19.207669495049245 15.150681327650517 3.4903792216874123 0 0 0
1366 0 1 -1 21.665395105318183 14.292230070026678 4.711685764788999 0 0 0
1461 0 1 -1 0.565127087919727 16.385992252841266 3.2588892903607505 1 0 0
11 0 2 1 3.8047185447574803 16.520966856309663 4.8751984807459205 0 -1 0
302 0 1 -1 5.901899271853456 16.33778152648531 2.5133962528261566 0 0 0
308 0 3 1 6.417749467776891 18.00881267656431 3.952942299284823 0 0 0
1079 0 1 -1 10.350846303044316 16.412393383063563 4.560758861453515 0 0 0
395 0 3 1 15.664090310737189 16.398403031331295 4.132312218992089 0 -1 0
1455 0 1 -1 16.29047398681852 17.990103464571195 1.890783908838607 0 0 0
1457 0 3 1 18.12120220686281 19.009311307565966 2.170267528960295 0 0 0
15 0 1 -1 20.15366037306945 17.47405883814256 2.0263920283868213 -1 -1 0
17 0 3 1 20.945316010967204 18.72130295097663 4.256304950861127 -1 -1 0
21 0 1 -1 -0.381428590781896 20.05921877823146 3.2227675263877913 0 -1 0
399 0 1 -1 4.829956675113836 20.387185458488997 4.385362408964621 0 -1 0
686 0 1 -1 8.09228416211912 19.840638955543323 3.509686714264763 0 0 0
394 0 3 1 7.13326297430591 21.819795266396387 4.423074208244605 0 -1 0
684 0 3 1 9.860410544545891 21.11840431194202 1.9612788732636783 0 0 0
1076 0 2 1 13.491852679997024 20.515446482245846 3.8771035387587336 0 0 0
1166 0 1 -1 15.743805960083547 22.081822946632812 2.6387931644473834 0 -1 0
1163 0 3 1 17.868124756437496 22.29499313927215 4.305467447533747 0 -1 0
1454 0 1 -1 18.709576793995836 20.214149762585546 3.77949650122007 0 0 0
22 0 1 -1 1.1395095968369435 0.8503555458016319 7.241009168033319 0 0 0
20 0 3 1 3.0351101151943407 0.28774125798086536 5.911879476514715 0 0 0
786 0 2 1 6.553664352518736 1.500962048204192 6.317838283744905 0 0 0
1169 0 3 1 10.97052729616043 -0.5608946103154788 5.526087452739764 0 0 0
789 0 1 -1 10.044216427850992 1.5208468173229108 6.499706773249423 0 0 0
782 0 1 -1 13.324663196352727 0.14419618265959921 5.216781492764037 0 0 0
1162 0 3 1 15.378137205170974 -0.3757484079576592 6.460391398251822 0 0 0
1175 0 1 -1 15.317286681566364 1.19202626891088 8.09390732370355 0 0 0
1450 0 3 1 19.733328104026043 -0.07970833584957537 5.4711585662687146 0 1 0
1181 0 1 -1 20.19511390207019 1.6529248327470696 7.145604900124692 0 0 0
1259 0 3 1 22.150414056760788 1.5822786388986767 6.109417055346089 0 0 0
117 0 1 -1 3.6305004872488613 2.2632417832142573 5.490007232270083 0 0 0
406 0 1 -1 5.890933445009177 4.779605745183067 7.494092277145853 0 0 0
879 0 1 -1 14.632127267202595 4.722699621846231 6.7590027561349135 0 0 0
1367 0 1 -1 17.755281164051205 5.450288435046632 7.841720686325086 0 0 0
1272 0 1 -1 21.40230772786495 3.963437462767563 5.392052864722441 0 0 0
1177 0 3 1 19.649685154558604 3.9183367103594318 7.311296153315707 0 0 0
115 0 3 1 -0.3676395111349678 7.534454296715964 7.043150041773606 0 0 0
504 0 1 -1 1.3535772326026745 6.939023403610179 5.589065977644596 0 0 0
212 0 3 1 0.6759396124258465 8.999226135466522 5.066683416702954 0 0 0
497 0 2 1 8.17504446429692 5.829671029808007 5.1693871529234645 0 0 0
502 0 1 -1 8.297618003696394 7.658501694376733 7.8346425509147615 0 0 0
590 0 1 -1 10.576624575236124 8.346600676439726 5.1300927911640155 0 0 0
970 0 2 1 11.071170507831692 6.503352160030205 7.657088489585362 0 0 0
974 0 1 -1 15.528493915200846 8.600761890943962 5.810218332206324 0 0 0
875 0 3 1 15.910115048560934 6.1363416541898 5.552263718758253 0 0 0
210 0 2 1 18.6620066446325 7.641907570951725 5.4819124609748435 -1 0 0
1359 0 1 -1 21.48414692026855 8.87231726209721 5.146647643949347 0 0 0
1358 0 1 -1 0.19725740764172695 9.967465627937054 7.902301233667931 1 0 0
215 0 1 -1 4.108865118689413 10.253497641177082 6.497915690430062 0 0 0
593 0 2 1 9.945031685888788 10.974537547545369 5.635083472836641 0 0 0
1363 0 3 1 16.801696564451134 10.580411481706518 6.785846385530757 0 0 0
1368 0 1 -1 18.92256888961836 10.843497689785584 7.963019727622633 0 0 0
594 0 3 1 2.1944548233092616 13.002502731395873 5.338969310086323 0 0 0
216 0 1 -1 1.7437617874700986 14.759121495144115 6.69887737834412 0 0 0
692 0 3 1 5.084883932918659 12.652070199234108 7.046750024907491 0 0 0
600 0 1 -1 7.4703325759605335 12.817831438737343 6.738559156610373 0 0 0
885 0 1 -1 12.15048396834671 12.745888876813387 5.715890577188006 0 0 0
305 0 3 1 10.916493793330412 14.60642682545966 7.3718243817938465 0 0 0
1077 0 1 -1 15.762206183255659 12.749835585113667 7.311005175395623 0 0 0
1362 0 3 1 16.989261665988387 14.714383557707954 8.025743598740483 0 0 0
307 0 2 1 22.025323684438987 12.860334503910886 7.529098641146113 -1 0 0
1364 0 3 1 -0.5706061813444789 16.293480228324114 5.530261159863979 1 0 0
405 0 1 -1 4.347137580759698 19.283529399878123 7.387237297707824 0 -1 0
783 0 1 -1 6.383175337408618 16.861909591030745 5.913375856406828 0 -1 0
403 0 3 1 7.490513169606979 17.89309538401246 7.788596488483586 0 -1 0
1070 0 1 -1 14.069276326755551 17.425259508084956 5.199183850915391 0 0 0
596 0 2 1 13.929581545830008 16.783068124768306 8.139959909066814 0 0 0
1464 0 1 -1 17.50765344089963 16.29988291506813 5.679621817021983 0 0 0
980 0 3 1 18.696381529249194 17.262442272303396 7.419543751446922 0 0 0
312 0 1 -1 21.119760503591486 17.68839734518844 6.4413146494246245 -1 0 0
309 0 1 -1 0.9916632449149645 21.42091493606865 6.433387321443782 0 0 0
25 0 3 1 1.4314355113656374 22.712243080015504 8.08288183623356 0 -1 0
407 0 1 -1 4.422843300406062 22.720363194359702 7.1321998171299885 0 -1 0
401 0 3 1 3.244892852611417 20.84709671717749 5.838661360158969 0 -1 0
785 0 3 1 5.800369234633326 20.925369743472032 6.988353006717439 0 -1 0
791 0 1 -1 7.566458245344602 22.722705535092697 6.519588535958549 0 -1 0
787 0 3 1 8.762974408299351 21.211844411706885 7.57511877776073 0 -1 0
1080 0 1 -1 10.93890926675672 20.859018469403846 6.148898158013079 0 0 0
1073 0 3 1 12.020762586557941 20.728798466475823 8.115631156709266 0 0 0
19 0 3 1 22.06785231967568 21.28147640574722 5.1399413174389235 -1 -1 0
1173 0 1 -1 19.66522393985521 21.7756575301841 6.351410088264759 0 -1 0
1267 0 2 1 2.0747966726446907 1.9284040540440244 9.79804933273283 1 0 0
125 0 1 -1 1.8383313954363731 -1.0743757573014616 10.151176318378457 0 0 0
32 0 1 -1 5.448005967701339 1.8197397482060396 9.988828989964233 0 0 0
412 0 2 1 6.9561925689306845 -1.121332568105494 10.562834978387876 0 0 0
793 0 2 1 11.986227841363611 1.107847325896178 9.198377411906375 0 0 0
1458 0 2 1 18.29399121954895 -0.3296536651371872 9.168611218760404 0 1 0
1172 0 3 1 21.455401774499684 1.8179169124341028 9.781057736835507 0 0 0
1462 0 1 -1 20.75850970072038 -1.0237023848738755 10.267139730735863 0 1 0
24 0 1 -1 -0.562593477456754 3.7648003919883264 9.050631161365683 0 0 0
499 0 3 1 6.507140388078848 4.010459177646339 9.613130740247957 0 0 0
887 0 1 -1 8.981827777737815 4.322395515336826 10.348122903282121 0 0 0
884 0 3 1 11.172145551105373 4.674891873452047 11.009366412249172 0 0 0
1271 0 1 -1 12.444866657615894 4.363154685471654 9.190654282803173 0 0 0
886 0 1 -1 15.06452217168331 5.4833868026344765 11.15750630381309 0 0 0
1265 0 3 1 15.808060975677266 3.3923682151708725 8.30475104529388 0 0 0
1277 0 1 -1 17.846404778387928 2.9466589973926993 10.936434462997408 0 0 0
595 0 2 1 4.889266046639685 8.040115183465051 8.42099340246893 0 0 0
503 0 1 -1 4.664663187529808 5.9933801792058805 10.768227689815234 0 0 0
214 0 1 -1 2.647214328643333 8.806674209407259 9.864116954269711 0 0 0
882 0 3 1 8.855817965229196 6.619912811883222 10.046609456125779 0 0 0
975 0 1 -1 12.898648906778696 8.355020193106522 9.101721313656803 0 0 0
500 0 3 1 14.30668729524554 5.728470823568369 8.84383638086523 0 0 0
1266 0 3 1 14.22381794960392 7.7282992806059045 11.130895945918457 0 0 0
1170 0 2 1 18.41790969989264 7.551747020308701 11.18702265234727 0 0 0
498 0 3 1 22.091156038848972 5.834262778690093 9.847615185194329 -1 0 0
1365 0 1 -1 20.775080901411677 7.298377201293938 9.100234864183872 0 0 0
691 0 3 1 3.7008399954337534 10.728655748112647 9.490141235286995 0 0 0
598 0 1 -1 5.882266795358534 10.5988878296131 9.683016438248814 0 0 0
978 0 3 1 7.771169620124326 11.843314246782839 8.852666461715774 0 0 0
888 0 1 -1 9.959151459248694 11.044817094631233 9.033895650111702 0 0 0
892 0 3 1 10.99496350565696 9.606997064308327 10.51944219446698 0 0 0
971 0 2 1 13.994602993418951 11.71802957030931 9.332264692714055 0 0 0
116 0 3 1 20.836893733874795 9.761033628535312 9.369194000871431 -1 0 0
221 0 1 -1 21.43167805257285 12.11607363908053 10.332724433964763 -1 0 0
697 0 3 1 0.6368856760490376 12.691621335799699 11.136100695289642 0 0 0
306 0 3 1 1.6587969310796078 15.832671661074574 8.77102234838787 0 0 0
695 0 1 -1 2.1727212809737266 13.30392538007872 9.427926736393282 0 0 0
984 0 1 -1 12.15711564911418 13.909528209145966 9.244140517177907 0 0 0
977 0 3 1 10.360011848447606 13.07733118170854 10.755070473157641 0 0 0
1369 0 2 1 18.284374854961086 12.553097254096558 11.233797377475305 0 0 0
982 0 1 -1 15.848649724811368 15.294510084533169 10.069675809962217 0 0 0
1463 0 1 -1 19.101641230960425 15.484109486423588 9.005424827291357 0 0 0
311 0 1 -1 -0.23061235339581937 16.861881086202146 9.93285002646282 0 0 0
1459 0 3 1 1.4533656960757888 17.536715278751497 11.18722601795966 1 0 0
310 0 1 -1 3.6986175746558914 17.301986121863994 10.695065681896573 0 0 0
316 0 3 1 5.011954324174199 18.601764458427546 9.393504623392563 0 0 0
694 0 1 -1 6.891925666242834 16.757196483134805 9.662216765055625 0 0 0
1078 0 1 -1 10.700179611489096 17.15847629899596 8.287039158184921 0 0 0
1074 0 3 1 9.162908013210325 16.798595697354344 9.985882500643388 0 0 0
988 0 3 1 17.692437874112727 16.84444494855305 10.295168061834133 0 0 0
1085 0 1 -1 17.421441743508858 18.517910663317302 8.71629207324041 0 0 0
696 0 1 -1 0.43409011167941225 20.15631312088504 11.36995585610548 0 0 0
690 0 2 1 3.163433108859154 20.940676560767827 11.441675815251823 0 0 0
413 0 1 -1 7.055017217078507 20.14270996810282 9.334290962138365 0 -1 0
1088 0 1 -1 10.19904955328762 21.526168174770273 9.403890797831107 0 0 0
1084 0 3 1 11.711536549413756 21.709835831887418 11.417625637795702 0 0 0
1086 0 1 -1 13.420599330896868 21.07079616125217 10.059734147891657 0 0 0
1460 0 2 1 21.698930753616544 19.801185560228703 8.774725455461862 0 0 0
28 0 3 1 1.066714255566929 0.9329869479478785 13.31289959359881 0 0 0
409 0 3 1 4.915865844140201 1.5091652913422142 12.87431965553014 0 0 0
30 0 1 -1 4.7422409954076015 -0.7519626000931516 13.321566109428694 0 0 0
416 0 1 -1 7.459083305603977 1.6079310385772283 12.880598939772415 0 0 0
790 0 1 -1 11.4273753625673 -0.062469865393564694 11.81171254874263 0 0 0
1082 0 3 1 10.47936162340239 -1.2797287747010673 13.841567486341582 0 1 0
796 0 3 1 13.82830848290492 -0.22396547406939948 12.327092320267827 0 0 0
893 0 1 -1 14.671408942672773 1.6248823786180009 11.821446079400385 0 0 0
1273 0 3 1 16.777055530972596 1.2576129537069827 12.164442486445843 0 0 0
797 0 1 -1 16.71900112356559 -0.9857979602165801 11.76900544936317 0 0 0
1184 0 1 -1 18.198359903546084 0.5870838873715276 14.24865885119566 0 0 0
1188 0 3 1 16.443069430582796 -0.9537875634507337 14.247849303004113 0 0 0
1274 0 3 1 15.911173397122779 2.0771035156937994 14.434745157727587 0 0 0
1174 0 1 -1 22.03519536981642 1.7346558327309585 12.102389103912092 0 0 0
121 0 3 1 -0.33187908371089014 4.264806145631032 13.112197267571883 0 0 0
118 0 1 -1 2.928428854906864 2.7930300129822774 13.003613229797555 0 0 0
505 0 3 1 3.0908394159854593 5.1918901504761505 11.991209305118787 0 0 0
800 0 1 -1 11.493929469572945 4.253926896295599 13.117468600816519 0 0 0
883 0 3 1 13.666192381130594 3.852432928181713 11.614757513522768 0 0 0
1180 0 3 1 19.1003096155641 2.6359377226410787 12.652842998131998 0 0 0
1280 0 1 -1 20.385412222584918 4.936893485914697 13.187879278106845 0 0 0
599 0 1 -1 0.857517008397289 5.639560471375695 11.72088697288488 0 0 0
18 0 3 1 0.5932093430972092 8.046520472079036 14.45028886423323 0 0 0
124 0 3 1 3.363964300214369 8.056252035734355 12.189057484334015 0 0 0
512 0 1 -1 4.605855432746324 6.14950857459555 14.335102017928893 0 0 0
410 0 2 1 7.175123229733178 5.644053161645739 12.498352198531446 0 0 0
509 0 1 -1 10.006274821227766 7.9042969601122675 11.693264002664726 0 0 0
794 0 3 1 10.174737426674868 6.1898910771387685 14.236189647661767 0 0 0
896 0 1 -1 13.549540248893177 7.309570199814122 14.184548803011314 0 0 0
114 0 3 1 15.558742222780475 5.737171570834108 13.974118214967447 -1 0 0
1270 0 1 -1 17.39250852891174 7.098268870678199 13.920781286145633 0 0 0
128 0 1 -1 2.747680775406811 9.219884842273835 14.192436986853323 0 0 0
211 0 3 1 2.665841611861227 11.365699023715152 14.462064210472477 0 0 0
608 0 1 -1 4.327124551224639 12.097997686333755 13.159209175736951 0 0 0
508 0 2 1 6.689825430427899 10.821383781172619 13.168454833936892 0 0 0
989 0 1 -1 11.323454226826069 11.30489133714934 12.300718244263447 0 0 0
981 0 1 -1 15.671195761142881 9.44577844482993 11.646883566070784 0 0 0
217 0 3 1 16.19927916280097 9.206745436635948 14.19619580557708 -1 0 0
1373 0 1 -1 19.550881186211498 11.31942461924211 14.408601018680379 0 0 0
224 0 1 -1 0.9914436349615303 13.353676580872166 13.448079556901781 0 0 0
220 0 3 1 2.9329144078320626 13.92753943951442 14.306577933168118 0 0 0
604 0 2 1 5.6266150161908195 14.748220591245545 12.106939007051977 0 0 0
983 0 1 -1 8.236167877250693 13.390983489581684 11.7431165679562 0 0 0
985 0 3 1 10.018007620425996 12.64048161714476 13.528593200246497 0 0 0
1000 0 1 -1 11.423440459492113 14.73544925871315 14.198388223474922 0 0 0
1370 0 2 1 14.271217123493612 13.691353682901463 13.872630564032445 0 0 0
1376 0 1 -1 17.177343421601996 14.39716417144132 14.246761002998838 0 0 0
319 0 1 -1 1.617411519632443 17.39394565080449 13.605230617734708 0 0 0
313 0 3 1 3.867076677067584 17.39887000227994 12.957628164273956 0 0 0
602 0 3 1 8.908831978654648 19.234797381531862 13.379669309774634 0 0 0
992 0 1 -1 10.471556226260983 17.93232043425369 12.65521908111317 0 0 0
699 0 3 1 12.394542441680695 16.92155551515348 13.424596190503898 0 0 0
1471 0 1 -1 14.717163839275017 17.127614735723697 13.22082363860326 0 0 0
1075 0 3 1 16.411217201877832 15.95050317204512 12.540347976537888 0 0 0
1472 0 1 -1 18.41724523762891 17.176773183188967 12.49713249779603 0 0 0
1372 0 2 1 21.772717084507853 16.306649663507017 13.229089270105995 0 0 0
1171 0 3 1 -0.2087339753640055 22.494056741865965 11.57861541629513 1 -1 0
320 0 1 -1 1.0484332576268822 22.66530950326382 13.609101535532918 0 0 0
29 0 1 -1 4.217814037451914 19.83574360526991 14.232188598587719 0 -1 0