LAMMPS (29 Sep 2021 - Update 3)
OMP_NUM_THREADS environment is not set. Defaulting to 1 thread. (src/comm.cpp:98)
  using 1 OpenMP thread(s) per MPI task
units	metal
atom_style	full

read_data	mixed.data
Reading data file ...
  orthogonal box = (0.0000000 0.0000000 0.0000000) to (15.857269 15.758596 73.856324)
  2 by 1 by 8 MPI processor grid
  reading atoms ...
  864 atoms
Finding 1-2 1-3 1-4 neighbors ...
  special bond factors lj:    0        0        0       
  special bond factors coul:  0        0        0       
     0 = max # of 1-2 neighbors
     0 = max # of 1-3 neighbors
     0 = max # of 1-4 neighbors
     1 = max # of special neighbors
  special bonds CPU = 0.001 seconds
  read_data CPU = 0.020 seconds

pair_style	quip
pair_coeff	* * /ocean/projects/cts180021p/wuziqi/clease/mint-PD/PhaseDiagram-Clease/Liquid/GAP_potential/gap_LiKCl.xml "Potential xml_label=GAP_2021_9_27_0_1_17_37_618" 17 19 3

neighbor	0.3 bin
neigh_modify	delay 10

timestep	0.001
compute	msd all msd
thermo_style	custom step temp pe etotal press vol c_msd[4]
thermo	10
dump	1 all custom 10 xyz-mix.dump type id x y z
dump	2 all custom 10 force-mix.dump type id fx fy fz

fix     1 all nve
run     2000
Neighbor list info ...
  update every 1 steps, delay 10 steps, check yes
  max neighbors/atom: 2000, page size: 100000
  master list distance cutoff = 6.22
  ghost atom cutoff = 6.22
  binsize = 3.11, bins = 6 6 24
  1 neighbor lists, perpetual/occasional/extra = 1 0 0
  (1) pair quip, perpetual
      attributes: full, newton on
      pair build: full/bin
      stencil: full/bin/3d
      bin: standard
Per MPI rank memory allocation (min/avg/max) = 8.896 | 8.907 | 8.915 Mbytes
Step Temp PotEng TotEng Press Volume c_msd[4] 
       0            0   -6680.0933   -6680.0933   -8281.1165    18455.831            0 
      10    70.089017   -6687.9205    -6680.102   -9637.9304    18455.831 0.00053514082 
      20    180.09083   -6700.2003   -6680.1109   -11326.743    18455.831 0.0066144209 
      30    218.60542   -6704.4933   -6680.1075   -10699.378    18455.831  0.022432956 
      40    219.14865   -6704.5494    -6680.103   -8951.3193    18455.831  0.042690684 
      50    240.47609   -6706.9311   -6680.1056   -8003.5149    18455.831  0.059191698 
      60    253.66901   -6708.4039   -6680.1068    -7626.627    18455.831   0.07070925 
      70     242.9182   -6707.2018   -6680.1039   -7466.6829    18455.831  0.079364222 
      80    245.92472    -6707.537   -6680.1038   -7609.4954    18455.831  0.086633288 
      90    257.49674   -6708.8305   -6680.1063   -7851.5904    18455.831  0.095173812 
     100    252.46946   -6708.2676   -6680.1043   -7551.0395    18455.831   0.10676573 
     110    248.46405   -6707.8212   -6680.1047   -7097.6705    18455.831   0.12025968 
     120    250.68872   -6708.0687    -6680.104   -6824.8497    18455.831   0.13340609 
     130      258.818   -6708.9777   -6680.1062   -6596.3887    18455.831   0.14573975 
     140    253.60976   -6708.3953   -6680.1047   -6185.2051    18455.831   0.15889724 
     150    247.40375   -6707.7026   -6680.1043   -5947.5032    18455.831   0.17318983 
     160    248.95468   -6707.8762   -6680.1049   -5851.7986    18455.831   0.18766652 
     170    251.06346   -6708.1121   -6680.1056   -5590.4969    18455.831   0.20144657 
     180    246.23782    -6707.572   -6680.1038   -5247.2261    18455.831   0.21382042 
     190    251.48989   -6708.1586   -6680.1045   -5416.1608    18455.831   0.22371169 
     200    260.44308   -6709.1586   -6680.1058   -5793.9896    18455.831   0.23141162 
     210    257.82494   -6708.8658    -6680.105   -6133.6533    18455.831   0.23844771 
     220    250.73963   -6708.0747   -6680.1043   -6257.2025    18455.831   0.24564622 
     230    248.07271   -6707.7773   -6680.1044   -6243.0592    18455.831   0.25309034 
     240    248.93862   -6707.8742   -6680.1047   -6226.9294    18455.831   0.26091643 
     250    248.99388   -6707.8804   -6680.1047   -6334.5414    18455.831   0.26913526 
     260    251.27669   -6708.1344   -6680.1041   -6551.8246    18455.831   0.27705303 
     270    260.34527   -6709.1477   -6680.1058        -6764    18455.831   0.28421607 
     280    260.83001   -6709.2011   -6680.1051   -6639.8092    18455.831   0.29163604 
     290    256.24266   -6708.6893    -6680.105   -6449.9322    18455.831   0.29974682 
     300    250.69638     -6708.07   -6680.1044   -6471.1016    18455.831   0.30849754 
     310    250.05901    -6707.999   -6680.1046   -6562.0942    18455.831   0.31777754 
     320    252.23509   -6708.2423   -6680.1051   -6693.6464    18455.831   0.32755563 
     330    250.81469   -6708.0833   -6680.1046   -6713.8004    18455.831   0.33779883 
     340    250.65515   -6708.0657   -6680.1047     -6614.52    18455.831   0.34801692 
     350    252.94275   -6708.3202   -6680.1041   -6588.7327    18455.831   0.35730468 
     360    261.50627   -6709.2774    -6680.106   -6797.9362    18455.831   0.36504658 
     370    261.10007   -6709.2316   -6680.1055   -6831.7443    18455.831   0.37190178 
     380    253.99916   -6708.4387   -6680.1047   -6726.1215    18455.831   0.37827271 
     390    253.05009   -6708.3325   -6680.1044    -6835.806    18455.831   0.38397661 
     400    258.03703   -6708.8906   -6680.1062   -6768.7818    18455.831   0.38955387 
     410      252.036   -6708.2195   -6680.1045   -6292.4532    18455.831   0.39652014 
     420    250.52201   -6708.0507   -6680.1046   -5826.2725    18455.831   0.40500255 
     430    256.29495   -6708.6954   -6680.1053    -5546.315    18455.831    0.4145153 
     440    262.43605   -6709.3808   -6680.1057   -5439.0868    18455.831   0.42473971 
     450    264.26046   -6709.5844   -6680.1058   -5272.9671    18455.831   0.43527985 
     460    262.52327   -6709.3894   -6680.1046   -5195.9426    18455.831   0.44476232 
     470    267.68384   -6709.9661   -6680.1056   -5304.7962    18455.831   0.45177569 
     480    270.55653   -6710.2863   -6680.1053   -5291.2639    18455.831   0.45687774 
     490    270.72724   -6710.3054   -6680.1053   -5218.7322    18455.831   0.46120142 
     500    269.05227   -6710.1187   -6680.1055   -5175.8745    18455.831   0.46642946 
     510    263.94553   -6709.5489   -6680.1053   -5239.9274    18455.831   0.47407361 
     520    257.63711   -6708.8446   -6680.1048   -5291.7388    18455.831   0.48412853 
     530    257.06548   -6708.7811   -6680.1051   -5321.5334    18455.831   0.49506416 
     540    260.38526   -6709.1518   -6680.1055   -5376.0867    18455.831   0.50501047 
     550    260.91759   -6709.2118    -6680.106    -5479.615    18455.831   0.51322197 
     560    255.01677   -6708.5518   -6680.1043   -5675.0057    18455.831   0.52041437 
     570     259.1908   -6709.0183   -6680.1051   -6233.3417    18455.831    0.5272333 
     580    265.73933   -6709.7494   -6680.1058   -6810.0612    18455.831   0.53425593 
     590    267.07214   -6709.8973    -6680.105   -7271.0617    18455.831   0.54173358 
     600    270.59769   -6710.2906    -6680.105   -7669.4363    18455.831   0.54966243 
     610    275.51295   -6710.8394   -6680.1055   -7859.4286    18455.831   0.55825095 
     620    275.26386   -6710.8118   -6680.1057   -7564.3126    18455.831   0.56786247 
     630    267.62803    -6709.959   -6680.1047   -6980.9593    18455.831   0.57832835 
     640    265.09163   -6709.6761   -6680.1047   -6568.2152    18455.831   0.58820723 
     650    267.67247   -6709.9653    -6680.106    -6347.284    18455.831   0.59641333 
     660    264.01415   -6709.5562    -6680.105   -5916.0469    18455.831   0.60309646 
     670    263.52965    -6709.502   -6680.1049   -5671.0684    18455.831   0.60844331 
     680    269.00124    -6710.113   -6680.1055   -5692.2827    18455.831    0.6132683 
     690    271.45591    -6710.387   -6680.1057   -5574.8525    18455.831   0.61933075 
     700     270.0884   -6710.2336   -6680.1048   -5412.3704    18455.831   0.62727776 
     710    274.16504    -6710.689   -6680.1055   -5445.9009    18455.831   0.63604213 
     720    276.77226   -6710.9801   -6680.1057   -5459.4182    18455.831   0.64454539 
     730    275.88502   -6710.8806   -6680.1052    -5417.932    18455.831   0.65171241 
     740    275.85971   -6710.8783   -6680.1057   -5536.9233    18455.831   0.65662341 
     750    272.97993   -6710.5569   -6680.1056   -5708.1328    18455.831    0.6598394 
     760    268.28422    -6710.033   -6680.1055   -5761.8441    18455.831   0.66298993 
     770    264.14144   -6709.5705   -6680.1051   -5775.8492    18455.831   0.66717813 
     780    263.51726    -6709.501   -6680.1053   -5700.2554    18455.831   0.67265545 
     790    266.55703   -6709.8409    -6680.106    -5605.591    18455.831   0.67864068 
     800    265.59911   -6709.7343   -6680.1063   -5512.5062    18455.831   0.68325498 
     810    257.26872   -6708.8037    -6680.105    -5609.846    18455.831   0.68551207 
     820    257.02246   -6708.7759   -6680.1047   -5957.2323    18455.831   0.68532325 
     830    268.49996   -6710.0576    -6680.106   -6395.3276    18455.831   0.68384718 
     840      275.603   -6710.8497   -6680.1057   -6790.5333    18455.831   0.68323699 
     850    277.81756   -6711.0961   -6680.1052   -7039.0507    18455.831   0.68429619 
     860    281.61629     -6711.52   -6680.1053    -7112.387    18455.831   0.68675849 
     870    285.63694   -6711.9688   -6680.1055   -6936.0551    18455.831    0.6904508 
     880    286.29079   -6712.0419   -6680.1057   -6480.6542    18455.831   0.69538495 
     890    281.96956   -6711.5596   -6680.1055   -6039.8274    18455.831   0.70113257 
     900    274.65893   -6710.7442   -6680.1055     -5564.23    18455.831   0.70667182 
     910    267.20366   -6709.9114   -6680.1045   -5257.3591    18455.831   0.71136984 
     920     269.3838   -6710.1555   -6680.1053    -5367.122    18455.831   0.71512054 
     930    273.08823   -6710.5689   -6680.1055   -5720.7294    18455.831   0.71853359 
     940    275.14424   -6710.7982   -6680.1055   -5917.6904    18455.831   0.72236347 
     950    276.67291   -6710.9689   -6680.1056   -5610.0935    18455.831   0.72713733 
     960    276.62748   -6710.9635   -6680.1053   -5046.3658    18455.831   0.73337224 
     970     278.3434   -6711.1556   -6680.1059   -4610.3497    18455.831   0.74121898 
     980    276.50421   -6710.9503   -6680.1058   -4305.2609    18455.831   0.75038076 
     990    274.46428   -6710.7216   -6680.1047   -4327.9119    18455.831   0.75935205 
    1000    282.87647   -6711.6614   -6680.1061   -4696.6429    18455.831   0.76641954 
    1010    286.63377   -6712.0812   -6680.1068   -4990.2699    18455.831   0.77271728 
    1020    279.06324   -6711.2352   -6680.1053   -4771.2676    18455.831   0.78024384 
    1030    275.82234   -6710.8738   -6680.1054    -4403.339    18455.831   0.78871428 
    1040    278.66942   -6711.1919   -6680.1059   -3941.2604    18455.831   0.79675694 
    1050    279.04998   -6711.2352   -6680.1068   -3356.1301    18455.831   0.80429238 
    1060    270.39607   -6710.2685   -6680.1054   -2836.7873    18455.831   0.81167046 
    1070    268.92869   -6710.1046   -6680.1052   -2775.6081    18455.831   0.81774479 
    1080    276.86697   -6710.9921   -6680.1072   -2982.0197    18455.831   0.82183502 
    1090    273.51021   -6710.6167   -6680.1062   -3002.8881    18455.831   0.82504043 
    1100    268.10286   -6710.0129   -6680.1056    -3041.916    18455.831   0.82859974 
    1110    268.86345   -6710.0983   -6680.1061   -3274.5241    18455.831   0.83307382 
    1120    271.12867   -6710.3511   -6680.1063   -3502.0504    18455.831   0.83788345 
    1130    271.41072   -6710.3825   -6680.1063   -3567.0764    18455.831   0.84210043 
    1140    271.86949   -6710.4327   -6680.1053   -3657.0206    18455.831   0.84510588 
    1150    281.86599   -6711.5491   -6680.1065   -4076.7437    18455.831    0.8468347 
    1160    288.73127   -6712.3154    -6680.107   -4317.2032    18455.831    0.8485126 
    1170    284.72713   -6711.8682   -6680.1065   -4221.6867    18455.831   0.85124425 
    1180    277.76624   -6711.0907   -6680.1055   -3786.2546    18455.831   0.85522238 
    1190    278.42764   -6711.1658   -6680.1068   -3453.5254    18455.831   0.86063272 
    1200    274.57485   -6710.7358   -6680.1066   -3135.4804    18455.831   0.86799772 
    1210    268.17301   -6710.0207   -6680.1056   -3061.7485    18455.831   0.87596914 
    1220    269.73514   -6710.1951   -6680.1058   -3498.6687    18455.831   0.88197829 
    1230    275.57277   -6710.8475    -6680.107   -3998.6686    18455.831   0.88464671 
    1240    273.28864   -6710.5919   -6680.1062   -4275.4959    18455.831   0.88485118 
    1250    269.21341   -6710.1371    -6680.106   -4301.1389    18455.831   0.88413656 
    1260    268.47841   -6710.0549   -6680.1057   -4311.1873    18455.831   0.88296339 
    1270    272.54156   -6710.5085   -6680.1061   -4356.8217    18455.831   0.88172746 
    1280    277.77621   -6711.0926   -6680.1063   -4588.2508    18455.831   0.88180594 
    1290    280.19269   -6711.3629    -6680.107   -4852.3632    18455.831   0.88389526 
    1300    274.38994   -6710.7142   -6680.1056   -4801.0391    18455.831   0.88737003 
    1310    272.68687   -6710.5248   -6680.1062   -4600.8128    18455.831   0.89133871 
    1320    273.33879   -6710.5972   -6680.1059   -4506.2257    18455.831   0.89528436 
    1330    275.86937     -6710.88   -6680.1064   -4590.7459    18455.831   0.89889495 
    1340    276.57557   -6710.9584    -6680.106   -4592.8619    18455.831   0.90245999 
    1350    276.61512   -6710.9634   -6680.1066   -4506.7758    18455.831   0.90646299 
    1360    272.26073   -6710.4771    -6680.106   -4467.2196    18455.831   0.91136845 
    1370    268.73878   -6710.0839   -6680.1057   -4589.1112    18455.831   0.91701889 
    1380    269.83102   -6710.2061    -6680.106   -4803.1401    18455.831   0.92344131 
    1390    271.01809   -6710.3391   -6680.1066   -4995.7936    18455.831   0.93117145 
    1400    266.53417   -6709.8383   -6680.1061   -4887.7324    18455.831   0.93925395 
    1410    264.34979   -6709.5941   -6680.1054   -4661.6641    18455.831   0.94440069 
    1420    271.24246   -6710.3639   -6680.1064   -4782.1646    18455.831   0.94464645 
    1430    278.14891   -6711.1341   -6680.1062   -5345.1098    18455.831   0.94130273 
    1440    284.26073    -6711.816   -6680.1063   -5956.3496    18455.831    0.9366539 
    1450    286.06102   -6712.0176    -6680.107   -6473.9841    18455.831   0.93338269 
    1460    278.13817   -6711.1322   -6680.1055    -6637.014    18455.831   0.93336514 
    1470    274.95588   -6710.7774   -6680.1057   -6848.7234    18455.831   0.93597431 
    1480    275.34081   -6710.8209   -6680.1062   -7017.9963    18455.831   0.93943367 
    1490    271.96867   -6710.4442   -6680.1057   -6827.7136    18455.831   0.94245071 
    1500    271.43894   -6710.3851   -6680.1057   -6399.8258    18455.831   0.94456699 
    1510    273.11981   -6710.5738   -6680.1069   -5919.9683    18455.831   0.94612167 
    1520    266.58025   -6709.8431   -6680.1057   -5429.0631    18455.831   0.94681802 
    1530    264.24493   -6709.5825   -6680.1056   -5386.7007    18455.831   0.94511663 
    1540    268.14703   -6710.0187   -6680.1065   -5636.8718    18455.831   0.94138542 
    1550    270.20911    -6710.248   -6680.1058   -5845.7424    18455.831   0.93815309 
    1560    276.27553   -6710.9252   -6680.1062   -5792.6983    18455.831   0.93754478 
    1570    281.48981   -6711.5074   -6680.1068   -5440.6487    18455.831   0.94039184 
    1580    279.21915   -6711.2534    -6680.106   -4999.2991    18455.831   0.94601391 
    1590     277.1071   -6711.0177    -6680.106   -4867.2447    18455.831   0.95254979 
    1600    278.30993   -6711.1519    -6680.106   -4854.7315    18455.831   0.95811089 
    1610    283.09805   -6711.6862   -6680.1062   -4922.4033    18455.831   0.96206314 
    1620    285.07138   -6711.9077   -6680.1076   -4696.0901    18455.831   0.96577017 
    1630    273.23535   -6710.5854   -6680.1056   -4246.7962    18455.831   0.97096923 
    1640     267.7179   -6709.9697   -6680.1053   -4035.6486    18455.831     0.977191 
    1650    272.52244   -6710.5064   -6680.1061   -4111.8074    18455.831   0.98346373 
    1660     277.8589   -6711.1018   -6680.1062   -4253.7363    18455.831   0.98934697 
    1670    281.07361    -6711.461   -6680.1068   -4561.0787    18455.831   0.99446833 
    1680    278.83973   -6711.2107   -6680.1057   -4801.2753    18455.831   0.99855733 
    1690    282.27607   -6711.5942   -6680.1059   -5070.8212    18455.831    1.0013333 
    1700    288.92729   -6712.3376   -6680.1074   -5075.7299    18455.831    1.0032748 
    1710    283.97303   -6711.7838   -6680.1062   -4524.3033    18455.831    1.0056492 
    1720    280.32496   -6711.3763   -6680.1056   -4088.2037    18455.831    1.0090707 
    1730    285.00962   -6711.9005   -6680.1072   -4166.6509    18455.831    1.0129097 
    1740    281.71349    -6711.532   -6680.1064   -4428.6075    18455.831    1.0162807 
    1750    277.27178   -6711.0355   -6680.1055   -4669.9286    18455.831    1.0185587 
    1760    282.23006   -6711.5895   -6680.1063   -4723.6015    18455.831    1.0199448 
    1770    285.90961   -6712.0006   -6680.1069   -4414.9618    18455.831      1.02094 
    1780    282.38129   -6711.6061    -6680.106   -3873.7091    18455.831    1.0213084 
    1790    282.44165    -6711.613   -6680.1062   -3619.8434    18455.831    1.0208436 
    1800    287.55602   -6712.1841   -6680.1067   -3726.4708    18455.831    1.0207901 
    1810    288.11308   -6712.2473   -6680.1079    -3934.633    18455.831    1.0230701 
    1820    276.98552   -6711.0034   -6680.1052    -4186.202    18455.831    1.0283135 
    1830    277.15263   -6711.0235   -6680.1067   -4345.9838    18455.831    1.0350393 
    1840    276.23823   -6710.9215   -6680.1067   -4368.7653    18455.831    1.0414724 
    1850    273.19513   -6710.5804   -6680.1051   -4416.5455    18455.831    1.0455768 
    1860    283.83055   -6711.7684   -6680.1067   -4696.8368    18455.831    1.0462471 
    1870    291.37755   -6712.6113   -6680.1077   -4729.2468    18455.831    1.0448258 
    1880    283.33807   -6711.7134   -6680.1066   -4658.1696    18455.831    1.0428769 
    1890    273.10669    -6710.571   -6680.1055   -4806.2478    18455.831     1.040683 
    1900    272.25017   -6710.4761   -6680.1062   -4992.1727    18455.831    1.0384095 
    1910    274.11365   -6710.6842   -6680.1065    -4851.611    18455.831    1.0367748 
    1920     274.3815    -6710.714   -6680.1064   -4374.9654    18455.831    1.0362621 
    1930    273.80361   -6710.6496   -6680.1064   -3953.3671    18455.831    1.0369737 
    1940    273.81216   -6710.6506   -6680.1064   -3660.7249    18455.831     1.038631 
    1950     274.0972   -6710.6826   -6680.1067   -3555.6748    18455.831    1.0408007 
    1960     275.1804   -6710.8028    -6680.106   -3995.0323    18455.831    1.0431217 
    1970    281.99645   -6711.5638   -6680.1067   -4818.7611    18455.831    1.0450424 
    1980     287.0536   -6712.1285   -6680.1072   -5430.2829    18455.831    1.0464652 
    1990    282.90097   -6711.6645   -6680.1064   -5324.8363    18455.831    1.0478613 
    2000    278.29624   -6711.1501   -6680.1058   -5003.2499    18455.831    1.0492005 
Loop time of 1546.57 on 16 procs for 2000 steps with 864 atoms

Performance: 0.112 ns/day, 214.801 hours/ns, 1.293 timesteps/s
96.5% CPU use with 16 MPI tasks x 1 OpenMP threads

MPI task timing breakdown:
Section |  min time  |  avg time  |  max time  |%varavg| %total
---------------------------------------------------------------
Pair    | 651.92     | 1067.6     | 1546.2     | 645.6 | 69.03
Bond    | 0.00017285 | 0.00044325 | 0.0008893  |   0.0 |  0.00
Neigh   | 0.018676   | 0.03009    | 0.049518   |   3.9 |  0.00
Comm    | 0.13386    | 421.06     | 834.69     | 931.2 | 27.23
Output  | 0.14316    | 31.881     | 70.697     | 511.2 |  2.06
Modify  | 0.0096095  | 0.012174   | 0.014677   |   1.3 |  0.00
Other   |            | 26.01      |            |       |  1.68

Nlocal:        54.0000 ave          86 max          35 min
Histogram: 1 1 3 7 2 1 0 0 0 1
Nghost:        537.750 ave         662 max         448 min
Histogram: 3 1 1 5 0 0 3 1 1 1
Neighs:         0.00000 ave           0 max           0 min
Histogram: 16 0 0 0 0 0 0 0 0 0
FullNghs:      2646.75 ave        5387 max        1216 min
Histogram: 2 2 3 4 3 1 0 0 0 1

Total # of neighbors = 42348
Ave neighs/atom = 49.013889
Ave special neighs/atom = 0.0000000
Neighbor list builds = 199
Dangerous builds = 198
unfix   1

velocity    all create 787.5 1312343 dist gaussian
fix     2 all npt temp 787.5 787.5 $(100.0*dt) aniso 0.0 1.01325 $(1000.0*dt)
fix     2 all npt temp 787.5 787.5 0.10000000000000000555 aniso 0.0 1.01325 $(1000.0*dt)
fix     2 all npt temp 787.5 787.5 0.10000000000000000555 aniso 0.0 1.01325 1
run     3000
Per MPI rank memory allocation (min/avg/max) = 8.897 | 8.909 | 8.917 Mbytes
Step Temp PotEng TotEng Press Volume c_msd[4] 
    2000        787.5   -6711.1501   -6623.3033     -1715.85    18455.831    1.0492005 
    2010    695.46641   -6700.8548   -6623.2745    428.91143    18455.099    1.0548264 
    2020    564.45958   -6686.0506   -6623.0843    3360.2474    18454.886    1.0681784 
    2030    529.76774   -6681.7073   -6622.6109    3787.1569    18458.071    1.0803826 
    2040    513.52149   -6679.0799   -6621.7958    3270.4275    18465.303    1.0925817 
    2050    493.47056   -6675.8235   -6620.7761    2968.6126     18476.14    1.1052042 
    2060    504.15754   -6675.9859   -6619.7463    2292.3158    18490.189    1.1167169 
    2070    523.37613   -6677.1786   -6618.7952    1859.6835    18506.787    1.1282278 
    2080    534.98918   -6677.5774   -6617.8985    1997.5963    18525.532    1.1402884 
    2090      538.715   -6677.0583   -6616.9638    1693.8703    18546.474    1.1515738 
    2100     559.7586   -6678.3647   -6615.9228    534.98879    18569.255     1.161464 
    2110    592.99163   -6680.8773   -6614.7282   -926.46054    18592.647    1.1722933 
    2120    585.48465   -6678.7673   -6613.4556   -1175.7713    18615.177    1.1856956 
    2130    554.33962   -6674.0393   -6612.2019   -147.54775    18636.598    1.1992664 
    2140    555.20273   -6672.8781   -6610.9444    439.05069    18657.848    1.2107607 
    2150    555.99534   -6671.6522   -6609.6301    123.76958    18679.547    1.2211343 
    2160    563.46937   -6671.1368   -6608.2809   -842.55132    18701.367    1.2309805 
    2170    586.21575   -6672.2654   -6606.8721   -1706.0048    18722.286    1.2409195 
    2180    587.54016   -6670.9759   -6605.4349   -1742.2884    18741.415    1.2521722 
    2190    579.81574   -6668.6949   -6604.0156   -1437.0121    18758.657     1.263521 
    2200    591.22766   -6668.5351   -6602.5827   -1421.0872    18774.293    1.2733323 
    2210    601.88286   -6668.2491   -6601.1081   -1757.1625    18788.321      1.28191 
    2220    603.50375   -6666.9445   -6599.6228   -2009.6161    18800.406    1.2892562 
    2230    603.64434   -6665.4746   -6598.1371   -2406.3906    18810.226    1.2942931 
    2240     612.1548   -6664.9293   -6596.6425   -2804.3387    18817.362    1.2962567 
    2250    622.62133   -6664.5835   -6595.1292   -3031.3383    18821.368    1.2961568 
    2260     630.1712   -6663.9086   -6593.6121   -2838.2207    18821.984    1.2962663 
    2270    634.82767   -6662.9148   -6592.0988   -2141.9249     18819.45    1.2990389 
    2280    641.11784   -6662.0996    -6590.582   -1241.0847    18814.519    1.3042739 
    2290    649.13769   -6661.4681   -6589.0558   -277.35302    18808.182    1.3092765 
    2300    660.96169   -6661.2501   -6587.5188    281.26052    18801.479    1.3118934 
    2310    672.22299   -6660.9653   -6585.9778    365.03931    18795.048    1.3118954 
    2320    694.32335    -6661.893   -6584.4402   -175.71203    18788.951    1.3102971 
    2330    696.95181   -6660.6682   -6582.9222   -475.60718    18782.671    1.3101316 
    2340    683.77072   -6657.7313   -6581.4556   -378.45887    18775.894    1.3135517 
    2350    691.23209   -6657.1127   -6580.0048   -787.74255    18768.621    1.3195539 
    2360    695.78462   -6656.1582   -6578.5423    -938.2686    18760.477    1.3263732 
    2370    700.75573   -6655.2553    -6577.085   -476.19209    18751.324    1.3306694 
    2380     715.9373   -6655.4882   -6575.6243    115.32871    18741.622    1.3304796 
    2390    716.91713   -6654.1431     -6574.17    605.63891     18732.02    1.3284197 
    2400    718.49248   -6652.8815   -6572.7326    1129.8124    18723.082    1.3275752 
    2410    718.40289     -6651.45   -6571.3111    1896.1035    18715.429    1.3293839 
    2420    735.96509   -6651.9931   -6569.8951      1898.33    18709.796    1.3320119 
    2430    738.04695   -6650.8183    -6568.488     1682.153    18706.273    1.3350402 
    2440    757.72469   -6651.6391   -6567.1138    1037.2881    18704.579    1.3382505 
    2450    782.69426   -6653.0684   -6565.7577    254.36088    18704.037    1.3436037 
    2460    782.11596   -6651.7199   -6564.4737  -0.17133275    18703.845    1.3508884 
    2470    779.12803   -6650.1883   -6563.2754    225.51936    18703.708    1.3574321 
    2480    783.16825   -6649.4939   -6562.1303    340.80215    18703.801    1.3637706 
    2490    781.86508   -6648.2517   -6561.0335    847.02153     18704.31    1.3721517 
    2500    765.79606   -6645.4183   -6559.9926    1733.3115    18705.827    1.3827703 
    2510    776.29428   -6645.5751   -6558.9783      1864.64    18709.225    1.3924707 
    2520    792.90345   -6646.4197   -6557.9701    1568.6394    18714.698    1.4011732 
    2530    799.17282   -6646.1507   -6557.0018     1199.334    18721.958    1.4103921 
    2540    801.54778   -6645.5042   -6556.0903    1052.0018    18730.628    1.4210488 
    2550    819.84565   -6646.6951   -6555.2401    753.52577    18740.495    1.4329649 
    2560    826.61327   -6646.6755   -6554.4656    616.92492    18751.279    1.4466674 
    2570    819.13288   -6645.1704   -6553.7949    785.67275    18762.842    1.4630249 
    2580    814.31348   -6644.0583   -6553.2204    900.51489    18775.332    1.4815841 
    2590    806.21263   -6642.6492   -6552.7149    1026.9299    18788.914    1.5000528 
    2600    808.93695   -6642.5048   -6552.2666    672.07484    18803.678        1.516 
    2610    793.45347   -6640.3754   -6551.8645    573.17929    18819.321     1.531188 
    2620     764.7875   -6636.7973   -6551.4841    847.36377    18835.747     1.546638 
    2630    756.54167   -6635.4651   -6551.0718    514.59199    18853.152    1.5609029 
    2640    783.49619   -6637.9907   -6550.5905   -552.19956    18871.153    1.5761156 
    2650    802.47948   -6639.5874   -6550.0696   -1200.4231    18888.666    1.5964308 
    2660    806.13033   -6639.4964   -6549.5713   -1190.1713    18904.955    1.6216955 
    2670    809.45723   -6639.4234   -6549.1272   -1057.3479    18919.985    1.6472164 
    2680    809.12767   -6638.9911   -6548.7317   -1188.4291    18933.876    1.6685483 
    2690    813.86916   -6639.1778   -6548.3894   -2019.6503    18946.408    1.6849817 
    2700      794.034   -6636.6678   -6548.0921   -2286.6025    18956.767     1.698899 
    2710    778.90004   -6634.7103   -6547.8228   -2064.5087    18964.602    1.7118873 
    2720    797.79029   -6636.5443   -6547.5496   -1964.3799     18970.09    1.7243215 
    2730    818.39007   -6638.5874   -6547.2947   -1949.2773    18973.347    1.7377579 
    2740    826.72188   -6639.3277   -6547.1057   -2325.7835    18974.339     1.755538 
    2750    820.87004   -6638.5752   -6547.0059   -2486.7167    18972.666    1.7807094 
    2760    791.95324    -6635.316   -6546.9725   -1963.7872     18968.19    1.8120337 
    2770    791.54021   -6635.2695    -6546.972   -2047.2203    18961.356     1.843779 
    2780     786.7166   -6634.7396   -6546.9802   -2031.0748    18952.149    1.8716594 
    2790    781.11972   -6634.1261    -6546.991   -1102.8712    18940.658    1.8943862 
    2800    776.28934   -6633.5776   -6546.9813   -290.12513    18927.814    1.9151232 
    2810    785.85629   -6634.6099   -6546.9464   -142.47223    18914.503    1.9381162 
    2820    811.68419   -6637.4566    -6546.912   -444.67662    18900.912    1.9658712 
    2830    823.35992    -6638.774    -6546.927   -747.49183    18886.733    1.9993339 
    2840    819.83392   -6638.4814   -6547.0277   -628.37051    18871.644    2.0375959 
    2850    795.92173   -6635.9732   -6547.1869    264.02762    18855.833    2.0767101 
    2860    796.72074   -6636.2462   -6547.3708    581.45667    18840.147    2.1132307 
    2870    813.05417   -6638.2804    -6547.583    638.68247    18825.015    2.1474246 
    2880    801.84967   -6637.2818   -6547.8343    1431.8865    18810.608    2.1803491 
    2890    789.43204   -6636.1716   -6548.1093      2179.97    18797.746    2.2128097 
    2900    779.46754   -6635.3326   -6548.3818    2096.8153    18787.192    2.2456052 
    2910    776.43673   -6635.2564   -6548.6437    1843.7981     18778.93    2.2777724 
    2920    766.74834   -6634.4048   -6548.8729    1612.6592    18772.712    2.3079243 
    2930    771.06861   -6635.0778   -6549.0639    1481.3223    18768.294     2.335482 
    2940    782.41322   -6636.5022   -6549.2228    1224.7833    18765.504    2.3600052 
    2950    785.83662   -6637.0373    -6549.376     1251.869    18764.109     2.385082 
    2960     772.3457   -6635.6788   -6549.5225    1990.7434      18764.2    2.4145974 
    2970    762.73046   -6634.7241   -6549.6404    2862.7198     18766.55    2.4459763 
    2980    765.17563   -6635.0682   -6549.7117    2925.8678     18772.07    2.4720239 
    2990    775.18874   -6636.2189   -6549.7455     2002.919    18780.848    2.4901533 
    3000    763.94989   -6634.9627    -6549.743    1280.8065    18791.999    2.5051656 
    3010    755.13252   -6633.9304   -6549.6942    824.65858    18804.719    2.5194513 
    3020    758.41449   -6634.1766   -6549.5743    413.27499    18818.519    2.5316633 
    3030    776.22186   -6635.9812   -6549.3925   -178.04375    18832.917    2.5415754 
    3040    790.94578   -6637.4089   -6549.1777   -208.47782     18847.34    2.5509445 
    3050     799.4223   -6638.1482   -6548.9714    134.59608     18861.72     2.562199 
    3060     794.7045   -6637.4371   -6548.7866     414.3874    18876.422    2.5750637 
    3070    809.70759   -6638.9568   -6548.6327    148.76721    18891.714    2.5869227 
    3080    787.62116   -6636.3569   -6548.4966    76.618523    18907.389    2.5976213 
    3090    776.89578   -6635.0387   -6548.3748    -317.7281    18923.281    2.6064319 
    3100    771.40356   -6634.2768   -6548.2256   -595.60667    18939.007    2.6143759 
    3110    763.72357   -6633.2283   -6548.0337   -691.86682    18954.251    2.6210945 
    3120     770.7523   -6633.7735    -6547.795   -1187.1871    18968.816    2.6247831 
    3130    760.77545   -6632.3699   -6547.5043   -1472.7947    18982.212    2.6235339 
    3140    751.92326   -6631.0371    -6547.159   -1835.6965    18994.049     2.616012 
    3150     760.6857   -6631.5907   -6546.7351   -2317.4736    19003.908    2.6054532 
    3160    792.00563   -6634.5992   -6546.2498   -3248.9289    19011.141    2.5981746 
    3170    797.56771   -6634.7271   -6545.7572   -3120.0133    19014.813    2.5995434 
    3180    783.04056    -6632.643   -6545.2936   -2009.7909    19015.007    2.6076833 
    3190    795.23419   -6633.5507   -6544.8411   -1249.1276    19012.839    2.6172804 
    3200    808.48353   -6634.5898   -6544.4023   -1123.1185    19009.124    2.6259151 
    3210    819.24075   -6635.3986   -6544.0111   -1089.8554    19004.055     2.632919 
    3220    821.37732   -6635.3158   -6543.6899   -675.93834    18997.722    2.6421287 
    3230     820.8727   -6635.0146    -6543.445     79.50192    18990.577    2.6581283 
    3240    832.61742   -6636.1598   -6543.2801     434.1361    18983.384    2.6810098 
    3250    830.34101   -6635.8389   -6543.2131    621.29056    18976.594    2.7088058 
    3260    814.58967   -6634.1041   -6543.2354    965.27323    18970.454    2.7384594 
    3270    835.72725   -6636.5743   -6543.3477    1286.0278    18965.331    2.7664289 
    3280     826.8008   -6635.7898   -6543.5589    2380.0881    18961.731    2.7926348 
    3290    795.01262    -6632.542   -6543.8572    2711.0335     18960.73    2.8156251 
    3300    780.23164   -6631.2111   -6544.1751    1694.8214    18962.719    2.8346303 
    3310    788.90397   -6632.4892   -6544.4857    841.49813     18966.73    2.8528963 
    3320    784.20637   -6632.2706   -6544.7912    1305.9169    18971.927    2.8764138 
    3330    780.01671   -6632.1068   -6545.0948    2227.6903    18978.778    2.9056718 
    3340    776.19963   -6631.9765   -6545.3903    2771.0539    18988.311    2.9335695 
    3350    778.79112   -6632.5372   -6545.6619    2508.1545    19001.167    2.9545774 
    3360    794.57814    -6634.559   -6545.9226    1489.7744    19017.112    2.9710663 
    3370    775.58665   -6632.6976   -6546.1797    687.00854    19035.156    2.9870029 
    3380    746.87025   -6629.7078   -6546.3933    130.63951    19054.402    3.0006709 
    3390    758.77252   -6631.1731   -6546.5308   -658.15527    19074.156     3.009518 
    3400    768.46132   -6632.3194   -6546.5964   -770.04161    19093.626    3.0155769 
    3410    776.91411   -6633.2927   -6546.6268   -902.92852    19112.581    3.0195556 
    3420    781.79605   -6633.8367   -6546.6262   -1242.7766    19130.852    3.0227054 
    3430    802.78345   -6636.1681   -6546.6164   -1833.5122    19148.008    3.0285302 
    3440    816.54444   -6637.7225   -6546.6358   -1983.9182    19163.416    3.0359215 
    3450    817.27733   -6637.8931   -6546.7246   -1869.9485    19176.843     3.043379 
    3460    812.11895   -6637.4817   -6546.8886   -1741.8945    19188.334    3.0512776 
    3470    793.66936   -6635.6427   -6547.1077   -1064.7253     19198.06    3.0588163 
    3480    780.09126   -6634.3699   -6547.3495   -377.09837    19206.732     3.063659 
    3490    769.22554   -6633.3795   -6547.5713   -188.24883    19215.108    3.0677538 
    3500     784.8435   -6635.3211   -6547.7706   -1132.4466    19223.333    3.0719133 
    3510    781.15314    -6635.095   -6547.9562   -2285.1936    19230.385    3.0747818 
    3520    754.13417   -6632.2426   -6548.1178   -2473.4937     19234.99       3.0753 
    3530     742.9467   -6631.0983   -6548.2215   -2821.5685    19236.714     3.072806 
    3540        745.2   -6631.3664   -6548.2382   -3364.7872    19235.109      3.06811 
    3550    749.97375   -6631.8263   -6548.1656   -3362.1948    19229.522    3.0646022 
    3560    739.10478   -6630.4437   -6547.9955   -2358.0668    19219.914    3.0648702 
    3570    755.92456   -6632.0434   -6547.7189   -1583.1905    19207.255    3.0684034 
    3580    784.84546   -6634.9164   -6547.3657   -1096.4018    19192.403    3.0730725 
    3590    781.58899   -6634.1724    -6546.985    -408.3073    19175.967    3.0754966 
    3600    776.32045   -6633.2074   -6546.6076    -145.0923    19158.645    3.0749768 
    3610    762.36437   -6631.2538   -6546.2109    287.78202    19140.809    3.0762016 
    3620    770.12956   -6631.6831    -6545.774    578.63846    19122.921    3.0808715 
    3630    766.68859   -6630.8164   -6545.2912    1208.3934    19105.406    3.0872214 
    3640    780.28334   -6631.8154   -6544.7736    1559.5399    19088.927    3.0906929 
    3650    808.82241     -6634.46   -6544.2346    1996.5713    19073.972    3.0888519 
    3660    804.73484    -6633.494   -6543.7246    2617.9028    19061.094     3.083172 
    3670    816.42009   -6634.3421   -6543.2692    2411.5933     19050.95    3.0756496 
    3680     834.4235   -6635.9638   -6542.8826    1688.6164    19043.401    3.0706912 
    3690    839.84299   -6636.2888   -6542.6031    1047.2253    19037.707    3.0740331 
    3700    835.93111   -6635.6966   -6542.4472    831.40988    19033.185    3.0857247 
    3710    826.50702   -6634.6217   -6542.4236    995.04943    19029.583     3.098977 
    3720    799.00411   -6631.6186   -6542.4885      1985.04      19027.2    3.1102012 
    3730    796.38726   -6631.4219   -6542.5837    2506.1122    19027.029    3.1227393 
    3740    796.51964   -6631.5493   -6542.6964    2211.2809    19029.691    3.1414985 
    3750    786.51022   -6630.5604    -6542.824    1653.1254    19034.948    3.1643283 
    3760    785.08318   -6630.5176   -6542.9404    1181.9311    19042.206    3.1833395 
    3770    779.00956   -6629.9482   -6543.0485    1331.8013    19050.988    3.1926523 
    3780    777.24778   -6629.8447   -6543.1416    1543.0461    19061.437    3.1932068 
    3790    795.99578   -6632.0057   -6543.2111     889.6879    19073.697    3.1908352 
    3800    791.36815   -6631.5455   -6543.2672    525.58608    19087.146    3.1903354 
    3810    786.76343   -6631.1078   -6543.3431    694.47778    19101.375    3.1921406 
    3820    787.47128   -6631.2845   -6543.4409    658.20831    19116.475    3.1987198 
    3830     797.4006   -6632.5081   -6543.5569    401.52627      19132.4    3.2136564 
    3840    802.65377   -6633.2266   -6543.6894    496.07909    19148.919    3.2362485 
    3850    805.04955   -6633.6506   -6543.8461    228.81369     19166.04    3.2608731 
    3860    822.91529   -6635.8385    -6544.041   -517.41191    19183.435    3.2806105 
    3870    816.19744   -6635.3457   -6544.2976    -885.3031    19200.313    3.2960975 
    3880    786.94034   -6632.3922   -6544.6078     -1216.46    19216.191    3.3117635 
    3890    776.44245   -6631.5337   -6544.9203   -2389.8922    19230.566     3.326815 
    3900     786.6961   -6632.9786   -6545.2214     -3565.68    19242.123    3.3404549 
    3910    780.86855   -6632.6323   -6545.5252   -3408.0202    19249.636     3.356128 
    3920    765.96842   -6631.2648   -6545.8199   -2573.1597    19253.194    3.3753973 
    3930    754.35688   -6630.2244   -6546.0747   -2159.0673    19253.668    3.3970923 
    3940    749.46656   -6629.8727   -6546.2686   -2303.3892    19251.543    3.4196185 
    3950    750.09326   -6630.0699   -6546.3959   -2509.9109    19246.688    3.4431453 
    3960    720.95706   -6626.8546   -6546.4307   -1689.8957    19238.999    3.4679034 
    3970    723.48076   -6627.0501   -6546.3447   -976.41801    19229.313    3.4912605 
    3980    746.49738   -6629.3924   -6546.1195   -812.51192    19218.434    3.5128879 
    3990    749.82478   -6629.4365   -6545.7924   -548.19385     19206.62    3.5341943 
    4000    771.65325   -6631.4655   -6545.3865   -443.12687    19194.151    3.5547876 
    4010    780.14365   -6631.9526   -6544.9264   -52.491454    19181.192    3.5768994 
    4020    777.64655   -6631.1972   -6544.4495    577.00208    19168.202    3.6016789 
    4030    781.78206   -6631.1737   -6543.9648    955.63559    19155.839     3.626363 
    4040    776.08237   -6630.0498   -6543.4767    1490.3736    19144.604    3.6467682 
    4050    775.65627   -6629.5091   -6542.9835    1223.2525    19135.017    3.6596365 
    4060     778.6046   -6629.3332   -6542.4786    557.54763    19126.821    3.6671007 
    4070    798.80894   -6631.0878   -6541.9794   -46.458261    19119.284    3.6747442 
    4080    811.39836   -6632.0321   -6541.5194    19.788012    19111.761    3.6865137 
    4090    797.84588   -6630.1301   -6541.1292    796.43961    19104.333    3.7021127 
    4100    819.96506   -6632.2735   -6540.8052    769.64601    19097.727    3.7201922 
    4110    821.94571   -6632.2302    -6540.541    984.77332    19092.053    3.7419725 
    4120    801.48454    -6629.754   -6540.3472    1733.1244    19087.591    3.7648426 
    4130    806.79362    -6630.197   -6540.1979    2098.5294     19085.11    3.7869167 
    4140    821.64924   -6631.7551   -6540.0989    2195.6626    19085.054    3.8092492 
    4150     825.4237   -6632.1651   -6540.0879     2277.596    19087.559    3.8310469 
    4160    797.86857    -6629.157   -6540.1535    2356.5018    19092.713    3.8498536 
    4170    782.54361   -6627.5343   -6540.2404     1804.754    19100.515     3.863054 
    4180    803.36171   -6629.9354   -6540.3192    1037.3937    19110.362     3.871763 
    4190    808.43546   -6630.5983   -6540.4161    1089.1056    19121.456    3.8788135 
    4200    794.71319   -6629.2027   -6540.5512    1238.3978    19133.763    3.8867104 
    4210    805.56676   -6630.5884   -6540.7262    842.39522    19147.359    3.8984079 
    4220    814.78328   -6631.8482   -6540.9579    616.15478    19161.852    3.9151537 
    4230    800.75215   -6630.5751     -6541.25    375.41629     19176.94    3.9334478 
    4240    803.12024   -6631.1858   -6541.5965   -165.22953    19192.279    3.9504826 
    4250    800.30364   -6631.2803   -6542.0052   -397.06487    19207.287    3.9688685 
    4260    779.73322   -6629.4276   -6542.4472    -374.7602    19221.695    3.9883205 
    4270     783.6545   -6630.3122   -6542.8943   -1378.4808     19235.37    4.0020082 
    4280    783.25155   -6630.7143   -6543.3414   -2420.2681    19247.253    4.0096098 
    4290    785.61088   -6631.4301    -6543.794   -3265.2921     19256.15    4.0187325 
    4300    781.44514   -6631.4082   -6544.2368   -3583.4542    19261.153    4.0347124 
    4310    773.96542   -6630.9985   -6544.6615   -3581.5333    19261.902    4.0551085 
    4320    759.24128   -6629.7402   -6545.0457    -3639.177    19258.424    4.0750369 
    4330    755.25742   -6629.6266   -6545.3765   -3725.8983    19250.731    4.0901615 
    4340    761.35188   -6630.5869    -6545.657   -3593.5248    19238.844    4.0985463 
    4350    766.23331   -6631.3647   -6545.8903    -3324.766    19223.012    4.1027298 
    4360    786.37177   -6633.8247   -6546.1037   -3057.2974    19203.612    4.1096169 
    4370    797.81675   -6635.3155   -6546.3178   -2009.5551    19181.137     4.125184 
    4380    799.20508   -6635.6944   -6546.5418   -808.14868    19156.826    4.1499551 
    4390    782.27921   -6634.0435    -6546.779   -2.0363457    19132.075    4.1794199 
    4400    783.11749   -6634.3761   -6547.0182    509.76183    19107.845    4.2046178 
    4410    793.33378   -6635.7611   -6547.2635    967.02115    19084.728    4.2242322 
    4420    792.56852   -6635.9422     -6547.53    1638.0011    19063.267    4.2417125 
    4430     782.9014   -6635.1563   -6547.8225    2057.3361    19044.137    4.2559952 
    4440    772.68453   -6634.3247   -6548.1305    2248.8646    19027.748    4.2666358 
    4450    770.33075   -6634.3762   -6548.4446    2405.0118    19014.292     4.278697 
    4460    776.15915   -6635.3538   -6548.7721      2231.25    19003.835    4.2945005 
    4470    778.13067   -6635.9353   -6549.1337    2165.8103    18996.155     4.311715 
    4480     755.4477   -6633.7917   -6549.5204    2320.4535    18991.125    4.3286394 
    4490    753.78284   -6633.9916    -6549.906    1944.0445    18988.805    4.3425578 
    4500    775.90022   -6636.8636   -6550.3108    781.51488    18988.666    4.3532715 
    4510    765.50828    -6636.151   -6550.7574   -137.58329    18989.453    4.3630441 
    4520    757.63824   -6635.7541   -6551.2384   -1005.9429    18990.059    4.3705821 
    4530    758.75715   -6636.3837   -6551.7432   -1184.2818    18989.598    4.3788037 
    4540    744.79201   -6635.3458   -6552.2631   -605.65375    18987.878    4.3913293 
    4550    732.33172   -6634.4431   -6552.7504   -273.81328    18985.474    4.4079524 
    4560    753.47891   -6637.2571   -6553.2054   -749.98284     18982.72    4.4246612 
    4570    756.20219   -6637.9936   -6553.6381    -1279.052    18979.147    4.4347558 
    4580    754.19377   -6638.1857   -6554.0543   -1266.7999    18974.234    4.4364649 
    4590     747.4411   -6637.8145   -6554.4363   -782.40564    18968.014    4.4350978 
    4600    739.05898   -6637.1958   -6554.7527   -79.732575    18961.049    4.4351734 
    4610    753.38482   -6639.0368   -6554.9956     85.87863    18954.066    4.4401508 
    4620     766.0532   -6640.6397   -6555.1853   -167.69975    18947.256    4.4525533 
    4630    763.41984   -6640.5043   -6555.3436   -300.71537    18940.389    4.4715692 
    4640    748.67427   -6638.9747    -6555.459    65.777479    18933.354     4.494286 
    4650    743.83383   -6638.4812   -6555.5054     528.8308    18926.516    4.5145699 
    4660    750.09548   -6639.1354   -6555.4611    542.37408    18920.345    4.5253541 
    4670    765.20686   -6640.6892   -6555.3293     359.6485    18914.878    4.5267897 
    4680    776.20371   -6641.7109   -6555.1243    298.95478    18909.917    4.5237095 
    4690    780.61084   -6641.9331   -6554.8548    788.55696    18905.441    4.5191435 
    4700    796.99449   -6643.4482   -6554.5423    1265.6909    18901.904    4.5174354 
    4710    766.29697   -6639.6759   -6554.1943    2297.1185    18899.933    4.5277614 
    4720    739.54869   -6636.2856   -6553.7878    2931.6222    18900.556    4.5517861 
    4730    758.25679   -6637.8437   -6553.2591    2513.9856    18904.373     4.583184 
    4740    786.46878   -6640.3365   -6552.6048    1946.7856    18910.985    4.6187165 
    4750    799.50648   -6641.0842    -6551.898     1268.536    18919.706    4.6574856 
    4760    779.78709   -6638.1813   -6551.1948    685.08448    18929.762    4.6967028 
    4770    777.48343   -6637.2406   -6550.5111    234.03318    18940.482    4.7292237 
    4780    772.69402     -6636.03   -6549.8348   -66.091269    18951.366    4.7499935 
    4790    768.12572   -6634.8716    -6549.186   -567.98622    18962.027    4.7601714 
    4800    760.35456   -6633.3792   -6548.5605   -996.77352    18971.945    4.7678814 
    4810    768.24339   -6633.6583   -6547.9596   -1551.1714    18980.613    4.7813948 
    4820    778.48311   -6634.2326   -6547.3916   -1804.3038    18987.449     4.803111 
    4830    779.17083      -6633.8   -6546.8823   -1397.7468    18992.208    4.8311488 
    4840     788.6026   -6634.4086   -6546.4388   -545.57253    18995.367    4.8643053 
    4850    793.00509   -6634.5192   -6546.0583    363.31473     18997.88    4.8991667 
    4860    792.14358   -6634.1075   -6545.7427    882.98548    19000.752    4.9292671 
    4870    795.45369   -6634.2133   -6545.4793    717.88934     19004.54    4.9491608 
    4880     795.0236   -6633.9438   -6545.2578     761.5579    19009.136    4.9626196 
    4890    792.13561   -6633.4421   -6545.0781    1346.0385    19014.622     4.975143 
    4900    783.23077   -6632.2982   -6544.9276    1723.8537    19021.591    4.9885403 
    4910    774.30095   -6631.1593   -6544.7849    1949.5346    19030.484    5.0028708 
    4920    781.21994   -6631.7789   -6544.6326    2151.8944    19041.559    5.0185605 
    4930     777.8466   -6631.2399     -6544.47     2293.023    19055.034    5.0338145 
    4940    780.59395     -6631.37   -6544.2936    1866.4414    19071.013    5.0439622 
    4950    807.04213   -6634.1317    -6544.105    758.93641    19088.963    5.0496949 
    4960    804.92673   -6633.7278    -6543.937   -56.399337    19107.707    5.0577778 
    4970     790.8258    -6632.024   -6543.8061   -407.34814    19126.321    5.0691147 
    4980    786.39171   -6631.4119   -6543.6887   -539.73246    19144.353    5.0809947 
    4990    792.32484   -6631.9575   -6543.5725   -473.90756    19161.663    5.0903818 
    5000    796.93413   -6632.3625   -6543.4633   -824.80427    19178.261    5.0953744 
Loop time of 2446.28 on 16 procs for 3000 steps with 864 atoms

Performance: 0.106 ns/day, 226.507 hours/ns, 1.226 timesteps/s
96.9% CPU use with 16 MPI tasks x 1 OpenMP threads

MPI task timing breakdown:
Section |  min time  |  avg time  |  max time  |%varavg| %total
---------------------------------------------------------------
Pair    | 1512.2     | 2083.2     | 2392.6     | 555.3 | 85.16
Bond    | 0.00028563 | 0.0006724  | 0.0012317  |   0.0 |  0.00
Neigh   | 0.034297   | 0.044607   | 0.057116   |   3.4 |  0.00
Comm    | 52.994     | 284.37     | 902.04     |1486.1 | 11.62
Output  | 0.20268    | 0.20608    | 0.25613    |   2.8 |  0.01
Modify  | 0.3802     | 78.457     | 157.61     | 743.0 |  3.21
Other   |            | 0.01478    |            |       |  0.00

Nlocal:        54.0000 ave          71 max          43 min
Histogram: 4 2 2 0 2 2 0 2 1 1
Nghost:        527.000 ave         647 max         487 min
Histogram: 6 3 3 0 2 0 0 0 1 1
Neighs:         0.00000 ave           0 max           0 min
Histogram: 16 0 0 0 0 0 0 0 0 0
FullNghs:      2462.62 ave        3693 max        1693 min
Histogram: 4 2 1 2 2 1 2 0 0 2

Total # of neighbors = 39402
Ave neighs/atom = 45.604167
Ave special neighs/atom = 0.0000000
Neighbor list builds = 300
Dangerous builds = 300
unfix   2

fix     3 all npt temp 787.5 787.5 $(100.0*dt) aniso 1.01325 1.01325 $(1000.0*dt)
fix     3 all npt temp 787.5 787.5 0.10000000000000000555 aniso 1.01325 1.01325 $(1000.0*dt)
fix     3 all npt temp 787.5 787.5 0.10000000000000000555 aniso 1.01325 1.01325 1
run     20000
Per MPI rank memory allocation (min/avg/max) = 8.904 | 8.910 | 8.917 Mbytes
Step Temp PotEng TotEng Press Volume c_msd[4] 
    5000    796.93413   -6632.3625   -6543.4633   -824.80427    19178.261    5.0953744 
    5010    786.28924   -6631.1822   -6543.4705   -1153.9346    19177.725    5.0939722 
    5020    777.58662   -6630.2147   -6543.4738    -1528.293    19175.849    5.0926565 
    5030    787.96114    -6631.368   -6543.4697   -1872.3805    19172.186    5.0934583 
    5040    788.14668   -6631.3809   -6543.4619   -1604.0402    19166.407    5.0991731 
    5050    794.33238   -6632.0692   -6543.4602   -1035.7211    19158.781    5.1073593 
    5060    795.35224   -6632.1979   -6543.4752   -320.00135    19149.962    5.1137699 
    5070    776.41752   -6630.1069   -6543.4964    528.82346    19140.792    5.1159907 
    5080    771.19693   -6629.5248   -6543.4966    787.32564    19132.168    5.1105634 
    5090    775.87026   -6630.0048   -6543.4554     448.6424    19124.394    5.1023319 
    5100     785.5671   -6631.0138   -6543.3826    264.52788    19117.164    5.0998003 
    5110    784.08901   -6630.7526   -6543.2863    288.08279    19110.258    5.1095895 
    5120    795.86211   -6631.9548   -6543.1752    171.97194    19103.672    5.1304363 
    5130    803.51703   -6632.7012   -6543.0676    215.68941    19097.275    5.1555699 
    5140    782.91115   -6630.2987   -6542.9638    1195.0206    19091.223    5.1776901 
    5150    777.66143   -6629.5853    -6542.836    1689.7229      19086.5    5.1894381 
    5160    801.77271   -6632.1086   -6542.6697    1124.9583    19083.623    5.1899264 
    5170    813.77482   -6633.2671   -6542.4893    564.05816    19082.051    5.1876695 
    5180    808.52534   -6632.5253    -6542.333    631.25062    19081.202    5.1917229 
    5190    788.48182   -6630.1496   -6542.1933      985.944    19081.127     5.204468 
    5200    790.08777   -6630.1847   -6542.0492    756.95042    19082.142    5.2231049 
    5210    794.28425   -6630.4902   -6541.8866     404.4411    19084.043     5.245882 
    5220     778.8361   -6628.5965   -6541.7162    754.80762    19086.499    5.2694929 
    5230    760.85351   -6626.3803    -6541.506    1574.7772    19089.917    5.2888257 
    5240    764.72669   -6626.5342   -6541.2277    2023.4962    19095.134    5.3017947 
    5250    763.36008   -6626.0176   -6540.8636    2161.6634     19102.72    5.3075366 
    5260    782.02256   -6627.6615   -6540.4257    1737.8615    19112.828    5.3067268 
    5270    781.11526   -6627.0523   -6539.9177    1127.6697    19125.017    5.3090264 
    5280    786.93462    -6627.161   -6539.3772    68.887153    19138.552    5.3186191 
    5290    796.13432   -6627.6157   -6538.8058   -1043.0429    19152.262    5.3308557 
    5300    807.96447   -6628.3692   -6538.2396   -2054.6861    19164.841    5.3405514 
    5310    810.99945   -6628.1837   -6537.7154   -2316.3554    19175.177     5.348932 
    5320    814.65277    -6628.131   -6537.2552   -2352.7743    19182.889     5.360764 
    5330    835.28093   -6630.0561   -6536.8793   -2764.0374    19187.828    5.3778029 
    5340    827.65694   -6628.9326   -6536.6062   -2418.7066    19189.641    5.3970248 
    5350    830.37697   -6629.0735   -6536.4437    -1720.169     19188.65    5.4137366 
    5360    848.19686   -6631.0051   -6536.3874   -695.89877    19185.673    5.4280594 
    5370     848.6398   -6631.1373   -6536.4702     131.2889    19181.824    5.4441835 
    5380    838.58296   -6630.2455   -6536.7003    374.26294    19178.047    5.4633798 
    5390    814.40629   -6627.8834   -6537.0352    257.71584    19174.667     5.482939 
    5400    802.98362   -6627.0104   -6537.4364    46.746308    19171.575    5.4977199 
    5410    802.27049   -6627.3636   -6537.8691   -70.511456     19168.53    5.5024148 
    5420    826.13113   -6630.5174   -6538.3612   -591.88898    19165.318    5.5022039 
    5430    829.55728   -6631.4879   -6538.9496   -883.73931    19161.425    5.5077437 
    5440    812.99381   -6630.3045   -6539.6138   -1069.4842    19156.474    5.5193926 
    5450    799.39512   -6629.4785   -6540.3048   -1159.5158     19150.22    5.5368467 
    5460    780.99357   -6628.0853   -6540.9643    -610.7208    19142.623    5.5598633 
    5470    763.13065   -6626.6519   -6541.5235   -550.20872     19134.21    5.5807824 
    5480    763.99277   -6627.1991   -6541.9746   -1067.5595    19125.014    5.5894876 
    5490    767.17699   -6627.8981   -6542.3184   -1262.0013     19114.54    5.5861032 
    5500    789.04155    -6630.616   -6542.5972   -1396.4219    19102.512    5.5794633 
    5510     803.5848   -6632.4919   -6542.8508   -1378.4972    19088.766    5.5797688 
    5520    811.58565   -6633.6473   -6543.1137   -1063.6685     19073.32    5.5931138 
    5530    804.51828   -6633.1392    -6543.394    -429.7332    19056.543    5.6205492 
    5540     781.6804   -6630.8592   -6543.6616    -20.61109    19039.104    5.6543239 
    5550    769.39843   -6629.7134   -6543.8858     256.1463    19021.473    5.6832866 
    5560    771.18926   -6630.0769   -6544.0496    842.24834    19004.019     5.705296 
    5570    770.24024   -6630.0699   -6544.1484     1988.161    18987.457    5.7232128 
    5580    777.61356   -6630.9473   -6544.2033    2770.8495    18972.996    5.7405971 
    5590    788.32258    -6632.178   -6544.2395    3199.5178    18961.561    5.7564954 
    5600    785.62727   -6631.9061   -6544.2682    3261.6647    18953.687    5.7658459 
    5610     802.4757   -6633.8313   -6544.3139    2414.2896    18949.392    5.7657796 
    5620    792.33119   -6632.7664   -6544.3806    2405.4024    18947.939    5.7613284 
    5630    787.37755   -6632.3003   -6544.4672    2679.9763    18949.264    5.7585643 
    5640    793.87646   -6633.1205   -6544.5624    2868.2028    18953.692    5.7656549 
    5650    786.69783   -6632.4256   -6544.6683    2899.7878    18961.472    5.7834963 
    5660    776.99321    -6631.448   -6544.7732    2101.2689    18972.598    5.8032576 
    5670    760.17564   -6629.6438   -6544.8451    1278.6594    18986.299    5.8176224 
    5680    775.37659   -6631.3544     -6544.86    605.72064     19001.68    5.8237903 
    5690    800.25523   -6634.1212   -6544.8515    445.71131    19018.008    5.8227157 
    5700    795.82481   -6633.6413   -6544.8658    1041.6805    19035.158    5.8190709 
    5710    800.23645   -6634.1799   -6544.9123    1410.1748     19053.73    5.8154979 
    5720    797.84145   -6633.9874    -6544.987     1489.596    19074.173    5.8130456 
    5730    794.78551   -6633.7511   -6545.0915    1106.8519    19096.587    5.8098955 
    5740    796.66995   -6634.0832   -6545.2135     65.46157    19120.527    5.8111014 
    5750    804.21846   -6635.0678    -6545.356   -1176.2996     19144.83    5.8230686 
    5760    796.36733   -6634.3743   -6545.5383   -1775.7164    19168.126    5.8415525 
    5770    781.07059   -6632.8879   -6545.7583   -2094.9818    19189.635    5.8579426 
    5780    784.82199   -6633.5739   -6546.0259   -2392.1814    19208.936    5.8672517 
    5790    766.17729   -6631.8071   -6546.3389   -2351.5454    19225.663    5.8754381 
    5800    761.14303   -6631.5956    -6546.689   -2192.4428    19239.793    5.8851606 
    5810     769.6458     -6632.93   -6547.0749   -1979.6509     19251.49    5.8938159 
    5820    755.54427   -6631.7697   -6547.4876   -1769.6149     19260.97    5.9009854 
    5830    748.74279   -6631.4239   -6547.9005   -2085.8725    19268.392     5.908497 
    5840    759.00533   -6632.9684   -6548.3002   -2523.8016     19273.41    5.9187052 
    5850    763.59712   -6633.8659   -6548.6855   -2883.0417    19275.473    5.9327273 
    5860    764.08476   -6634.3133   -6549.0785    -2886.338    19274.173    5.9516433 
    5870    733.49114    -6631.267    -6549.445   -2428.5443    19269.492    5.9726835 
    5880    746.34786   -6633.0096   -6549.7534   -2492.3895    19261.819    5.9872959 
    5890    768.04243   -6635.6862   -6550.0099   -2210.5057    19251.161    5.9958966 
    5900    748.83716   -6633.7532   -6550.2192   -1184.6299    19237.863    6.0029466 
    5910    737.27497   -6632.5864   -6550.3423    -262.0754    19223.044    6.0070159 
    5920     754.2404   -6634.5014   -6550.3648    105.91052    19207.737    6.0097549 
    5930    768.30056   -6636.0209   -6550.3158     537.0447    19192.466    6.0159608 
    5940    774.19416   -6636.5864   -6550.2239    559.21015     19177.65    6.0270269 
    5950    760.03719   -6634.8741   -6550.0908    795.66002    19163.397    6.0435349 
    5960    756.77079   -6634.3099   -6549.8909     1286.123    19149.995    6.0661124 
    5970    785.40864   -6637.2286   -6549.6151    1416.9492    19137.946    6.0971791 
    5980    783.74514   -6636.7211   -6549.2931    1704.8829    19127.476    6.1375117 
    5990    772.89247   -6635.1603    -6548.943    1746.3127    19118.878    6.1840503 
    6000    769.84526   -6634.4185   -6548.5411    2064.2706    19112.292    6.2280334 
    6010    767.37678   -6633.6754   -6548.0733    2434.0272     19108.06    6.2638573 
    6020     769.4932   -6633.3771   -6547.5389    2618.7379    19106.607     6.291648 
    6030    781.07292   -6634.0776   -6546.9477    2602.6602    19108.184    6.3108239 
    6040    784.78901   -6633.8728   -6546.3284     2409.959    19112.816    6.3226899 
    6050    769.32698    -6631.529   -6545.7094    2235.0991    19120.336    6.3308414 
    6060    771.13416   -6631.1072    -6545.086     1753.372    19130.564    6.3373397 
    6070    795.05705   -6633.1469   -6544.4571     1112.297    19142.984    6.3454188 
    6080    786.14442   -6631.5667   -6543.8711    1275.4027    19156.952    6.3610364 
    6090    760.78526   -6628.2188    -6543.352      1811.19    19172.664    6.3834843 
    6100    787.72808   -6630.7332   -6542.8609    1101.9949    19190.614     6.407946 
    6110     800.5616   -6631.6979   -6542.3941    308.35384    19210.137    6.4324982 
    6120    795.26127   -6630.7172   -6542.0046    128.38392    19230.378    6.4554969 
    6130    806.86136   -6631.6904   -6541.6838    -344.8548    19251.032    6.4756448 
    6140    807.30021   -6631.4833   -6541.4277   -829.52721    19271.581    6.4947885 
    6150    786.24483   -6628.9407    -6541.234   -1054.1266    19291.464    6.5144987 
    6160    783.52474     -6628.47   -6541.0666   -1551.3537    19310.325    6.5319971 
    6170    793.55428    -6629.432   -6540.9098   -2143.5394    19327.586    6.5461377 
    6180    778.93884   -6627.6571   -6540.7653   -2400.8398    19342.559    6.5616328 
    6190    763.90942   -6625.8363    -6540.621    -2549.043    19354.875    6.5851619 
    6200    761.41115   -6625.3754   -6540.4388   -2849.1839     19364.29    6.6178988 
    6210    781.17306    -6627.362    -6540.221   -3308.6165    19370.377    6.6549674 
    6220    792.34959   -6628.3765   -6539.9887    -3348.999    19372.614    6.6846533 
    6230    802.31737   -6629.2823   -6539.7826   -2711.6941     19370.92    6.6962536 
    6240    794.06551   -6628.1794   -6539.6002   -1413.8493    19366.037    6.6930144 
    6250    801.60777   -6628.8653   -6539.4447    -1172.059    19359.276    6.6824205 
    6260    815.83911   -6630.3397   -6539.3316   -1621.6825    19350.943    6.6747227 
    6270    803.15466   -6628.8704   -6539.2773   -1581.9463    19340.623    6.6740712 
    6280    784.98076   -6626.8211   -6539.2554   -1422.1258     19328.31    6.6731807 
    6290    780.52823   -6626.2957   -6539.2266   -1632.2557    19314.112    6.6670139 
    6300    808.15944   -6629.3552   -6539.2038   -2115.3797    19297.758    6.6592197 
    6310    818.20922   -6630.5026   -6539.2301   -1805.3271    19278.805    6.6539425 
    6320    811.60606   -6629.8671   -6539.3312    -1476.789    19257.489    6.6490026 
    6330    806.92479   -6629.5118   -6539.4981    -1407.384    19234.177    6.6438722 
    6340    800.92265   -6629.0582   -6539.7141   -1140.6202        19209    6.6430052 
    6350    800.47644   -6629.2699   -6539.9756   -929.34305     19182.25    6.6500173 
    6360    800.28086   -6629.5605    -6540.288    -503.6659    19154.238    6.6657576 
    6370    797.87999   -6629.6602   -6540.6555    266.68461    19125.498    6.6866677 
    6380    799.86044   -6630.3113   -6541.0857    677.38498     19096.86    6.7019251 
    6390    804.48392   -6631.3359   -6541.5945    1279.6676    19068.897    6.7027971 
    6400    809.12926   -6632.4714   -6542.2118    1944.1158    19042.309    6.6895745 
    6410    799.00913   -6632.0819   -6542.9512    2523.8216    19017.893    6.6666463 
    6420    785.97805   -6631.4539   -6543.7769     2777.602    18996.291    6.6436573 
    6430    773.11628   -6630.8551   -6544.6128    2944.7986    18977.834    6.6321966 
    6440    775.73935   -6631.9263   -6545.3915    2762.8187    18962.683    6.6353311 
    6450     791.7208   -6634.4185   -6546.1009    2484.5255    18950.684    6.6443547 
    6460    806.98832   -6636.7824   -6546.7617    2537.5611    18941.575    6.6536435 
    6470    798.08542   -6636.3853   -6547.3577    2844.3712    18935.395    6.6665153 
    6480    782.63389   -6635.1739   -6547.8699    2997.7673    18932.446    6.6828457 
    6490     759.3675   -6632.9734   -6548.2648     2734.906    18932.894    6.6987621 
    6500    747.43158    -6631.911   -6548.5339    2174.4135    18936.438     6.710657 
    6510    737.17784   -6630.9063    -6548.673    1901.3481    18942.524    6.7175216 
    6520    755.27918    -6632.957   -6548.7045    1386.9392    18950.767    6.7184109 
    6530    773.82888   -6634.9812   -6548.6595     1037.119    18960.644    6.7159096 
    6540    781.92109   -6635.8079   -6548.5834    1040.5051    18971.776     6.714708 
    6550    795.45416   -6637.2448   -6548.5107    918.19204    18984.111    6.7207977 
    6560    787.82491   -6636.3399   -6548.4569    813.18396    18997.529    6.7382272 
    6570    759.71202   -6633.1512   -6548.4042    931.20941    19011.939    6.7649452 
    6580    756.09739   -6632.6551   -6548.3113     451.6996    19027.388    6.7918829 
    6590    756.80475   -6632.5625   -6548.1398   -175.02645    19043.393    6.8125738 
    6600    755.50003   -6632.1793   -6547.9021   -601.42357    19059.245    6.8244027 
    6610    762.04198   -6632.6068   -6547.5999   -633.56911    19074.492     6.826392 
    6620    784.85961   -6634.8104   -6547.2581   -338.55247    19089.068    6.8202422 
    6630    768.35345   -6632.6145   -6546.9035    717.53715    19103.394    6.8112165 
    6640    769.96482   -6632.4334   -6546.5427    782.57088     19118.49    6.8054293 
    6650    780.26881   -6633.1852    -6546.145    446.38098    19134.506    6.8062877 
    6660    768.76136   -6631.4873   -6545.7308    654.87851    19151.167     6.808057 
    6670    770.74412   -6631.2745   -6545.2968    478.31942    19168.587    6.8024756 
    6680    792.01459   -6633.1872   -6544.8368   -28.909655    19186.588    6.7940115 
    6690    800.42586   -6633.6699   -6544.3812   -250.21739    19204.638     6.791344 
    6700    784.88288   -6631.5312   -6543.9763   -124.04054    19222.488    6.7989323 
    6710     771.8279   -6629.6889   -6543.5904   -665.08613    19240.189    6.8171215 
    6720    777.65519   -6629.9385   -6543.1899   -1592.3896    19257.133    6.8409406 
    6730    781.59205     -6629.96   -6542.7722   -2566.5071    19272.252    6.8634824 
    6740    782.43962   -6629.6442   -6542.3618   -3377.9117     19284.38    6.8788499 
    6750    786.41229   -6629.6957   -6541.9703   -3339.7145    19292.628    6.8863624 
    6760    788.26961   -6629.5397    -6541.607   -2716.0143    19296.996     6.891894 
    6770    795.59161   -6630.0231   -6541.2737   -2484.8223    19298.112    6.9008669 
    6780    809.49709   -6631.2871   -6540.9864   -2733.7357    19296.235    6.9151191 
    6790    803.86263   -6630.4358   -6540.7637   -2433.7829    19291.174    6.9281153 
    6800    810.02844   -6630.9683   -6540.6084   -2084.5584    19283.201     6.928945 
    6810    813.63227    -6631.275   -6540.5131   -1366.1256    19272.767    6.9211108 
    6820    795.69689   -6629.2287   -6540.4675   -139.81093    19260.733      6.91679 
    6830    788.24654   -6628.3724   -6540.4423    407.64577    19248.407    6.9208744 
    6840    783.34851    -6627.801   -6540.4173    847.15224    19236.513    6.9321517 
    6850    784.53257   -6627.9026   -6540.3868    930.50583    19225.527    6.9491472 
    6860    796.86916    -6629.246    -6540.354    678.84269    19215.565    6.9696411 
    6870    805.97127    -6630.247   -6540.3397    426.38569     19206.37    6.9863008 
    6880    820.72314   -6631.9235   -6540.3706   -57.703628    19197.609    6.9925571 
    6890    827.38109   -6632.7789   -6540.4833    18.173663    19188.795    6.9957339 
    6900    803.73694   -6630.3204   -6540.6624    837.45132    19180.046    7.0022943 
    6910    806.05798    -6630.812    -6540.895     1098.795    19172.168    7.0113605 
    6920    796.21442   -6629.9819   -6541.1629    1033.3328    19165.495    7.0239957 
    6930    772.04436   -6627.5562   -6541.4335    612.15938    19159.968    7.0415504 
    6940    787.78956    -6629.577   -6541.6979   -793.61267     19155.02    7.0637234 
    6950    793.20186   -6630.4485   -6541.9657   -1222.0985    19149.234    7.0891863 
    6960     790.9266    -6630.486   -6542.2569   -544.83858    19142.074    7.1128894 
    6970      775.301   -6629.0296   -6542.5436    360.13482    19134.247    7.1328413 
    6980    780.33384   -6629.8676   -6542.8202     135.4492     19126.64     7.150986 
    6990    793.03716   -6631.5586   -6543.0941   -485.54024    19119.114    7.1674989 
    7000    799.87168   -6632.6417   -6543.4149   -928.66086    19110.959    7.1834592 
    7010    774.67497   -6630.1918   -6543.7756   -79.716585    19101.797    7.2022342 
    7020    763.01262   -6629.2556   -6544.1404    587.82964    19092.432    7.2168313 
    7030    780.06822   -6631.5312   -6544.5134    415.16287    19083.584    7.2182519 
    7040    798.07766   -6633.9872   -6544.9605    222.01122    19075.147     7.216361 
    7050    775.44365   -6632.0129    -6545.511    217.38954    19066.917    7.2257157 
    7060    747.47733   -6629.5245   -6546.1423     49.09334    19058.857    7.2444458 
    7070    738.46498   -6629.1967   -6546.8198    142.82199    19050.815     7.261707 
    7080    750.17003   -6631.2273   -6547.5447    449.29531    19042.874    7.2687168 
    7090    747.96851   -6631.7617   -6548.3246    1137.1044    19035.415    7.2671122 
    7100     733.6458   -6630.9507   -6549.1114    1791.2834    19029.198    7.2644075 
    7110    733.56968   -6631.6806   -6549.8498    1740.9436    19024.922    7.2664096 
    7120    742.70919   -6633.3695   -6550.5192    1240.4892    19022.569    7.2747804 
    7130    749.07742   -6634.6761   -6551.1154    845.70152    19021.635    7.2872967 
    7140    747.27526   -6634.9964   -6551.6367    855.31978    19021.718    7.3008573 
    7150    749.35486   -6635.6634   -6552.0717    1169.3371    19022.831    7.3174914 
    7160    753.90566   -6636.5291   -6552.4298    1556.5037    19025.326    7.3373607 
    7170    744.08553   -6635.7008   -6552.6969    1325.0046    19029.608    7.3557112 
    7180    760.85239    -6637.756   -6552.8818   -6.0184983     19035.37    7.3673319 
    7190     760.3445   -6637.8019   -6552.9844   -1024.2138    19041.272    7.3741443 
    7200    761.86454   -6638.0129   -6553.0258   -1541.7945    19046.105    7.3802089 
    7210    746.89826   -6636.3202   -6553.0026   -975.25964    19049.306    7.3869634 
    7220    725.73099   -6633.8538   -6552.8974     383.1367    19051.493    7.3894824 
    7230    728.98521   -6634.0025   -6552.6831     890.2238     19054.05    7.3846719 
    7240    742.71571   -6635.1907   -6552.3397    765.88961    19057.638     7.376786 
    7250    760.69519    -6636.748   -6551.8913    438.20439     19062.14    7.3742282 
    7260    754.39886   -6635.5236   -6551.3693    362.73146    19067.237    7.3825051 
    7270    756.04696    -6635.122   -6550.7838    222.89929    19072.833     7.403061 
    7280    771.94401   -6636.2459   -6550.1344   -331.34543    19078.707    7.4336925 
    7290    775.33618   -6635.9649   -6549.4749   -725.80186      19084.3    7.4688704 
    7300    775.27416   -6635.3521   -6548.8691   -1028.2386    19089.119    7.5059326 
    7310    766.07136   -6633.7863   -6548.3299   -919.92919    19092.816    7.5458728 
    7320    762.28231   -6632.8893   -6547.8556   -762.35287    19095.463    7.5890034 
    7330    753.83793     -6631.52   -6547.4282   -148.98308    19097.316    7.6343783 
    7340    772.64662   -6633.2342   -6547.0443    357.31831    19099.008    7.6767149 
    7350    788.88047   -6634.7073   -6546.7065    891.81001    19101.139    7.7144713 
    7360    757.06965   -6630.8689   -6546.4166    1920.3181    19104.396    7.7506771 
    7370    754.10114   -6630.2615   -6546.1404    1618.5517    19109.757     7.783823 
    7380    771.76864   -6631.9339    -6545.842    889.60878    19117.009     7.812913 
    7390    781.25103   -6632.6897   -6545.5399    632.52912    19125.399    7.8429207 
    7400    783.36277   -6632.6459   -6545.2606    335.28441    19134.548    7.8759881 
    7410    770.83864   -6630.9931   -6545.0049    235.82818    19144.144     7.906868 
    7420    783.39283   -6632.1401   -6544.7514     -125.352    19154.018    7.9265895 
    7430    789.79737   -6632.5965   -6544.4934   -529.63171     19163.79    7.9373767 
    7440    779.49587    -6631.199    -6544.245   -511.37417    19173.023    7.9477906 
    7450    743.79929   -6626.9455   -6543.9735   -83.197828    19181.742    7.9590146 
    7460    739.60865   -6626.1413   -6543.6368   -202.23759    19190.337    7.9651676 
    7470    743.24833    -6626.106   -6543.1955    -370.6794    19198.727    7.9653164 
    7480    740.77512   -6625.3068   -6542.6723    125.48127    19206.816     7.962866 
    7490    752.92433   -6626.0589    -6542.069    104.84302    19215.003    7.9635747 
    7500     777.8933    -6628.188   -6541.4128   -16.860275    19223.305    7.9732406 
    7510    789.08972   -6628.7839   -6540.7598    440.45506    19231.688    7.9913244 
    7520    797.91184     -6629.18   -6540.1717     1078.482    19240.648    8.0139584 
    7530    789.38622    -6627.713   -6539.6557    1266.0242    19250.871    8.0374759 
    7540    783.15857    -6626.551   -6539.1885    776.21542    19262.581    8.0526116 
    7550    806.40458   -6628.7078   -6538.7522    56.590999    19275.245    8.0518219 
    7560    812.75447   -6629.0352   -6538.3712   -127.45894    19288.089    8.0399387 
    7570    798.13293   -6627.1065   -6538.0736   -16.170534    19300.871    8.0337629 
    7580    788.59682   -6625.8009   -6537.8317     192.8921    19313.722    8.0453075 
    7590    790.31766   -6625.7744   -6537.6133   -173.00281    19326.787    8.0670158 
    7600    788.48471   -6625.3595   -6537.4029   -581.95568    19339.715    8.0858064 
    7610    774.87561   -6623.6291   -6537.1905   -378.11755    19352.087    8.0965932 
    7620    770.11469   -6622.8739   -6536.9665   -427.94813    19364.031    8.1005274 
    7630    784.61663   -6624.2375   -6536.7123   -1055.4611    19375.478    8.1009533 
    7640    796.84005   -6625.3368   -6536.4481   -1730.4211    19385.708    8.1026039 
    7650    808.08819   -6626.3456   -6536.2022   -2171.7027    19393.947    8.1087458 
    7660    803.75452   -6625.6469   -6535.9869   -2243.3466    19399.662    8.1164381 
    7670     804.8106   -6625.5897   -6535.8119   -2071.0418    19402.739    8.1239194 
    7680    812.53104   -6626.3132   -6535.6742   -2238.5651    19403.319    8.1348988 
    7690     809.6888   -6625.9142   -6535.5922     -2395.63    19401.217    8.1574636 
    7700    788.10341   -6623.4719   -6535.5577   -2033.5464    19396.282    8.1923651 
    7710    793.38348   -6624.0394   -6535.5363   -1983.4278    19388.835     8.228265 
    7720     821.7757   -6627.2121   -6535.5418   -2514.3085    19378.915    8.2537805 
    7730    818.25703   -6626.9064   -6535.6286   -2634.4229    19365.969    8.2679993 
    7740    792.41409   -6624.1842   -6535.7892   -2195.7372    19349.852    8.2745163 
    7750     789.4287   -6624.0458   -6535.9838   -2082.7754    19330.977    8.2781299 
    7760    790.61092   -6624.3952   -6536.2013   -1721.0266    19309.555    8.2836833 
    7770     786.0622   -6624.1203   -6536.4339   -882.92362    19286.043    8.2904163 
    7780    794.94767    -6625.364   -6536.6863   -273.36811    19261.347    8.2963665 
    7790    803.97401   -6626.6712   -6536.9867   -10.397202    19236.168     8.300597 
    7800    801.53908   -6626.7676   -6537.3548   -58.823619    19210.848    8.3043782 
    7810    803.68747   -6627.4672   -6537.8146   -224.79995     19185.34    8.3051035 
    7820    808.53262    -6628.574    -6538.381    79.363901     19159.53    8.3081222 
    7830    796.65211    -6627.917   -6539.0493    706.03202    19133.757    8.3252921 
    7840    780.05902   -6626.7893   -6539.7726    1422.0504     19108.72    8.3534031 
    7850    789.17675   -6628.5522   -6540.5183     1864.197    19085.223    8.3777293 
    7860    795.35204   -6630.0067    -6541.284    2598.8318    19063.877    8.3957074 
    7870     789.0524   -6630.0593   -6542.0394    2702.3133    19045.402    8.4128277 
    7880    786.46277   -6630.4749   -6542.7438    1970.1062    19029.926    8.4336178 
    7890    786.44165   -6631.1076   -6543.3788    1043.1553    19016.669    8.4571467 
    7900    789.26523   -6631.9761   -6543.9323    761.77122    19004.644    8.4759073 
    7910    793.46166   -6632.9189   -6544.4071    863.00133    18993.494    8.4866066 
    7920    801.40278   -6634.2202   -6544.8226    736.36359     18983.28    8.4931097 
    7930    801.22499   -6634.5775   -6545.1996    702.51139    18973.901    8.5011825 
    7940    788.07775   -6633.4446   -6545.5333    777.92432    18965.318    8.5146207 
    7950    788.69884   -6633.8014   -6545.8208     893.3023    18957.615    8.5307019 
    7960    814.67606   -6636.9681   -6546.0898    1261.7856    18950.937    8.5405158 
    7970    812.82728    -6637.045   -6546.3729    1792.4009     18945.71    8.5395276 
    7980     799.4536   -6635.8542    -6546.674    1468.7367     18942.44    8.5321981 
    7990    800.44356   -6636.2636   -6546.9729     483.3967    18940.776    8.5282414 
    8000    797.58506   -6636.2379   -6547.2661   -396.82882    18939.665    8.5352876 
    8010    785.27735   -6635.1522   -6547.5534   -771.20963    18938.164     8.559639 
    8020    764.24032   -6633.0581    -6547.806   -416.14287    18935.868    8.5976221 
    8030    753.70533   -6632.0705   -6547.9936    -143.8065    18933.069    8.6391994 
    8040    757.17603   -6632.5715   -6548.1074   -26.834455    18930.091    8.6838189 
    8050    772.93691   -6634.3779   -6548.1556   -322.50505     18927.03    8.7314919 
    8060    786.38876   -6635.8983   -6548.1755   -832.60024    18923.557    8.7743775 
    8070    784.28146    -6635.669   -6548.1813   -1061.4622    18919.159    8.8071605 
    8080    793.81341   -6636.7373   -6548.1863   -1134.4809     18913.55    8.8308167 
    8090    787.91251     -6636.09   -6548.1972   -505.10167    18906.693    8.8529137 
    8100    776.48511   -6634.8254   -6548.2073    330.67057    18899.261    8.8810264 
    8110    772.71776   -6634.3966   -6548.1988    630.85581    18892.114    8.9110133 
    8120    766.68594   -6633.6814   -6548.1565    850.24922    18885.646    8.9382919 
    8130    759.75955   -6632.8188   -6548.0665    999.00133     18880.12    8.9638309 
    8140    770.26961   -6633.8498   -6547.9251    1035.0346    18875.676    8.9847333 
    8150    770.90337   -6633.7243   -6547.7288    1759.6423    18872.463    8.9963985 
    8160    778.13032   -6634.2871   -6547.4855    2194.6014    18871.196    8.9963072 
    8170    788.33757   -6635.1431   -6547.2028    1910.7611    18872.339    8.9959813 
    8180    782.95489   -6634.2247   -6546.8849    1693.3207    18875.687    9.0172025 
    8190    786.66137   -6634.2744   -6546.5212    1602.7135    18881.029    9.0648894 
    8200    788.10967   -6634.0251   -6546.1103     1325.536     18888.22    9.1208875 
    8210    765.33487   -6631.0338   -6545.6595    1272.2108    18897.019    9.1650157 
    8220    759.31248   -6629.8492   -6545.1468    898.19853    18907.311    9.1908191 
    8230    770.43394    -6630.474    -6544.531   -5.6893842    18918.647    9.2012189 
    8240    777.95802   -6630.6041   -6543.8217   -1157.0924    18930.028     9.205174 
    8250    794.79989   -6631.7168   -6543.0556   -2392.4095     18940.13    9.2074932 
    8260       791.65   -6630.5934   -6542.2836   -2483.6802    18947.682    9.2128249 
    8270    797.36451   -6630.5125   -6541.5653   -2068.0533    18952.489    9.2263303 
    8280    832.37585   -6633.7864   -6540.9336   -2029.2933    18954.887    9.2488912 
    8290    825.43143   -6632.5225   -6540.4444   -631.72961    18955.113    9.2770681 
    8300    792.08531   -6628.4596   -6540.1013    1342.1999    18954.678    9.3019386 
    8310    796.03035   -6628.6376   -6539.8392    1910.1456    18955.652    9.3165723 
    8320    806.88191   -6629.6383   -6539.6294    1315.2933    18958.714    9.3198328 
    8330    805.27579   -6629.3157    -6539.486    1189.9136    18963.378    9.3088492 
    8340    797.42636   -6628.3509   -6539.3968    1297.8615    18969.484    9.2878162 
    8350    798.27795   -6628.3945   -6539.3454    1191.5233    18977.134    9.2700053 
    8360    797.53003   -6628.2908   -6539.3251    908.10515    18986.201    9.2671259 
    8370    783.42452   -6626.7104   -6539.3182    920.58226    18996.438    9.2796982 
    8380    783.12721   -6626.6705   -6539.3114    993.86665    19007.847    9.2965231 
    8390    792.89343   -6627.7486   -6539.3002    993.53584    19020.501    9.3012374 
    8400    801.92157   -6628.7618   -6539.3062     945.1464    19034.422    9.2892764 
    8410    792.30608   -6627.7215   -6539.3385    1165.1838      19049.6    9.2660092 
    8420    809.88835   -6629.7467   -6539.4024    1367.1836    19066.288    9.2396519 
    8430    823.83223   -6631.4074   -6539.5076    1000.9357    19084.679    9.2223999 
    8440    810.57469   -6630.0902   -6539.6693     512.1269    19104.424    9.2183365 
    8450    812.45563   -6630.5063   -6539.8757   -304.61197    19124.943    9.2183032 
    8460    812.97983   -6630.8006   -6540.1115   -1134.3792    19145.334    9.2191195 
    8470    807.36406   -6630.4489   -6540.3863     -2221.59    19164.556    9.2233998 
[...]
   22890    755.17269    -6635.445   -6551.2044   -720.53785    18984.522    25.578308 
   22900    722.21765   -6631.2283   -6550.6639   -254.63431     18989.62    25.585581 
   22910    725.26698   -6630.8633   -6549.9587   -93.801873    18994.391    25.598202 
   22920    761.16506   -6633.9731    -6549.064   -501.58953    18998.973    25.617347 
   22930    768.49966   -6633.8064   -6548.0791   -469.20528    19002.992    25.646255 
   22940    766.71385   -6632.6585   -6547.1304   -225.72647    19006.469    25.684634 
   22950    776.91349   -6632.9317   -6546.2659    -21.44267    19009.669    25.732559 
   22960    782.82343    -6632.846   -6545.5209    655.01065    19012.896    25.785627 
   22970    777.80702   -6631.6738   -6544.9083    1207.9403    19016.851     25.83222 
   22980     788.0116   -6632.3105   -6544.4066    940.55514    19022.079    25.861714 
   22990    774.71107   -6630.3927   -6543.9725    594.37669    19028.359     25.87725 
   23000    770.35796    -6629.519   -6543.5844    184.74256    19035.293    25.889322 
   23010    781.98338   -6630.4417   -6543.2102   -424.48301    19042.374     25.90861 
   23020    796.49902     -6631.71   -6542.8594   -832.99217    19048.923    25.945957 
   23030    788.31212    -6630.482   -6542.5446   -648.17492    19054.528    25.995929 
   23040    796.88131   -6631.1682   -6542.2748   -532.10197    19059.329    26.041585 
   23050    818.58541   -6633.3535    -6542.039   -761.95868    19063.452    26.083432 
   23060    828.69256   -6634.3051   -6541.8632   -856.92925    19066.698    26.125602 
   23070    818.36543    -6633.076   -6541.7861   -786.35193     19068.93    26.165431 
   23080    777.80683   -6628.5311   -6541.7656   -152.78273    19070.317    26.205095 
   23090    766.78786    -6627.278   -6541.7416   -299.58926    19071.439    26.240423 
   23100    768.79404    -6627.436   -6541.6758   -1325.5302    19072.137    26.264521 
   23110    775.72548   -6628.1151   -6541.5818   -1969.9575    19071.349    26.267018 
   23120    756.57251   -6625.8454   -6541.4486    -1769.736    19068.383    26.256141 
   23130    768.52173   -6626.9885   -6541.2588   -1508.8797    19063.406    26.250269 
   23140    787.08676   -6628.7991   -6540.9984   -1226.6899    19056.747    26.259473 
   23150    800.96121   -6630.0664    -6540.718    -1117.301    19048.718     26.28464 
   23160    811.01595   -6630.9272   -6540.4571   -1282.1069    19039.451    26.319097 
   23170      809.047   -6630.4957   -6540.2453   -1423.7656    19028.824    26.353226 
   23180     796.2456   -6628.9038   -6540.0814   -1318.5121    19016.718    26.383728 
   23190     803.6611   -6629.5931   -6539.9435   -1221.9125    19003.241    26.411009 
   23200    810.49349   -6630.2457   -6539.8339   -1189.4531    18988.501    26.428598 
   23210    797.28958   -6628.6915   -6539.7527   -196.56926    18972.668    26.424459 
   23220    811.71877   -6630.2411   -6539.6926    1407.5326    18956.852    26.400643 
   23230    812.60938   -6630.3158    -6539.668    3042.0328    18942.821    26.377593 
   23240    800.67191   -6629.0116   -6539.6954    3519.5122    18932.296    26.369477 
   23250    811.37052   -6630.2885   -6539.7789    2616.4699    18925.752    26.377829 
   23260    821.61343   -6631.5802    -6539.928    2167.6993    18922.321    26.399297 
   23270    831.39211   -6632.9207   -6540.1777    2255.4472    18921.453    26.424811 
   23280    836.75652   -6633.9072   -6540.5657    1697.3689    18923.086    26.443942 
   23290    824.98655   -6633.1427   -6541.1142    900.38083    18926.608     26.45655 
   23300    797.59501   -6630.7416   -6541.7687    703.53024    18931.201    26.480265 
   23310    808.49601   -6632.6803   -6542.4914    -81.69018    18936.492    26.518257 
   23320    807.53088   -6633.3588   -6543.2775   -589.80018    18941.682    26.557752 
   23330    779.90332   -6631.0597   -6544.0603    -301.6339    18946.247    26.593949 
   23340    780.36129     -6631.83   -6544.7795   -484.13271    18950.372    26.628205 
   23350    785.03541   -6632.9908   -6545.4189   -669.83558    18953.912    26.656718 
   23360    784.14877   -6633.4568   -6545.9838   -542.93234    18956.681    26.667663 
   23370     765.5187   -6631.8503   -6546.4556    296.80868    18958.906    26.661163 
   23380    759.54147   -6631.5345   -6546.8065    794.15134    18961.407    26.651817 
   23390    777.26306   -6633.7739   -6547.0691    961.06706     18964.76    26.648633 
   23400    761.35758    -6632.194   -6547.2635     1276.458    18969.214    26.652885 
   23410    744.73351   -6630.4537   -6547.3776     1495.199    18975.077    26.662082 
   23420    767.44097   -6633.0211   -6547.4119    1097.9589    18982.532    26.670769 
   23430    804.07845      -6637.1   -6547.4038    99.865651    18991.127    26.681368 
   23440    810.53509   -6637.8443   -6547.4279   -379.49714    18999.827    26.689985 
   23450    771.37965   -6633.5249   -6547.4763   -61.940003    19008.108    26.682743 
   23460    773.29701   -6633.7693   -6547.5068   -134.37698    19016.204    26.660499 
   23470    785.52628   -6635.1247   -6547.4981   -293.73652    19024.083    26.641106 
   23480    788.60807   -6635.4505   -6547.4801   -411.21924    19031.564    26.631068 
   23490    780.35989   -6634.5108   -6547.4605   -753.82812    19038.474    26.625579 
   23500    769.15546   -6633.2163   -6547.4159   -1252.4995    19044.452    26.620566 
   23510    778.89637   -6634.2321    -6547.345   -1837.6577    19048.937     26.61165 
   23520    772.32728   -6633.4044   -6547.2502   -1608.4599    19051.381    26.601233 
   23530    767.71569   -6632.7701   -6547.1302   -1372.8935     19051.95    26.597457 
   23540     772.5905   -6633.1522   -6546.9686   -1406.9248    19050.904    26.604517 
   23550    783.40605   -6634.1611    -6546.771   -1555.9256    19048.229    26.615101 
   23560    788.88781   -6634.5579   -6546.5563   -1476.8462    19043.806    26.625715 
   23570    781.50184    -6633.504   -6546.3263    -1707.641    19037.668    26.636703 
   23580    790.63344   -6634.2786   -6546.0822   -2281.9967    19029.569    26.639842 
   23590    787.12515   -6633.6296   -6545.8246   -2442.6073    19018.943    26.633131 
   23600    786.29657   -6633.2617   -6545.5491   -2424.6297    19005.583    26.617423 
   23610    802.36838   -6634.7657   -6545.2603    -2059.143    18989.567     26.59529 
   23620    795.93894   -6633.7501   -6544.9619   -1436.7447    18971.332    26.575943 
   23630    820.79749   -6636.2256   -6544.6644   -1391.0774    18951.529    26.568312 
   23640    834.61071   -6637.4855   -6544.3834   -1274.0999    18930.288    26.574017 
   23650    814.93267    -6635.062    -6544.155   -6.8750885    18907.888    26.579701 
   23660    810.41372   -6634.3557   -6543.9529    1094.1849     18885.64     26.57268 
   23670    812.16049   -6634.3611   -6543.7633    1514.8337    18864.761    26.547707 
   23680    810.62274   -6634.0352    -6543.609    1648.4892    18845.754    26.521001 
   23690     781.7791   -6630.6846   -6543.4759    2271.9665    18828.841    26.503253 
   23700    774.84583   -6629.7493   -6543.3141    2990.3804    18814.674    26.490486 
   23710    795.90232   -6631.8731    -6543.089    3282.5055    18803.966    26.487433 
   23720    793.79944   -6631.3653   -6542.8158    3166.3479    18797.012    26.511081 
   23730    812.54501    -6633.162   -6542.5214    2600.9576    18793.645    26.566865 
   23740    827.56775   -6634.5542   -6542.2377    2291.9484    18793.276    26.642103 
   23750    822.06489   -6633.7109   -6542.0083    2277.0152    18795.513    26.719266 
   23760     820.2488   -6633.3421   -6541.8422    2572.4109    18800.318    26.779874 
   23770     807.4948   -6631.8044   -6541.7271    3104.4916    18808.016    26.817057 
   23780    817.33231    -6632.838   -6541.6633    2755.2886    18819.053    26.836753 
   23790    816.88758    -6632.785     -6541.66    2248.4058    18833.094    26.846338 
   23800    805.40716   -6631.5754   -6541.7311    2354.3915     18849.64    26.860624 
   23810    800.18969   -6631.1243   -6541.8619    2307.9227    18868.704    26.897002 
   23820    778.50893   -6628.8612   -6542.0173    2077.8268    18890.223    26.964517 
   23830    789.24734   -6630.2157    -6542.174    1384.8016    18913.888    27.040832 
   23840    805.55794    -6632.203   -6542.3418    932.42556     18938.98    27.084662 
   23850    797.49656   -6631.5128   -6542.5509    854.86537     18964.96    27.089599 
   23860    780.77507   -6629.8888   -6542.7922    457.23086    18991.647    27.087043 
   23870    756.15752   -6627.3636   -6543.0131    12.824727    19018.622    27.095796 
   23880    745.48713   -6626.3294   -6543.1692    -327.6674    19045.374    27.112555 
   23890    776.00185   -6629.8185   -6543.2543   -1475.1322    19071.394    27.135234 
   23900    791.02597   -6631.5313   -6543.2912   -2553.9802    19095.471       27.162 
   23910    803.52844   -6632.9759   -6543.3411   -3342.1135    19116.352    27.181377 
   23920    805.29744   -6633.2668   -6543.4346   -3754.9117    19133.171    27.185428 
   23930    800.80238   -6632.9163   -6543.5856   -3962.5375    19145.463    27.173718 
   23940    793.27571   -6632.2796   -6543.7885   -4125.4704    19153.011    27.159403 
   23950     781.0922   -6631.1618   -6544.0297   -3954.5216     19155.71    27.159547 
   23960    768.05782   -6629.9491   -6544.2711   -3591.2987    19153.798    27.167817 
   23970    782.64712   -6631.8186   -6544.5131   -3188.1042    19147.738    27.177555 
   23980    770.00008   -6630.6433   -6544.7486   -2543.4751    19138.072    27.188328 
   23990    763.00864    -6630.074   -6544.9592   -2022.0492    19125.569    27.199796 
   24000    780.49305   -6632.2097   -6545.1445   -1765.8649    19110.839    27.210102 
   24010    781.27248   -6632.4711   -6545.3189   -1224.3295    19094.273    27.214418 
   24020    778.06383   -6632.2822    -6545.488   -849.49766    19076.464    27.212945 
   24030    774.59788    -6632.055   -6545.6474   -529.42797    19057.885    27.206257 
   24040    766.70753   -6631.3077   -6545.7804   -557.07557    19038.887    27.188995 
   24050    768.32306   -6631.5872   -6545.8796   -900.44789     19019.47    27.155158 
   24060    781.35507   -6633.1048   -6545.9435   -1352.2496    18999.245    27.110925 
   24070    805.13076   -6635.8232   -6546.0096   -1382.0397    18977.759    27.069424 
   24080    810.76994   -6636.5535   -6546.1109   -730.31839    18955.055    27.032023 
   24090    801.91981   -6635.7232   -6546.2679   -55.778985    18931.827    26.991795 
   24100     784.5067   -6633.9637   -6546.4508    690.74033     18908.88    26.948094 
   24110     790.5865   -6634.8537   -6546.6625    682.74725    18886.941    26.910414 
   24120    791.71146   -6635.2306    -6546.914    819.42925    18866.101    26.888023 
   24130    774.58415    -6633.591   -6547.1849    1437.5761    18846.539    26.881404 
   24140    781.92018   -6634.6997   -6547.4753    1548.9016    18828.803    26.881051 
   24150    774.96544   -6634.2216   -6547.7731    1776.6283    18813.082    26.874903 
   24160     778.0485   -6634.8752   -6548.0828    1634.0593    18799.523     26.85467 
   24170    781.58299   -6635.5918    -6548.405    1472.8423    18787.988    26.815872 
   24180      779.258   -6635.6766   -6548.7492    1719.6206    18778.292    26.769562 
   24190    774.78929    -6635.525   -6549.0961    2030.2653    18770.656    26.740946 
   24200    762.90762   -6634.5386   -6549.4351    1941.2001    18765.342    26.734705 
   24210     761.0032   -6634.6415   -6549.7504    1579.7537    18762.244    26.737246 
   24220    768.44176   -6635.7611   -6550.0403     1195.025    18760.954    26.743521 
   24230     769.7677    -6636.181   -6550.3122    1262.2744    18761.061    26.759411 
   24240    771.70213   -6636.6504   -6550.5659    1548.0151    18762.606    26.787482 
   24250    774.95575   -6637.2573   -6550.8099    1923.5076    18765.869    26.819729 
   24260    769.91801    -6636.919   -6551.0334    2456.3164    18771.285    26.839835 
   24270    783.14965   -6638.6129   -6551.2514     2318.986    18779.325    26.837985 
   24280    795.89962   -6640.2674   -6551.4836    2065.1805     18789.89    26.825702 
   24290    798.51741   -6640.8242   -6551.7484    1650.9531    18802.651    26.813501 
   24300    771.07727   -6638.0751   -6552.0603     1585.504    18817.186    26.797387 
   24310     734.3386   -6634.2646   -6552.3481    1894.1972    18833.404    26.778354 
   24320    734.26135   -6634.4698   -6552.5619     1856.343    18851.565    26.769706 
   24330    750.78098   -6636.4324   -6552.6816    1150.0405    18871.586    26.790909 
   24340     745.3198   -6635.8568   -6552.7152    326.20805    18892.731    26.840351 
   24350    743.01159   -6635.5323   -6552.6483   -957.10142    18914.008    26.888442 
   24360    756.69933   -6636.8713   -6552.4604   -2185.7411    18934.022    26.918705 
   24370    773.35929   -6638.4328   -6552.1634   -3101.0178    18951.392    26.935527 
   24380     787.5246   -6639.6429   -6551.7933   -3084.4855    18965.164      26.9377 
   24390    781.10591   -6638.5088   -6551.3752   -2290.7102    18975.364    26.926017 
   24400    778.06472   -6637.7058   -6550.9115   -1602.8809    18982.833    26.904126 
   24410    771.76712   -6636.4722   -6550.3804   -947.93331    18988.412    26.878447 
   24420    762.34782   -6634.8149   -6549.7738   -624.68482    18992.838    26.855112 
   24430    772.18393   -6635.2236   -6549.0853   -808.41718    18996.447    26.831002 
   24440    773.42451   -6634.6095   -6548.3328   -501.05567    18999.163     26.80475 
   24450    796.94426   -6636.4632   -6547.5629   -581.75315    19001.234    26.792214 
   24460    815.90998   -6637.8455   -6546.8295   -1198.8864     19002.55    26.801062 
   24470    788.53217   -6634.1586   -6546.1966   -857.96549    19002.615    26.819455 
   24480    787.98494   -6633.5609     -6545.66   -667.52019     19001.68    26.833035 
   24490    803.65394   -6634.8318    -6545.183   -1152.0908    18999.912    26.835978 
   24500    805.16291    -6634.606   -6544.7889   -1119.2497    18996.907    26.850288 
   24510    797.14804   -6633.3982   -6544.4751   -328.91356     18992.72    26.887777 
   24520    817.95465   -6635.4724   -6544.2284    199.92675    18988.146    26.936361 
   24530    832.28239   -6636.9062   -6544.0638    147.61026    18983.768    26.980792 
   24540    821.29425   -6635.6262   -6544.0096    443.30749    18979.618    26.998959 
   24550    793.97667   -6632.5969   -6544.0276    1121.4441    18976.045    26.978717 
   24560    780.41395    -6631.116   -6544.0596    946.83773    18973.688    26.923864 
   24570     798.2036   -6633.1249   -6544.0841    662.57477    18972.436    26.863728 
   24580     827.5544   -6636.4548   -6544.1399    634.42051    18971.984    26.829474 
   24590    826.41643   -6636.4626   -6544.2746    772.41797    18972.277    26.834758 
   24600    812.44498   -6635.1256   -6544.4961    911.28394    18973.445    26.872563 
   24610    806.24324   -6634.7096   -6544.7719    896.53688    18975.635    26.922405 
   24620      801.065   -6634.4472   -6545.0872    1328.0016      18978.9    26.969061 
   24630    800.54083   -6634.7265    -6545.425     1643.541    18983.664    27.000934 
   24640     814.2695   -6636.6324   -6545.7994    1680.0599    18990.264    27.014817 
   24650    794.88251   -6634.8825   -6546.2122    2070.1079    18998.818    27.028345 
   24660    774.08806     -6632.97   -6546.6193    2091.0545    19009.706    27.058754 
   24670    786.84289   -6634.7649   -6546.9914    1146.4214    19022.892    27.112854 
   24680    807.39279   -6637.4188   -6547.3529   -2.6401577    19037.372    27.185371 
   24690    802.37689   -6637.2394    -6547.733    -1046.101    19051.822    27.257166 
   24700    784.78054   -6635.6601   -6548.1166   -1429.4542      19065.1    27.308647 
   24710    778.35303   -6635.2965     -6548.47   -1329.4623    19076.738    27.343343 
   24720    788.48852   -6636.7507   -6548.7936   -1439.0189    19086.794     27.38139 
   24730    797.45443   -6638.0574   -6549.1001   -1977.7414     19095.12    27.424958 
   24740    801.35607   -6638.8083   -6549.4158   -2410.4075    19101.137    27.462371 
   24750    780.13411    -6636.759   -6549.7339   -1912.0236    19104.439     27.48985 
   24760     778.6145   -6636.8781   -6550.0224   -1012.9115    19105.559    27.521488 
   24770    778.68916   -6637.1391   -6550.2752   -184.76329    19105.482    27.572511 
   24780     762.1269   -6635.4895   -6550.4731    431.25953    19105.181     27.63425 
   24790    765.78948   -6636.0315   -6550.6065    590.65482    19105.349    27.689706 
   24800    756.14339   -6635.0236   -6550.6746    847.72804    19106.226    27.734318 
   24810    733.26421   -6632.4587   -6550.6619    930.28158    19108.072    27.762932 
   24820    743.69166   -6633.5205   -6550.5606    636.53766     19110.96    27.771882 
   24830    753.31356   -6634.4182   -6550.3849    634.84854    19114.622    27.770423 
   24840    757.31135   -6634.6422    -6550.163     494.8078    19119.003    27.768559 
   24850    760.06888   -6634.6972   -6549.9104    163.50044    19123.954    27.776789 
   24860    741.60811   -6632.3567   -6549.6292   -2.7158493    19129.114    27.803528 
   24870     741.2335   -6631.9916   -6549.3059   -59.548363    19134.294    27.838094 
   24880    765.48716   -6634.3372   -6548.9459    -482.9493    19139.346    27.871775 
   24890    773.42283   -6634.8688   -6548.5923   -351.04006     19143.87    27.908298 
   24900    776.86446    -6634.934   -6548.2736    66.003661    19148.005    27.950741 
   24910    783.07434     -6635.34   -6547.9868    374.04549    19152.207    27.988543 
   24920    805.00177   -6637.5425   -6547.7434    656.07332    19156.839    28.007633 
   24930    801.61554   -6636.9815     -6547.56    1005.8139    19162.243    28.012613 
   24940    780.56215   -6634.5052   -6547.4323    755.77763    19168.759    28.021409 
   24950    775.76404   -6633.8472   -6547.3095    -189.7144    19176.097    28.046163 
   24960    791.59887   -6635.4715   -6547.1675   -1422.6356    19183.166    28.081939 
   24970    813.10516   -6637.7466   -6547.0435   -2202.2205    19188.596    28.125342 
   24980    794.67655   -6635.6174   -6546.9701   -1637.3837     19191.57     28.17386 
   24990    769.16564   -6632.7198   -6546.9182   -509.53733     19192.68    28.212105 
   25000    781.55384    -6634.034   -6546.8505   -130.60025     19193.11    28.223924 
Loop time of 16380.2 on 16 procs for 20000 steps with 864 atoms

Performance: 0.105 ns/day, 227.503 hours/ns, 1.221 timesteps/s
96.6% CPU use with 16 MPI tasks x 1 OpenMP threads

MPI task timing breakdown:
Section |  min time  |  avg time  |  max time  |%varavg| %total
---------------------------------------------------------------
Pair    | 10445      | 14164      | 16020      |1311.7 | 86.47
Bond    | 0.0022781  | 0.0051547  | 0.0097268  |   2.9 |  0.00
Neigh   | 0.22617    | 0.29268    | 0.39774    |   8.4 |  0.00
Comm    | 310.15     | 1784.2     | 5883.5     |3753.9 | 10.89
Output  | 1.3454     | 1.3708     | 1.7447     |   8.2 |  0.01
Modify  | 5.0339     | 430.2      | 939.87     |1881.9 |  2.63
Other   |            | 0.09713    |            |       |  0.00

Nlocal:        54.0000 ave          72 max          40 min
Histogram: 2 0 2 2 5 2 1 0 1 1
Nghost:        515.750 ave         617 max         460 min
Histogram: 3 1 6 1 1 2 0 0 0 2
Neighs:         0.00000 ave           0 max           0 min
Histogram: 16 0 0 0 0 0 0 0 0 0
FullNghs:      2479.88 ave        3808 max        1534 min
Histogram: 2 1 2 4 1 3 0 1 1 1

Total # of neighbors = 39678
Ave neighs/atom = 45.923611
Ave special neighs/atom = 0.0000000
Neighbor list builds = 2000
Dangerous builds = 2000
unfix   3
                
Total wall time: 5:39:42
