LAMMPS (2 Aug 2023)
OMP_NUM_THREADS environment is not set. Defaulting to 1 thread. (src/comm.cpp:98)
  using 1 OpenMP thread(s) per MPI task
read_restart    ../structure.ready
Reading restart file ...
  restart file = 2 Aug 2023, LAMMPS = 2 Aug 2023
  restoring atom style full from restart
  orthogonal box = (-0.19987933 -0.17334996 -8.6459149) to (25.130492 25.103962 83.437752)
  1 by 1 by 1 MPI processor grid
  pair style chgnet/gpu stores no restart info
  1536 atoms
Finding 1-2 1-3 1-4 neighbors ...
  special bond factors lj:    0        0        0       
  special bond factors coul:  0        0        0       
     0 = max # of 1-2 neighbors
     0 = max # of 1-3 neighbors
     0 = max # of 1-4 neighbors
     1 = max # of special neighbors
  special bonds CPU = 0.000 seconds
  read_restart CPU = 0.003 seconds

pair_style      chgnet/gpu /nfs/turbo/coe-venkvis/ziqiw-turbo/LAMMPSs/lammps-ASC/potentials/CHGNET
pair_coeff      * * 0.3.0 Cl K Li

neighbor        0.3 bin
neigh_modify    delay 10

timestep	    0.001
compute	        msd all msd
Resetting peratom fix info from restart file:
  fix style: STORE/ATOM, fix ID: msd_COMPUTE_STORE
thermo_style	custom step temp pe etotal press vol c_msd[4]
thermo	        10
dump	        1 all custom 10 xyz-mix.dump type id x y z
dump	        2 all custom 10 force-mix.dump type id fx fy fz

fix             3 gLiquid npt temp 1500 172.0 $(100.0*dt) z 1.01325 1.01325 $(1000.0*dt) couple none
fix             3 gLiquid npt temp 1500 172.0 0.10000000000000000555 z 1.01325 1.01325 $(1000.0*dt) couple none
fix             3 gLiquid npt temp 1500 172.0 0.10000000000000000555 z 1.01325 1.01325 1 couple none
run             10000
All restart file peratom fix info was re-assigned
Neighbor list info ...
  update: every = 1 steps, delay = 10 steps, check = yes
  max neighbors/atom: 2000, page size: 100000
  master list distance cutoff = 6.3
  ghost atom cutoff = 6.3
  binsize = 3.15, bins = 9 9 30
  1 neighbor lists, perpetual/occasional/extra = 1 0 0
  (1) pair chgnet/gpu, perpetual
      attributes: full, newton on
      pair build: full/bin
      stencil: full/bin/3d
      bin: standard
Per MPI rank memory allocation (min/avg/max) = 6.538 | 6.538 | 6.538 Mbytes
   Step          Temp          PotEng         TotEng         Press          Volume        c_msd[4]   
     40000   1475.1074     -5374.5366     -5081.8542      3094.8123      58959.67       119.19679    
     40010   1463.2631     -5372.1288     -5081.7964      2934.5545      58960.045      119.30063    
     40020   1468.8964     -5373.0641     -5081.614       2808.6776      58960.97       119.39762    
     40030   1491.6735     -5377.3037     -5081.3343      2752.2836      58962.146      119.48646    
     40040   1518.0299     -5382.2007     -5081.0018      2842.7115      58963.359      119.58409    
     40050   1552.7264     -5388.8628     -5080.7796      2728.95        58964.515      119.70689    
     40060   1539.7651     -5386.2426     -5080.7311      2878.1904      58965.52       119.84621    
     40070   1515.4652     -5381.5741     -5080.8841      3081.042       58966.502      119.97064    
     40080   1490.5501     -5376.8888     -5081.1423      3308.7369      58967.687      120.0945     
     40090   1489.8266     -5377.054      -5081.451       3496.5232      58969.249      120.23692    
     40100   1473.7787     -5374.1953     -5081.7765      3785.6464      58970.987      120.3831     
     40110   1474.2509     -5374.6216     -5082.1091      3824.2494      58972.883      120.51631    
     40120   1488.6939     -5377.8186     -5082.4404      3566.8254      58975.187      120.64646    
     40130   1482.1606     -5376.9258     -5082.8439      3423.1594      58978.064      120.79364    
     40140   1472.8198     -5375.5312     -5083.3027      3271.3077      58981.674      120.94622    
     40150   1472.4472     -5375.9839     -5083.8293      2992.622       58985.935      121.07803    
     40160   1471.7407     -5376.4384     -5084.4239      2782.0372      58990.518      121.16778    
     40170   1477.5014     -5378.2727     -5085.1153      2778.2199      58995.239      121.21887    
     40180   1468.5753     -5377.3154     -5085.9291      3075.9113      59000.107      121.27728    
     40190   1455.2787     -5375.5895     -5086.8413      3322.9416      59005.324      121.3905     
     40200   1453.3463     -5376.1835     -5087.8188      3220.0376      59010.895      121.55041    
     40210   1447.4959     -5376.0593     -5088.8554      3118.7357      59016.574      121.7153     
     40220   1441.1826     -5375.8528     -5089.9015      3036.2867      59022.372      121.86983    
     40230   1459.9717     -5380.6494     -5090.9701      2711.5967      59028.431      122.03413    
     40240   1474.1724     -5384.5884     -5092.0915      2301.8187      59034.625      122.2006     
     40250   1468.5529     -5384.6865     -5093.3046      2035.5308      59040.658      122.35402    
     40260   1450.9179     -5382.4299     -5094.547       1960.8379      59046.125      122.49874    
     40270   1459.9797     -5385.4819     -5095.8011      1842.7594      59050.909      122.63634    
     40280   1451.4349     -5385.0399     -5097.0544      2000.632       59055.04       122.74544    
     40290   1415.7336     -5379.1187     -5098.2168      2475.933       59058.77       122.81759    
     40300   1406.5946     -5378.2954     -5099.2069      2813.7786      59062.617      122.85996    
     40310   1407.9845     -5379.3494     -5099.9851      2875.8238      59067.151      122.89159    
     40320   1420.6511     -5382.4592     -5100.5817      2545.6076      59072.545      122.92884    
     40330   1419.2557     -5382.6174     -5101.0168      2294.209       59078.707      122.98704    
     40340   1422.3679     -5383.5487     -5101.3305      2188.8074      59085.591      123.06607    
     40350   1430.2513     -5385.3051     -5101.5227      2172.4753      59093.217      123.16361    
     40360   1445.7505     -5388.4962     -5101.6386      2232.9181      59101.618      123.2776     
     40370   1455.4239     -5390.4998     -5101.7228      2386.4078      59110.67       123.40138    
     40380   1449.2004     -5389.3638     -5101.8217      2609.1258      59120.127      123.51477    
     40390   1458.0153     -5391.2223     -5101.9312      2600.047       59129.475      123.60832    
     40400   1429.5522     -5385.7104     -5102.0668      2928.3591      59138.15       123.69092    
     40410   1398.9746     -5379.7064     -5102.1298      3458.6558      59146.257      123.78202    
     40420   1417.5478     -5383.3162     -5102.0544      3334.7612      59154.261      123.89266    
     40430   1436.346      -5386.8596     -5101.868       2870.6449      59162.271      124.01796    
     40440   1439.6797     -5387.2793     -5101.6262      2478.9587      59170.011      124.14404    
     40450   1441.7746     -5387.3965     -5101.3277      2262.8302      59176.813      124.25228    
     40460   1431.3403     -5384.993      -5100.9946      2376.2246      59182.105      124.35399    
     40470   1435.5809     -5385.4299     -5100.5901      2355.4085      59185.947      124.48835    
     40480   1432.4814     -5384.3097     -5100.0849      2417.2841      59188.565      124.64147    
     40490   1418.2636     -5380.8754     -5099.4716      2446.3046      59190.244      124.78421    
     40500   1426.8603     -5381.8158     -5098.7063      2177.753       59191.102      124.89566    
     40510   1449.6751     -5385.3951     -5097.7588      1915.1012      59190.854      124.97775    
     40520   1472.6808     -5388.9086     -5096.7076      1968.95        59189.204      125.0533     
     40530   1487.3353     -5390.7755     -5095.6669      2183.8229      59186.506      125.14769    
     40540   1483.5175     -5389.0598     -5094.7087      2352.0482      59183.353      125.25625    
     40550   1482.6853     -5388.0732     -5093.8872      2302.5259      59180.034      125.34027    
     40560   1485.3995     -5387.9374     -5093.2129      2101.6167      59176.462      125.40054    
     40570   1476.7285     -5385.7255     -5092.7214      2124.2972      59172.405      125.47543    
     40580   1451.6883     -5380.4271     -5092.3914      2510.7617      59167.75       125.56286    
     40590   1440.1401     -5377.9047     -5092.1602      2757.7346      59162.771      125.67897    
     40600   1444.3711     -5378.5653     -5091.9814      2898.6098      59157.818      125.84254    
     40610   1423.8084     -5374.3674     -5091.8635      3163.87        59153.344      126.02428    
     40620   1437.8979     -5377.0957     -5091.7962      2998.3557      59149.845      126.19717    
     40630   1427.9539     -5375.1057     -5091.7792      2921.1431      59147.052      126.36695    
     40640   1415.371      -5372.6382     -5091.8083      2804.6045      59144.656      126.54626    
     40650   1416.3542     -5372.8773     -5091.8524      2727.2368      59142.579      126.71697    
     40660   1420.583      -5373.7742     -5091.9102      2940.3208      59140.953      126.85142    
     40670   1436.2491     -5376.9924     -5092.02        3327.553       59140.04       126.96512    
     40680   1460.914      -5382.104      -5092.2377      3414.937       59139.97       127.08816    
     40690   1473.2778     -5385.0234     -5092.704       3216.8241      59140.655      127.21524    
     40700   1466.535      -5384.4657     -5093.4842      2801.5992      59141.785      127.34557    
     40710   1449.1412     -5382.1069     -5094.5766      2481.4399      59142.955      127.47805    
     40720   1427.9634     -5379.252      -5095.9236      2442.6922      59144.072      127.61753    
     40730   1416.5513     -5378.5052     -5097.4412      2626.051       59145.214      127.77609    
     40740   1401.6065     -5377.1155     -5099.0167      2866.1439      59146.534      127.95222    
     40750   1414.4487     -5381.2551     -5100.6083      3018.1619      59148.189      128.12996    
     40760   1428.282      -5385.6083     -5102.2167      3001.057       59150.268      128.30548    
     40770   1460.9727     -5393.7671     -5103.8892      2540.6625      59152.745      128.49094    
     40780   1444.3506     -5392.1898     -5105.61        2347.3826      59155.228      128.68326    
     40790   1433.155      -5391.6859     -5107.3274      2282.9158      59157.4        128.86249    
     40800   1425.0901     -5391.6844     -5108.9262      2217.4411      59159.153      129.01182    
     40810   1419.0304     -5391.9434     -5110.3874      2254.711       59160.206      129.13722    
     40820   1386.4182     -5386.7688     -5111.6836      2600.2031      59160.258      129.26113    
     40830   1344.8248     -5379.5186     -5112.686       3011.9499      59159.311      129.38845    
     40840   1362.1425     -5383.6915     -5113.423       2731.2522      59157.323      129.51212    
     40850   1369.9474     -5385.7756     -5113.9584      2427.1849      59154.087      129.62996    
     40860   1387.6172     -5389.7058     -5114.3827      2091.5423      59149.655      129.74955    
     40870   1418.5169     -5396.2551     -5114.8011      1733.3083      59144.056      129.87649    
     40880   1420.0688     -5397.0736     -5115.3116      1781.1782      59136.9        130.00081    
     40890   1415.7191     -5396.826      -5115.9271      1920.5056      59128.181      130.10542    
     40900   1396.0045     -5393.6173     -5116.63        2111.8918      59118.373      130.19915    
     40910   1382.8011     -5391.7167     -5117.3491      2138.4839      59108.136      130.30589    
     40920   1386.8065     -5393.2408     -5118.0786      1964.1806      59097.769      130.42963    
     40930   1367.937      -5390.2108     -5118.7925      2126.7554      59087.071      130.56744    
     40940   1352.103      -5387.7308     -5119.4542      2321.4114      59076.279      130.70871    
     40950   1340.6296     -5386.0082     -5120.0081      2322.7481      59065.551      130.84863    
     40960   1345.4241     -5387.3906     -5120.4392      2215.4811      59054.811      130.98823    
     40970   1361.9662     -5391.0146     -5120.781       2235.7277      59043.956      131.12613    
     40980   1349.1342     -5388.7471     -5121.0595      2436.9751      59033.032      131.25407    
     40990   1348.2801     -5388.8046     -5121.2865      2578.3596      59022.272      131.37038    
     41000   1364.5286     -5392.1884     -5121.4463      2517.9367      59011.87       131.49064    
     41010   1380.3164     -5395.4542     -5121.5797      2294.8636      59002.001      131.62032    
     41020   1404.114      -5400.405      -5121.8087      2074.7819      58992.578      131.75286    
     41030   1408.6907     -5401.6893     -5122.1849      1963.3502      58983.315      131.88159    
     41040   1411.4638     -5402.8319     -5122.7773      1953.4601      58973.841      131.99914    
     41050   1401.4654     -5401.6798     -5123.609       2182.1735      58963.831      132.1027     
     41060   1368.0334     -5396.0435     -5124.606       2668.6936      58953.335      132.19409    
     41070   1358.5984     -5395.2506     -5125.6852      2910.184       58942.561      132.27536    
     41080   1353.9875     -5395.4572     -5126.8066      2883.9859      58931.554      132.35024    
     41090   1350.9022     -5395.9717     -5127.9333      2688.7035      58920.196      132.42467    
     41100   1349.1969     -5396.7872     -5129.0872      2604.2244      58908.241      132.50291    
     41110   1327.4205     -5393.5774     -5130.1982      2681.266       58895.627      132.58981    
     41120   1315.1243     -5392.1298     -5131.1903      2668.2037      58882.414      132.6863     
     41130   1323.4011     -5394.6365     -5132.0547      2434.6473      58868.594      132.79277    
     41140   1315.0944     -5393.7286     -5132.7951      2423.6964      58854.017      132.91783    
     41150   1300.3055     -5391.3882     -5133.3889      2487.7885      58838.491      133.05413    
     41160   1298.1986     -5391.3838     -5133.8026      2312.1562      58821.966      133.17681    
     41170   1309.2453     -5393.8198     -5134.0468      2151.3994      58804.537      133.28333    
     41180   1294.8574     -5391.0608     -5134.1425      2251.9119      58786.476      133.38144    
     41190   1266.2211     -5385.2728     -5134.0364      2446.5692      58768.117      133.45893    
     41200   1270.2299     -5385.7189     -5133.6871      2319.5877      58749.518      133.50509    
     41210   1296.681      -5390.3496     -5133.0695      2118.7607      58730.651      133.54592    
     41220   1333.4272     -5396.8436     -5132.2726      2031.6195      58711.478      133.59481    
     41230   1365.162      -5402.2712     -5131.4035      2049.5836      58691.927      133.65042    
     41240   1383.7022     -5405.1383     -5130.592       2142.4892      58672.033      133.71057    
     41250   1380.9759     -5403.9313     -5129.9259      2352.8433      58651.809      133.74948    
     41260   1362.5656     -5399.7583     -5129.4058      2593.5357      58631.373      133.76963    
     41270   1338.6243     -5394.5808     -5128.9786      2858.5019      58611.039      133.79045    
     41280   1344.4189     -5395.3213     -5128.5693      2706.8359      58591.134      133.81421    
     41290   1365.0155     -5399.0032     -5128.1645      2381.9163      58571.433      133.84088    
     41300   1381.7025     -5401.9948     -5127.8452      2141.8451      58551.367      133.86376    
     41310   1393.6523     -5404.2312     -5127.7106      1982.5212      58530.455      133.8833     
     41320   1370.6766     -5399.777      -5127.8151      2098.9222      58508.544      133.91341    
     41330   1346.7501     -5395.3579     -5128.1434      2240.8253      58485.896      133.95424    
     41340   1346.964      -5395.9746     -5128.7177      2226.7128      58462.683      133.99647    
     41350   1333.4808     -5394.1501     -5129.5685      2277.5293      58438.704      134.03537    
     41360   1322.4287     -5393.1281     -5130.7393      2276.795       58413.911      134.08402    
     41370   1297.9846     -5389.6853     -5132.1466      2384.9422      58388.312      134.16045    
     41380   1297.9308     -5391.252      -5133.7239      2149.2192      58361.809      134.2456     
     41390   1309.892      -5395.2799     -5135.3786      1982.0473      58334.202      134.32311    
     41400   1335.5209     -5402.1196     -5137.1331      1851.1925      58305.41       134.40156    
     41410   1335.7554     -5403.988      -5138.955       2105.0732      58275.323      134.4918     
     41420   1335.2972     -5405.7202     -5140.7781      2169.9773      58243.891      134.58305    
     41430   1338.8708     -5408.202      -5142.5509      2107.2716      58211.177      134.64861    
     41440   1324.9637     -5407.1078     -5144.216       2237.1698      58177.269      134.66909    
     41450   1310.5159     -5405.7473     -5145.7222      2648.7672      58142.425      134.64642    
     41460   1293.6072     -5403.6943     -5147.0241      3088.4993      58106.867      134.58522    
     41470   1297.4238     -5405.5565     -5148.1291      3478.2798      58070.663      134.4869     
     41480   1284.5803     -5403.9276     -5149.0485      3697.4218      58034.232      134.38595    
     41490   1267.5826     -5401.3019     -5149.7953      3658.1751      57998.003      134.3192     
     41500   1264.8169     -5401.3176     -5150.3598      3215.8838      57962.196      134.26933    
     41510   1274.9497     -5403.7372     -5150.7689      2642.4318      57926.701      134.18453    
     41520   1288.5193     -5406.743      -5151.0824      2303.6773      57891.263      134.05813    
     41530   1292.4726     -5407.7695     -5151.3245      2308.8451      57855.721      133.89754    
     41540   1311.8845     -5411.8828     -5151.5861      2475.836       57820.012      133.7316     
     41550   1308.6917     -5411.5569     -5151.8937      2906.2493      57784.149      133.58288    
     41560   1286.7102     -5407.5352     -5152.2334      3245.3015      57748.39       133.45337    
     41570   1286.7425     -5407.8721     -5152.5639      3256.4274      57713.062      133.34149    
     41580   1309.9443     -5412.7767     -5152.865       3038.9042      57678.142      133.23432    
     41590   1326.1438     -5416.4264     -5153.3005      2903.1184      57643.355      133.13972    
     41600   1321.4931     -5416.062      -5153.8589      3014.3446      57608.699      133.07853    
     41610   1307.7215     -5414.009      -5154.5383      3081.4608      57574.589      133.04218    
     41620   1307.8106     -5414.8217     -5155.3333      2959.607       57541.389      133.02091    
     41630   1311.8668     -5416.5348     -5156.2416      2836.646       57509.243      133.01613    
     41640   1299.2434     -5415.033      -5157.2445      2762.865       57478.173      133.0125     
     41650   1286.2268     -5413.5249     -5158.3191      2719.9698      57447.906      133.00212    
     41660   1276.8321     -5412.7383     -5159.3965      2709.0392      57418.04       133.00956    
     41670   1277.2794     -5413.8746     -5160.4441      2796.4356      57388.293      133.03472    
     41680   1282.0653     -5415.8386     -5161.4585      3096.2094      57358.548      133.06148    
     41690   1285.5087     -5417.5144     -5162.4511      3355.7089      57329.089      133.07703    
     41700   1296.4457     -5420.6803     -5163.4469      3473.4801      57300.125      133.08072    
     41710   1291.8086     -5420.7627     -5164.4494      3626.5881      57271.629      133.06973    
     41720   1287.5218     -5420.9352     -5165.4724      3687.8257      57243.758      133.06788    
     41730   1276.2441     -5419.6809     -5166.4558      3755.1305      57216.57       133.09936    
     41740   1282.4758     -5421.8599     -5167.3983      3614.4525      57189.936      133.1748     
     41750   1285.7039     -5423.4089     -5168.3069      3254.1839      57163.377      133.27496    
     41760   1297.1854     -5426.6115     -5169.2313      2838.6506      57136.238      133.37251    
     41770   1288.2163     -5425.7695     -5170.169       2613.6379      57108.269      133.45212    
     41780   1273.0563     -5423.6675     -5171.0749      2627.4851      57079.727      133.49208    
     41790   1271.8527     -5424.2637     -5171.9099      2627.3069      57050.932      133.49349    
     41800   1279.7575     -5426.6301     -5172.7079      2536.7329      57021.985      133.48882    
     41810   1255.2503     -5422.5073     -5173.4477      2624.4407      56992.851      133.49767    
     41820   1235.6173     -5419.2488     -5174.0846      2650.0552      56963.528      133.52891    
     41830   1248.6789     -5422.3564     -5174.6007      2476.353       56933.904      133.56683    
     41840   1255.5937     -5424.1666     -5175.0388      2586.1908      56903.657      133.57809    
     41850   1263.8016     -5426.1954     -5175.4391      2842.878       56872.658      133.56988    
     41860   1271.5397     -5428.1239     -5175.8322      3117.0757      56841.188      133.53638    
     41870   1270.8601     -5428.4055     -5176.2487      3378.1518      56809.695      133.46927    
     41880   1266.1449     -5427.9426     -5176.7213      3677.163       56778.48       133.37219    
     41890   1258.8733     -5426.9835     -5177.205       3770.0001      56747.779      133.26394    
     41900   1246.8445     -5425.0682     -5177.6764      3783.0843      56717.847      133.17588    
     41910   1253.6639     -5426.8843     -5178.1394      3435.7971      56688.864      133.10266    
     41920   1245.1201     -5425.6381     -5178.5884      3107.1788      56660.784      133.02133    
     41930   1223.84       -5421.85       -5179.0226      3062.9806      56633.33       132.9278     
     41940   1207.2131     -5418.8881     -5179.3597      3131.283       56606.16       132.83252    
     41950   1213.5067     -5420.3459     -5179.5688      2940.0268      56579.144      132.74372    
     41960   1221.2954     -5421.9968     -5179.6743      2732.5962      56552.18       132.66007    
     41970   1238.1785     -5425.3909     -5179.7185      2615.0177      56525.05       132.58222    
     41980   1267.5079     -5431.2847     -5179.7929      2474.7763      56497.35       132.5107     
     41990   1263.8872     -5430.7324     -5179.9591      2621.135       56468.772      132.43699    
     42000   1250.6624     -5428.3817     -5180.2324      2881.6844      56439.459      132.35278    
     42010   1254.1996     -5429.4236     -5180.5724      2802.7499      56409.811      132.28191    
     42020   1274.7021     -5433.9313     -5181.0121      2590.3764      56380.198      132.25442    
     42030   1286.4672     -5436.9064     -5181.6528      2725.7107      56350.535      132.26005    
     42040   1286.6345     -5437.8391     -5182.5524      3126.5027      56320.605      132.27318    
     42050   1273.4866     -5436.3995     -5183.7215      3652.0255      56290.496      132.27862    
     42060   1246.1694     -5432.317      -5185.0592      4190.6551      56260.725      132.27356    
     42070   1248.3594     -5434.1869     -5186.4945      4364.9246      56232.225      132.25496    
     42080   1240.5646     -5434.1188     -5187.973       4261.0074      56205.779      132.22608    
     42090   1238.7766     -5435.2185     -5189.4275      3914.7412      56181.746      132.18506    
     42100   1243.0216     -5437.4359     -5190.8026      3540.8286      56160.01       132.15146    
     42110   1248.4942     -5439.7881     -5192.0689      3251.2826      56140.09       132.14456    
     42120   1239.2776     -5439.0875     -5193.1971      3230.9884      56121.247      132.16084    
     42130   1217.4076     -5435.6766     -5194.1255      3488.32        56102.954      132.18305    
     42140   1215.1226     -5435.9344     -5194.8367      3636.4227      56085.316      132.20451    
     42150   1206.7859     -5434.7981     -5195.3545      3647.4983      56068.651      132.23866    
     42160   1204.9027     -5434.8127     -5195.7428      3568.9097      56053.165      132.28862    
     42170   1207.9068     -5435.6906     -5196.0245      3485.4939      56038.818      132.3344     
     42180   1201.4544     -5434.6212     -5196.2355      3539.7591      56025.407      132.37078    
     42190   1215.3329     -5437.5436     -5196.4041      3470.3576      56012.752      132.39484    
     42200   1234.3691     -5441.4998     -5196.5832      3395.2468      56000.632      132.41446    
     42210   1245.8898     -5444.0563     -5196.8539      3316.3562      55988.837      132.44577    
     42220   1259.5157     -5447.1746     -5197.2686      3276.2609      55977.185      132.4974     
     42230   1274.5593     -5450.7686     -5197.8777      3224.9539      55965.74       132.56554    
     42240   1275.7458     -5451.8701     -5198.7439      3382.1951      55954.376      132.62943    
     42250   1254.582      -5448.7694     -5199.8424      3657.4305      55942.936      132.68592    
     42260   1243.6237     -5447.8608     -5201.1081      3754.8362      55931.545      132.75767    
     42270   1227.3761     -5445.9727     -5202.4437      3824.2812      55920.341      132.865      
     42280   1220.1579     -5445.8807     -5203.7839      3803.7605      55909.487      133.00507    
     42290   1213.7281     -5445.8998     -5205.0787      3799.2537      55898.989      133.15593    
     42300   1217.7431     -5447.9425     -5206.3248      3776.523       55888.823      133.28796    
     42310   1214.9986     -5448.587      -5207.5139      3740.7838      55878.912      133.37566    
     42320   1196.3234     -5446.0038     -5208.6361      3827.8224      55869.363      133.42159    
     42330   1180.3856     -5443.838      -5209.6326      3711.2989      55860.611      133.4543     
     42340   1172.1543     -5443.0419     -5210.4697      3485.582       55852.869      133.50342    
     42350   1171.9854     -5443.712      -5211.1734      3317.1554      55845.871      133.57878    
     42360   1172.3709     -5444.3668     -5211.7516      3184.6516      55839.354      133.67023    
     42370   1190.9372     -5448.5585     -5212.2595      2938.1504      55833.225      133.77035    
     42380   1195.5207     -5449.9592     -5212.7508      2908.0543      55827.214      133.87141    
     42390   1196.1164     -5450.5917     -5213.265       2958.8897      55821.136      133.96509    
     42400   1202.9017     -5452.4872     -5213.8143      3017.9395      55815.019      134.05553    
     42410   1191.8732     -5450.9073     -5214.4226      3086.6478      55808.808      134.14619    
     42420   1153.386      -5443.8794     -5215.0311      3422.8311      55802.496      134.22253    
     42430   1143.9928     -5442.5153     -5215.5307      3571.2         55796.364      134.29269    
     42440   1163.4543     -5446.7633     -5215.9173      3648.3716      55790.738      134.37533    
     42450   1161.6741     -5446.7285     -5216.2357      3810.0907      55786.128      134.46816    
     42460   1153.4793     -5445.3754     -5216.5086      3965.6943      55783.14       134.55892    
     42470   1157.5735     -5446.4059     -5216.7267      3891.2521      55782.036      134.6435     
     42480   1147.3558     -5444.5254     -5216.8736      3840.0227      55782.729      134.74288    
     42490   1152.8147     -5445.6855     -5216.9506      3678.0875      55784.977      134.88031    
     42500   1148.3506     -5444.8088     -5216.9596      3819.6678      55788.534      135.05872    
     42510   1150.7676     -5445.2292     -5216.9005      4077.6739      55793.266      135.26446    
     42520   1162.9647     -5447.5323     -5216.7835      4271.4514      55799.066      135.48354    
     42530   1172.1289     -5449.2129     -5216.6457      4349.4215      55805.885      135.6928     
     42540   1183.2376     -5451.3036     -5216.5323      4133.217       55813.616      135.88954    
     42550   1185.7651     -5451.7548     -5216.482       3844.1118      55822.043      136.07318    
     42560   1180.8132     -5450.8081     -5216.5179      3530.8495      55831.097      136.23464    
     42570   1176.7838     -5450.1427     -5216.6519      3196.8189      55840.523      136.3614     
     42580   1162.0199     -5447.4188     -5216.8574      3139.8947      55849.871      136.45092    
     42590   1159.1217     -5447.0984     -5217.112       3084.4531      55858.812      136.51565    
     42600   1178.6967     -5451.2963     -5217.426       2776.0925      55866.765      136.57578    
     42610   1193.4093     -5454.6672     -5217.8777      2598.2331      55872.906      136.65128    
     42620   1198.4952     -5456.3818     -5218.5832      2501.2539      55876.808      136.76436    
     42630   1173.785      -5452.4528     -5219.557       2607.2583      55878.606      136.8992     
     42640   1141.7952     -5447.2595     -5220.711       2745.2706      55879.011      137.01919    
     42650   1130.9497     -5446.3308     -5221.9342      2698.1302      55878.951      137.11193    
     42660   1129.3407     -5447.2438     -5223.1664      2665.8509      55878.844      137.1864     
     42670   1119.8202     -5446.5399     -5224.3515      2730.7582      55878.703      137.24623    
     42680   1123.6611     -5448.4182     -5225.4678      2682.1312      55878.371      137.2971     
     42690   1136.5493     -5451.9943     -5226.4866      2441.4744      55877.657      137.34465    
     42700   1159.9283     -5457.6302     -5227.4839      1898.309       55876.457      137.38192    
     42710   1175.3872     -5461.7216     -5228.5079      1626.5194      55874.52       137.39961    
     42720   1177.4323     -5463.2417     -5229.6223      1750.7254      55871.711      137.39595    
     42730   1148.2288     -5458.5692     -5230.7442      2171.1443      55868.111      137.38192    
     42740   1143.0767     -5458.6058     -5231.803       2260.4251      55864.015      137.3781     
     42750   1126.4701     -5456.2401     -5232.7323      2434.2557      55859.596      137.39455    
     42760   1107.4009     -5453.2218     -5233.4976      2704.7399      55855.024      137.43137    
     42770   1119.4383     -5456.1932     -5234.0807      2823.8199      55850.338      137.47174    
     42780   1134.3834     -5459.6195     -5234.5416      2852.9036      55845.466      137.50858    
     42790   1139.9674     -5461.1481     -5234.9622      2914.2136      55840.595      137.55899    
     42800   1128.3667     -5459.2438     -5235.3597      2990.868       55836.077      137.63563    
     42810   1099.1201     -5453.7686     -5235.6874      3275.8207      55832.077      137.73108    
     42820   1090.3038     -5452.2374     -5235.9055      3499.6687      55828.715      137.84185    
     42830   1096.5696     -5453.5543     -5235.9792      3575.1078      55826.158      137.95213    
     42840   1098.4386     -5453.8813     -5235.9354      3713.7033      55824.722      138.04831    
     42850   1102.374      -5454.5479     -5235.8211      3732.2521      55824.649      138.13949    
     42860   1081.7185     -5450.2485     -5235.6201      3856.2422      55825.726      138.2467     
     42870   1072.4489     -5448.1073     -5235.3181      3686.3242      55827.793      138.36275    
     42880   1082.1272     -5449.5784     -5234.8688      3361.2805      55830.517      138.46215    
     42890   1092.714      -5451.1044     -5234.2943      3110.1397      55833.353      138.53545    
     42900   1095.564      -5451.0256     -5233.6501      3014.6864      55835.805      138.59574    
     42910   1119.4735     -5455.0906     -5232.971       2894.8076      55837.735      138.62594    
     42920   1137.5128     -5458.0144     -5232.3156      2869.8384      55839.145      138.61854    
     42930   1154.655      -5460.8796     -5231.7795      2867.9246      55840.194      138.59238    
     42940   1148.7336     -5459.343      -5231.4178      3156.9404      55841.14       138.58137    
     42950   1148.9052     -5459.2057     -5231.2464      3262.8883      55842.384      138.6093     
     42960   1140.1154     -5457.4292     -5231.214       3376.3168      55843.841      138.66982    
     42970   1139.4262     -5457.4094     -5231.3309      3295.077       55845.121      138.7357     
     42980   1138.6633     -5457.4823     -5231.5552      3192.1435      55845.83       138.80894    
     42990   1149.3924     -5459.9938     -5231.9379      3138.0244      55845.547      138.90056    
     43000   1154.567      -5461.5685     -5232.4858      3152.4018      55844.113      138.98649    
     43010   1167.2489     -5464.8787     -5233.2798      3101.3312      55841.73       139.06234    
     43020   1149.9739     -5462.4727     -5234.3014      3189.4003      55838.522      139.14954    
     43030   1158.6569     -5465.4276     -5235.5335      3011.9712      55834.676      139.24661    
     43040   1156.239      -5466.3552     -5236.9408      2906.5733      55830.182      139.35182    
     43050   1136.2246     -5463.8621     -5238.4188      2913.4462      55824.995      139.46196    
     43060   1133.8012     -5464.8058     -5239.8434      2638.5481      55819.231      139.56373    
     43070   1127.8797     -5464.9091     -5241.1216      2281.861       55812.798      139.64206    
     43080   1122.1925     -5464.8735     -5242.2145      1897.2184      55805.538      139.70758    
     43090   1121.9278     -5465.7488     -5243.1422      1649.7285      55797.13       139.77138    
     43100   1110.8026     -5464.3378     -5243.9386      1703.9908      55787.222      139.83307    
     43110   1102.1514     -5463.3138     -5244.6312      1840.8972      55775.847      139.91554    
     43120   1074.0847     -5458.34       -5245.2262      2268.7241      55763.155      140.01891    
     43130   1036.9675     -5451.394      -5245.6448      2839.6784      55749.344      140.13533    
     43140   1069.3623     -5458.0748     -5245.898       2872.4166      55734.603      140.25109    
     43150   1104.4933     -5465.2299     -5246.0826      2945.5972      55718.865      140.33472    
     43160   1107.5917     -5466.0908     -5246.3288      3269.2903      55702.3        140.37183    
     43170   1105.1527     -5465.944      -5246.6658      3370.4408      55685.368      140.39823    
     43180   1103.114      -5465.9678     -5247.0942      3115.686       55668.403      140.44881    
     43190   1095.8468     -5465.0292     -5247.5975      2760.9755      55651.469      140.51747    
     43200   1090.015      -5464.4473     -5248.1727      2287.0257      55634.382      140.57416    
     43210   1080.6173     -5463.2175     -5248.8076      2035.3195      55616.762      140.61587    
     43220   1064.9521     -5460.7489     -5249.4471      1952.6268      55598.363      140.65011    
     43230   1051.1318     -5458.6143     -5250.0546      1984.4302      55579.003      140.68651    
     43240   1046.7859     -5458.2715     -5250.5742      2147.2524      55558.725      140.75098    
     43250   1054.09       -5460.1641     -5251.0175      2187.0114      55537.784      140.84926    
     43260   1064.9349     -5462.7155     -5251.4171      2247.1398      55516.202      140.96567    
     43270   1063.7057     -5462.8491     -5251.7947      2460.3652      55494.038      141.09372    
     43280   1068.4212     -5464.1635     -5252.1734      2534.6878      55471.48       141.22093    
     43290   1097.0849     -5470.2828     -5252.6055      2152.265       55448.352      141.34378    
     43300   1103.7354     -5472.1798     -5253.1829      1939.0379      55424.157      141.45911    
     43310   1087.2014     -5469.6299     -5253.9136      2035.6268      55398.697      141.56502    
     43320   1080.1636     -5469.0897     -5254.7698      2142.492       55372.146      141.63179    
     43330   1068.0264     -5467.5974     -5255.6857      2178.1083      55344.542      141.65375    
     43340   1067.6569     -5468.4847     -5256.6463      2096.8798      55315.804      141.63694    
     43350   1061.5884     -5468.2467     -5257.6124      2122.7801      55285.981      141.5776     
     43360   1059.1184     -5468.7239     -5258.5796      2196.5111      55255.297      141.50416    
     43370   1039.8741     -5465.8092     -5259.4833      2432.6087      55224.05       141.4457     
     43380   1032.3285     -5465.113      -5260.2843      2630.7593      55192.641      141.42063    
     43390   1042.5665     -5467.83       -5260.9698      2678.8751      55161.467      141.39864    
     43400   1061.1483     -5472.1461     -5261.5991      2629.3012      55130.585      141.35781    
     43410   1069.3686     -5474.421      -5262.243       2612.222       55099.849      141.30143    
     43420   1080.3409     -5477.287      -5262.9319      2606.5787      55069.236      141.24663    
     43430   1087.4802     -5479.4927     -5263.721       2717.4492      55038.816      141.18871    
     43440   1065.9714     -5476.084      -5264.58        3003.4064      55008.677      141.10849    
     43450   1047.3468     -5473.2572     -5265.4486      3183.5182      54978.943      141.02328    
     43460   1033.3251     -5471.276      -5266.2495      3131.5542      54949.565      140.96315    
     43470   1032.5091     -5471.8165     -5266.9519      2954.9441      54920.341      140.9296     
     43480   1024.5068     -5470.8241     -5267.5473      3009.3992      54891.116      140.9107     
     43490   1042.8342     -5474.9755     -5268.0622      3005.5059      54861.816      140.89536    
     43500   1049.5128     -5476.7842     -5268.5458      3193.5694      54832.327      140.88612    
     43510   1038.1476     -5475.0099     -5269.0265      3490.5607      54802.683      140.86897    
     43520   1031.8997     -5474.2156     -5269.4719      3595.9318      54773.227      140.83769    
     43530   1029.5314     -5474.1438     -5269.87        3397.7203      54744.203      140.78864    
     43540   1035.2264     -5475.6508     -5270.247       3093.3693      54715.43       140.73781    
     43550   1038.0163     -5476.5846     -5270.6273      3118.0837      54686.625      140.68797    
     43560   1029.4276     -5475.2479     -5270.9947      3365.4808      54657.66       140.63628    
     43570   1023.5756     -5474.4382     -5271.3462      3551.9679      54628.788      140.58614    
     43580   1031.3357     -5476.2975     -5271.6657      3700.7693      54600.522      140.55439    
     43590   1034.9637     -5477.3306     -5271.979       3864.1889      54573.353      140.55497    
     43600   1040.6991     -5478.8177     -5272.3281      3874.3891      54547.619      140.58673    
     43610   1045.2487     -5480.1152     -5272.7229      3688.9074      54523.142      140.63141    
     43620   1056.1946     -5482.7842     -5273.22        3360.2518      54499.441      140.66617    
     43630   1049.654      -5482.0975     -5273.8311      3195.9725      54476.154      140.69513    
     43640   1048.7235     -5482.6208     -5274.5391      3253.6961      54452.943      140.73131    
     43650   1045.3436     -5482.7501     -5275.339       3540.2038      54429.62       140.78162    
     43660   1032.1912     -5480.9806     -5276.1791      3969.8198      54406.322      140.83504    
     43670   1028.1774     -5481.0253     -5277.0202      4274.7302      54383.499      140.87856    
     43680   1024.951      -5481.1868     -5277.8218      4372.9832      54361.494      140.92265    
     43690   1033.4262     -5483.6334     -5278.5869      4160.3466      54340.62       140.98849    
     43700   1033.3518     -5484.3688     -5279.337       3956.9972      54321.214      141.08554    
     43710   1025.1769     -5483.4565     -5280.0468      3914.5682      54303.511      141.18027    
     43720   1034.6372     -5486.0175     -5280.7306      3814.8823      54287.542      141.24065    
     43730   1029.4763     -5485.656      -5281.3932      3799.2141      54272.93       141.27626    
     43740   1027.523      -5485.9058     -5282.0305      3728.279       54259.472      141.29788    
     43750   1027.4794     -5486.5093     -5282.6426      3594.5088      54247.282      141.32138    
     43760   1030.8042     -5487.7771     -5283.2508      3495.3016      54236.337      141.35838    
     43770   1019.8876     -5486.2053     -5283.845       3620.1515      54226.346      141.41647    
     43780   1023.2773     -5487.4845     -5284.4516      3644.4604      54217.135      141.48276    
     43790   1024.2897     -5488.292      -5285.0582      3776.1863      54208.605      141.5542     
     43800   1037.9786     -5491.6527     -5285.7029      3773.9796      54200.846      141.61112    
     43810   1032.1562     -5491.2089     -5286.4143      3839.4829      54194.037      141.62713    
     43820   1037.0175     -5492.981      -5287.2218      3741.1849      54188.32       141.62634    
     43830   1018.6686     -5490.1849     -5288.0665      3889.4583      54183.948      141.63354    
     43840   1014.1208     -5490.1523     -5288.9363      3956.2337      54181.238      141.66211    
     43850   995.99109     -5487.3999     -5289.781       4125.7424      54180.207      141.7174     
     43860   975.85479     -5484.1769     -5290.5533      4300.8337      54180.884      141.7996     
     43870   965.57062     -5482.7827     -5291.1997      4263.0527      54183.347      141.90054    
     43880   986.48955     -5487.4669     -5291.7333      3914.7239      54187.202      142.01779    
     43890   999.04909     -5490.4596     -5292.2339      3577.5236      54191.568      142.13664    
     43900   991.67452     -5489.5042     -5292.7417      3483.2371      54195.897      142.23053    
     43910   992.62898     -5490.2223     -5293.2705      3425.1316      54200.007      142.27771    
     43920   981.57465     -5488.5586     -5293.8001      3637.9438      54203.814      142.29573    
     43930   966.27728     -5486.0262     -5294.303       4017.2428      54207.573      142.31577    
     43940   973.31512     -5487.8778     -5294.7581      4002.4622      54211.691      142.35037    
     43950   965.15055     -5486.6638     -5295.1641      3936.703       54216.18       142.3962     
     43960   967.63384     -5487.5229     -5295.5305      3819.8188      54221.011      142.47094    
     43970   984.00489     -5491.1111     -5295.8704      3602.3307      54226.147      142.58099    
     43980   996.22027     -5493.924      -5296.2596      3544.8386      54231.288      142.70861    
     43990   998.99008     -5494.9471     -5296.7332      3641.507       54236.242      142.82108    
     44000   987.47763     -5493.2417     -5297.312       3658.2137      54241.086      142.91014    
     44010   974.69974     -5491.3363     -5297.9419      3455.3831      54246.043      142.99765    
     44020   975.55122     -5492.1632     -5298.5999      3151.7414      54251.134      143.07885    
     44030   969.13509     -5491.5707     -5299.2804      2937.8122      54256.038      143.13585    
     44040   955.85054     -5489.5946     -5299.9402      3030.059       54260.469      143.18499    
     44050   952.15112     -5489.4774     -5300.557       3142.9326      54264.432      143.24626    
     44060   951.15082     -5489.8396     -5301.1177      3236.7641      54267.92       143.31912    
     44070   952.59123     -5490.6354     -5301.6276      3124.0957      54270.794      143.40861    
     44080   959.66592     -5492.5107     -5302.0993      2925.4992      54272.861      143.50152    
     44090   974.61353     -5495.9451     -5302.5678      2835.0672      54274.017      143.58733    
     44100   982.7427      -5498.083      -5303.0928      2849.8993      54274.271      143.67384    
     44110   979.99343     -5498.1456     -5303.7009      2888.4704      54273.461      143.7566     
     44120   987.92301     -5500.4143     -5304.3962      2852.9355      54271.386      143.81239    
     44130   980.45227     -5499.7163     -5305.1805      3031.7962      54268.099      143.84032    
     44140   964.77089     -5497.4344     -5306.0101      3375.5942      54263.909      143.87663    
     44150   968.10264     -5498.9246     -5306.8391      3516.7583      54259.202      143.93688    
     44160   963.53278     -5498.8085     -5307.6298      3651.7615      54254.141      144.00678    
     44170   976.44082     -5502.1458     -5308.4059      3512.2175      54248.617      144.07641    
     44180   987.52252     -5505.1315     -5309.1929      3344.9863      54242.432      144.15789    
     44190   975.31335     -5503.5059     -5309.9897      3297.2148      54235.575      144.25081    
     44200   961.3152      -5501.4928     -5310.7541      3219.1184      54228.191      144.33862    
     44210   956.16725     -5501.1504     -5311.4331      2979.9351      54220.131      144.4252     
     44220   955.58513     -5501.6451     -5312.0434      2847.5315      54211.161      144.50096    
     44230   950.25454     -5501.135      -5312.5909      2770.3177      54201.36       144.56042    
     44240   956.51083     -5502.88       -5313.0946      2644.5579      54190.774      144.60187    
     44250   948.87293     -5501.8579     -5313.5879      2494.3563      54179.308      144.62955    
     44260   920.46423     -5496.6702     -5314.0369      2528.2056      54166.96       144.64852    
     44270   898.22572     -5492.5975     -5314.3767      2580.2896      54153.954      144.66352    
     44280   902.59022     -5493.6588     -5314.572       2619.8956      54140.521      144.68613    
     44290   909.23938     -5495.0541     -5314.648       2807.948       54126.73       144.73025    
     44300   927.81574     -5498.7422     -5314.6503      3072.8527      54112.68       144.79671    
     44310   953.37661     -5503.8171     -5314.6536      3292.0556      54098.566      144.86315    
     44320   967.34933     -5506.6798     -5314.7438      3481.5282      54084.596      144.93481    
     44330   967.26582     -5506.9054     -5314.986       3758.4095      54070.855      145.01733    
     44340   966.47607     -5507.1595     -5315.3969      3980.6378      54057.546      145.07701    
     44350   952.58372     -5504.9509     -5315.9447      4223.2469      54044.916      145.09478    
     44360   955.70428     -5506.2491     -5316.6237      4129.0533      54033.171      145.08271    
     44370   952.59504     -5506.4315     -5317.423       3881.5191      54022.254      145.07256    
     44380   938.59795     -5504.551      -5318.3197      3710.058       54011.949      145.08811    
     44390   925.69755     -5502.9133     -5319.2417      3633.2921      54001.962      145.13361    
     44400   916.67657     -5502.0154     -5320.1336      3451.3724      53991.954      145.19018    
     44410   913.99402     -5502.3127     -5320.9632      3343.7151      53981.447      145.23655    
     44420   905.58137     -5501.3936     -5321.7132      3373.4128      53970.037      145.25073    
     44430   897.26496     -5500.3912     -5322.361       3460.8861      53957.538      145.22323    
     44440   901.87667     -5501.8477     -5322.9024      3343.2737      53944.095      145.17789    
     44450   897.2673      -5501.3833     -5323.3526      3353.8942      53930.081      145.13487    
     44460   886.87431     -5499.676      -5323.7075      3573.6615      53916.067      145.10859    
     44470   893.27231     -5501.2072     -5323.9691      3822.8082      53902.568      145.10769    
     44480   894.64996     -5501.6675     -5324.1561      4129.0783      53889.832      145.12718    
     44490   896.57356     -5502.1842     -5324.2912      4325.4853      53878.086      145.16322    
     44500   906.01774     -5504.1698     -5324.4029      4348.4479      53867.493      145.20094    
     44510   918.07735     -5506.6879     -5324.5282      4271.7309      53858.049      145.22137    
     44520   924.18092     -5508.0787     -5324.708       4206.4773      53849.762      145.23357    
     44530   924.66096     -5508.4464     -5324.9804      4136.6279      53842.607      145.24978    
     44540   915.50679     -5506.9849     -5325.3352      4079.4843      53836.515      145.28492    
     44550   916.60414     -5507.6309     -5325.7635      3938.6058      53831.445      145.33932    
     44560   918.52951     -5508.5134     -5326.264       3676.2893      53827.102      145.40665    
     44570   919.9361      -5509.381      -5326.8525      3301.4813      53823.039      145.4843     
     44580   917.84713     -5509.6509     -5327.5369      2991.3489      53818.916      145.56808    
     44590   893.94084     -5505.6504     -5328.2797      3059.6332      53814.6        145.65138    
     44600   864.75719     -5500.5586     -5328.9784      3356.9012      53810.083      145.71639    
     44610   859.17503     -5500.0239     -5329.5513      3443.7541      53805.35       145.76001    
     44620   883.66074     -5505.3413     -5330.0104      3147.0011      53800.223      145.79253    
     44630   902.61442     -5509.5315     -5330.4399      2914.2777      53794.399      145.81395    
     44640   901.26302     -5509.7186     -5330.8951      2948.701       53787.826      145.81987    
     44650   892.07459     -5508.3713     -5331.371       3016.7931      53780.768      145.81509    
     44660   892.78677     -5508.9884     -5331.8467      3020.4091      53773.586      145.80805    
     44670   895.24248     -5509.9526     -5332.3237      2954.8851      53766.445      145.80823    
     44680   893.3857      -5510.0632     -5332.8027      2978.4684      53759.328      145.82499    
     44690   888.01905     -5509.4806     -5333.2849      2983.5571      53752.227      145.8571     
     44700   881.95007     -5508.7335     -5333.742       2894.294       53745.074      145.87712    
     44710   885.05556     -5509.7783     -5334.1706      2733.7582      53737.852      145.85595    
     44720   888.58098     -5510.8788     -5334.5716      2618.8398      53730.457      145.79114    
     44730   900.92612     -5513.7484     -5334.9918      2570.1135      53722.637      145.70241    
     44740   893.8988      -5512.7988     -5335.4365      2792.7958      53714.34       145.6109     
     44750   889.26063     -5512.3444     -5335.9023      3109.6383      53705.721      145.52976    
     44760   886.55264     -5512.2634     -5336.3587      3345.4077      53696.891      145.46008    
     44770   886.26524     -5512.6589     -5336.8112      3430.4619      53687.939      145.41875    
     44780   884.49892     -5512.7648     -5337.2675      3521.7269      53679.022      145.41542    
     44790   874.61751     -5511.2501     -5337.7135      3549.6627      53670.325      145.44414    
     44800   872.12908     -5511.1736     -5338.1307      3498.9135      53662.011      145.48191    
     44810   882.12478     -5513.5679     -5338.5417      3262.9538      53654.1        145.49566    
     44820   889.80889     -5515.5286     -5338.9777      2995.1461      53646.53       145.4785     
     44830   896.6091      -5517.3834     -5339.4833      2713.8785      53639.206      145.45737    
     44840   890.32528     -5516.7195     -5340.0662      2564.5183      53631.821      145.44939    
     44850   890.99635     -5517.5068     -5340.7204      2368.0642      53624.037      145.45025    
     44860   893.58377     -5518.7424     -5341.4426      2284.5645      53615.569      145.45629    
     44870   894.33741     -5519.6876     -5342.2383      2369.4936      53606.214      145.46151    
     44880   887.39911     -5519.1683     -5343.0956      2657.0752      53595.793      145.45142    
     44890   869.6937      -5516.5312     -5343.9716      2999.4545      53584.194      145.4285     
     44900   848.17496     -5513.0643     -5344.7743      3246.8999      53571.496      145.41137    
     44910   858.5843      -5515.8439     -5345.4885      3012.4727      53557.972      145.40614    
     44920   866.96932     -5518.1781     -5346.159       2611.0376      53543.535      145.40875    
     44930   856.43211     -5516.7407     -5346.8123      2403.6746      53527.898      145.41946    
     44940   847.94391     -5515.674      -5347.4297      2273.4802      53510.967      145.42254    
     44950   843.46515     -5515.3517     -5347.9961      2277.6155      53492.737      145.4006     
     44960   845.56538     -5516.2797     -5348.5074      2219.8895      53473.264      145.35449    
     44970   857.01881     -5519.0552     -5349.0104      2146.4344      53452.531      145.29378    
     44980   852.28896     -5518.6359     -5349.5295      2238.1424      53430.595      145.21344    
     44990   840.46286     -5516.807      -5350.0471      2423.4533      53407.675      145.11877    
     45000   843.06033     -5517.8262     -5350.5509      2468.9892      53384.004      145.03266    
     45010   849.6898      -5519.6488     -5351.0582      2427.9026      53359.62       144.97434    
     45020   849.20217     -5520.0835     -5351.5896      2299.9585      53334.355      144.95729    
     45030   850.98336     -5521.0162     -5352.1689      2177.1676      53308.088      144.98291    
     45040   834.55983     -5518.3535     -5352.7649      2208.4311      53280.865      145.02183    
     45050   842.2659      -5520.4768     -5353.3592      2159.4556      53252.824      145.04328    
     45060   857.92692     -5524.2096     -5353.9846      2231.9079      53224.016      145.04492    
     45070   862.61258     -5525.8418     -5354.6871      2508.7641      53194.603      145.02984    
     45080   855.41094     -5525.1965     -5355.4708      2886.0085      53164.835      144.99817    
     45090   850.55263     -5525.0629     -5356.301       3234.633       53134.905      144.96708    
     45100   846.94466     -5525.198      -5357.152       3432.0101      53105.072      144.95056    
     45110   834.61175     -5523.5735     -5357.9746      3579.4556      53075.663      144.9381     
     45120   833.08478     -5524.0433     -5358.7474      3514.8332      53047.01       144.91821    
     45130   840.09566     -5526.1608     -5359.4738      3327.0436      53019.24       144.88626    
     45140   838.32088     -5526.5186     -5360.1837      3140.099       52992.206      144.84248    
     45150   822.20916     -5523.9979     -5360.8599      3149.926       52965.596      144.78473    
     45160   821.92295     -5524.5527     -5361.4714      3112.1958      52939.223      144.71887    
     45170   834.34709     -5527.5985     -5362.0521      3095.7329      52912.851      144.66343    
     45180   835.15127     -5528.3423     -5362.6363      3318.7043      52886.213      144.61398    
     45190   838.54764     -5529.6215     -5363.2416      3458.9257      52859.368      144.55971    
     45200   833.0667      -5529.1674     -5363.875       3644.7321      52832.589      144.50581    
     45210   821.92488     -5527.5864     -5364.5048      3852.7996      52806.239      144.45772    
     45220   830.0378      -5529.8269     -5365.1355      3852.1645      52780.6        144.427      
     45230   832.42281     -5530.9611     -5365.7965      3826.8935      52755.752      144.40933    
     45240   820.05385     -5529.1882     -5366.4778      3989.6232      52731.723      144.39059    
     45250   810.78532     -5528.0054     -5367.134       3975.6871      52708.624      144.37147    
     45260   810.84259     -5528.6499     -5367.7671      3833.2905      52686.517      144.3554     
     45270   797.48703     -5526.5812     -5368.3483      3800.8458      52665.523      144.34304    
     45280   795.16527     -5526.6493     -5368.8771      3754.4926      52645.802      144.33699    
     45290   785.97414     -5525.2859     -5369.3374      3902.5775      52627.382      144.33806    
     45300   777.78384     -5524.0334     -5369.71        3941.392       52610.298      144.34453    
     45310   781.85511     -5525.1379     -5370.0067      3856.1491      52594.51       144.36465    
     45320   780.41667     -5525.0764     -5370.2306      3874.1023      52579.796      144.41136    
     45330   797.98167     -5528.7513     -5370.4204      3681.2979      52565.997      144.47637    
     45340   819.37625     -5533.2041     -5370.6281      3460.1772      52553.061      144.52972    
     45350   840.72484     -5537.7583     -5370.9465      3272.8192      52541.03       144.55531    
     45360   861.04416     -5542.325      -5371.4815      3142.3065      52529.846      144.55868    
     45370   852.40538     -5541.4094     -5372.28        3363.3503      52519.312      144.5481     
     45380   827.99327     -5537.5712     -5373.2854      3724.2892      52509.347      144.5154     
     45390   809.07808     -5534.8773     -5374.3446      3854.307       52499.995      144.45327    
     45400   801.34486     -5534.3679     -5375.3696      3719.5555      52491.335      144.38299    
     45410   796.03568     -5534.2551     -5376.3102      3545.0764      52483.265      144.31509    
     45420   789.23534     -5533.7351     -5377.1395      3437.2303      52475.575      144.2479     
     45430   784.64063     -5533.5359     -5377.852       3313.944       52468.136      144.18799    
     45440   786.42527     -5534.506      -5378.4679      3114.3827      52460.841      144.14229    
     45450   787.02833     -5535.1761     -5379.0185      2959.5401      52453.527      144.10834    
     45460   782.77111     -5534.837      -5379.524       3035.7251      52446.188      144.07929    
     45470   775.5198      -5533.8604     -5379.9861      3216.4929      52439.091      144.0525     
     45480   777.1451      -5534.6038     -5380.407       3270.6356      52432.544      144.03186    
     45490   779.24752     -5535.4321     -5380.8183      3284.0445      52426.589      144.03892    
     45500   773.21512     -5534.6276     -5381.2106      3374.4072      52421.24       144.08616    
     45510   772.2197      -5534.826      -5381.6066      3492.8331      52416.619      144.13588    
     45520   754.49603     -5531.6682     -5381.9654      3758.8796      52412.983      144.15131    
     45530   758.81443     -5532.8456     -5382.2859      3803.0207      52410.71       144.14588    
     45540   764.34894     -5534.2233     -5382.5655      3821.0887      52409.807      144.14767    
     45550   779.11484     -5537.4412     -5382.8536      3738.5025      52410.078      144.17423    
     45560   790.61058     -5540.0636     -5383.1951      3657.5449      52411.324      144.24367    
     45570   795.80118     -5541.549      -5383.6506      3664.5412      52413.391      144.35226    
     45580   788.97635     -5540.7803     -5384.2361      3706.5215      52416.245      144.45681    
     45590   782.89114     -5540.2456     -5384.9088      3600.7218      52419.986      144.52094    
     45600   778.79128     -5540.1907     -5385.6673      3487.4676      52424.726      144.55237    
     45610   770.56584     -5539.3462     -5386.4549      3417.8176      52430.563      144.58657    
     45620   767.73402     -5539.578      -5387.2486      3341.5325      52437.554      144.63907    
     45630   767.70825     -5540.3492     -5388.0249      3177.11        52445.627      144.71119    
     45640   767.97346     -5541.1604     -5388.7835      3021.3454      52454.611      144.79978    
     45650   756.41305     -5539.5831     -5389.4999      3103.6337      52464.312      144.8818     
     45660   749.63706     -5538.8936     -5390.1548      3306.1924      52474.701      144.93581    
     45670   736.6039      -5536.8717     -5390.7189      3544.6704      52485.92       144.97037    
     45680   733.66437     -5536.7468     -5391.1773      3690.4333      52498.174      145.01527    
     45690   742.15605     -5538.8152     -5391.5608      3701.0518      52511.607      145.08063    
     45700   738.09498     -5538.3376     -5391.889       3777.9289      52526.369      145.16014    
     45710   742.4247      -5539.4938     -5392.1861      3688.0353      52542.655      145.25849    
     45720   753.10239     -5541.8969     -5392.4705      3467.3625      52560.496      145.3835     
     45730   755.69341     -5542.7216     -5392.7812      3307.8531      52579.763      145.53602    
     45740   740.75002     -5540.0936     -5393.1182      3322.1097      52600.147      145.69174    
     45750   734.50228     -5539.1862     -5393.4504      3229.6668      52621.298      145.82753    
     45760   744.36481     -5541.4614     -5393.7688      2967.8497      52642.996      145.9489     
     45770   747.612       -5542.4473     -5394.1103      2787.0469      52665.099      146.07217    
     45780   740.28209     -5541.3677     -5394.4851      2683.7744      52687.537      146.21566    
     45790   736.91233     -5541.0945     -5394.8805      2518.5912      52710.204      146.37419    
     45800   735.79773     -5541.2736     -5395.2808      2290.9734      52732.839      146.52221    
     45810   736.88354     -5541.8947     -5395.6864      2150.2325      52755.034      146.65541    
     45820   732.57419     -5541.4552     -5396.102       2175.3408      52776.458      146.78736    
     45830   734.4397      -5542.2568     -5396.5335      2168.8342      52797.038      146.92636    
     45840   743.79253     -5544.5764     -5396.9973      2118.5968      52816.761      147.07695    
     45850   744.7487      -5545.2865     -5397.5177      2160.359       52835.626      147.23596    
     45860   733.46666     -5543.6213     -5398.091       2368.5054      52853.729      147.39412    
     45870   721.96543     -5541.9148     -5398.6665      2500.4368      52871.304      147.54115    
     45880   722.2016      -5542.515      -5399.2199      2469.222       52888.604      147.66592    
     45890   723.32394     -5543.2625     -5399.7446      2397.1204      52905.837      147.77626    
     45900   723.66702     -5543.8319     -5400.246       2404.692       52923.132      147.88796    
     45910   721.41379     -5543.8597     -5400.7209      2446.2614      52940.423      148.00724    
     45920   729.66941     -5545.9504     -5401.1736      2320.1657      52957.439      148.13878    
     45930   738.50453     -5548.1635     -5401.6336      1999.1833      52973.788      148.2861     
     45940   738.62858     -5548.6824     -5402.1279      1702.438       52989.128      148.43756    
     45950   735.21824     -5548.5348     -5402.657       1462.9177      53003.207      148.57498    
     45960   727.46157     -5547.5336     -5403.1948      1343.2321      53015.794      148.67154    
     45970   722.37025     -5547.0421     -5403.7135      1307.0792      53026.639      148.71351    
     45980   730.85028     -5549.2251     -5404.2139      1194.2618      53035.508      148.71175    
     45990   737.7497      -5551.1125     -5404.7324      1102.9614      53042.289      148.69088    
     46000   738.69832     -5551.8571     -5405.2887      1079.6835      53047.03       148.66907    
     46010   739.329       -5552.5814     -5405.888       1078.381       53049.815      148.65686    
     46020   737.85352     -5552.9246     -5406.5239      1157.6318      53050.728      148.66001    
     46030   734.43316     -5552.9194     -5407.1974      1240.756       53049.927      148.6787     
     46040   724.86395     -5551.7043     -5407.881       1479.7637      53047.594      148.70629    
     46050   725.44548     -5552.4939     -5408.5551      1621.2748      53043.88       148.73694    
     46060   723.84469     -5552.8579     -5409.2368      1759.3419      53038.903      148.76232    
     46070   712.73409     -5551.3231     -5409.9065      1968.8159      53032.843      148.77357    
     46080   706.07141     -5550.6442     -5410.5495      1932.443       53025.806      148.76651    
     46090   699.09301     -5549.8597     -5411.1497      1745.2462      53017.656      148.75165    
     46100   698.45537     -5550.2955     -5411.712       1447.8772      53008.056      148.75034    
     46110   701.35034     -5551.4103     -5412.2523      1208.3854      52996.517      148.75632    
     46120   708.88054     -5553.46       -5412.8079      1017.1506      52982.564      148.72995    
     46130   707.82631     -5553.8361     -5413.3932      942.24063      52965.923      148.66957    
     46140   709.6281      -5554.8406     -5414.0402      914.26099      52946.507      148.5985     
     46150   697.79501     -5553.1681     -5414.7156      1044.2172      52924.377      148.53624    
     46160   690.41421     -5552.3793     -5415.3912      1147.3402      52899.8        148.49133    
     46170   686.97508     -5552.3445     -5416.0388      1275.3021      52873.024      148.45769    
     46180   685.72283     -5552.7195     -5416.6623      1340.5892      52844.301      148.42033    
     46190   691.31953     -5554.4348     -5417.2671      1453.3994      52813.862      148.37279    
     46200   698.75058     -5556.5288     -5417.8867      1674.2232      52781.906      148.32595    
     46210   696.09393     -5556.6409     -5418.5259      1972.6221      52748.689      148.28437    
     46220   698.80477     -5557.8534     -5419.2005      1986.4501      52714.49       148.24426    
     46230   694.77918     -5557.76       -5419.9059      1995.4533      52679.475      148.20652    
     46240   690.71473     -5557.6816     -5420.6339      2054.4962      52643.753      148.18074    
     46250   676.73788     -5555.6199     -5421.3454      2294.3724      52607.407      148.14363    
     46260   671.24352     -5555.1914     -5422.0071      2589.2891      52570.574      148.06407    
     46270   683.38879     -5558.2123     -5422.6182      2733.2159      52533.472      147.94908    
     46280   689.41434     -5560.017      -5423.2273      2833.4179      52496.357      147.83725    
     46290   687.7943      -5560.3268     -5423.8585      2909.3748      52459.448      147.75373    
     46300   684.76468     -5560.3707     -5424.5036      2962.6737      52422.942      147.69875    
     46310   679.34388     -5559.9423     -5425.1507      3077.8589      52387.157      147.67277    
     46320   668.46991     -5558.4093     -5425.7753      3275.2244      52352.432      147.6708     
     46330   660.16274     -5557.3326     -5426.3469      3457.9744      52319.016      147.67753    
     46340   661.13165     -5558.0405     -5426.8625      3411.7182      52287.11       147.66502    
     46350   669.72363     -5560.229      -5427.3462      3197.3042      52256.73       147.63982    
     46360   677.69129     -5562.3138     -5427.8502      2985.7866      52227.593      147.62556    
     46370   681.72769     -5563.6578     -5428.3933      2833.9465      52199.447      147.63139    
     46380   681.39996     -5564.1932     -5428.9937      2908.3507      52172.26       147.65202    
     46390   674.59086     -5563.4879     -5429.6394      3165.3465      52146.186      147.67099    
     46400   668.36197     -5562.9181     -5430.3055      3369.171       52121.428      147.66615    
     46410   659.92004     -5561.8905     -5430.9529      3443.3282      52098.077      147.63413    
     46420   658.18463     -5562.1725     -5431.5792      3311.4032      52076.105      147.58192    
     46430   654.8057      -5562.0938     -5432.1709      3109.4402      52055.292      147.52453    
     46440   660.91979     -5563.8816     -5432.7456      2780.8427      52035.317      147.4688     
     46450   668.72152     -5566.0093     -5433.3254      2539.0498      52015.82       147.41915    
     46460   665.557       -5565.9983     -5433.9422      2532.2318      51996.523      147.38348    
     46470   661.82157     -5565.8899     -5434.575       2593.0738      51977.311      147.35819    
     46480   662.69201     -5566.7106     -5435.223       2642.3135      51958.191      147.33776    
     46490   653.65149     -5565.5662     -5435.8723      2845.0058      51939.328      147.31465    
     46500   647.96415     -5565.0579     -5436.4925      3009.5784      51921.08       147.29035    
     46510   649.34196     -5565.9258     -5437.087       3013.3364      51903.656      147.27589    
     46520   655.32721     -5567.7008     -5437.6745      2836.1657      51887.018      147.26734    
     46530   659.81115     -5569.1968     -5438.2808      2665.3792      51870.972      147.2556     
     46540   663.06328     -5570.4899     -5438.9286      2589.364       51855.345      147.25452    
     46550   657.079       -5569.9922     -5439.6183      2728.511       51840.052      147.2827     
     46560   651.78065     -5569.6414     -5440.3187      2871.7465      51825.156      147.32878    
     46570   656.80516     -5571.3435     -5441.024       2933.1819      51810.82       147.36771    
     46580   663.7677      -5573.4562     -5441.7552      2937.0565      51797.141      147.39029    
     46590   666.47592     -5574.7793     -5442.5409      2952.4857      51784.113      147.39892    
     46600   656.31462     -5573.5884     -5443.3662      3043.283       51771.646      147.39164    
     46610   645.93487     -5572.3374     -5444.1747      3127.2784      51759.61       147.37103    
     46620   643.58401     -5572.6432     -5444.9469      3091.9889      51747.882      147.35146    
     46630   643.31221     -5573.3306     -5445.6882      3019.1225      51736.355      147.34684    
     46640   638.02092     -5572.9937     -5446.4012      3019.0207      51725.042      147.35725    
     46650   630.02772     -5572.0906     -5447.0841      3057.1982      51713.964      147.37703    
     46660   622.63491     -5571.2527     -5447.713       3070.2064      51703.131      147.39895    
     46670   625.41705     -5572.3898     -5448.2981      2972.8605      51692.604      147.40843    
     46680   639.07238     -5575.6783     -5448.8772      2743.2054      51682.363      147.40398    
     46690   645.37195     -5577.5651     -5449.514       2554.9224      51672.215      147.40582    
     46700   637.47851     -5576.6895     -5450.2046      2552.302       51661.94       147.43257    
     46710   637.44159     -5577.4149     -5450.9374      2546.02        51651.462      147.4798     
     46720   630.81342     -5576.8579     -5451.6955      2674.3848      51640.865      147.52829    
     46730   623.58577     -5576.1735     -5452.4451      2818.5488      51630.383      147.57021    
     46740   617.3331      -5575.6571     -5453.1694      2880.9603      51620.303      147.60447    
     46750   607.94691     -5574.4669     -5453.8415      2934.0458      51610.815      147.63199    
     46760   606.6724      -5574.8251     -5454.4526      2908.2132      51601.924      147.65219    
     46770   618.70376     -5577.7961     -5455.0365      2747.0772      51593.474      147.66545    
     46780   628.34723     -5580.312      -5455.6389      2617.0149      51585.262      147.67854    
     46790   627.50875     -5580.7998     -5456.2931      2611.0062      51577.097      147.70998    
     46800   628.39689     -5581.6838     -5457.0009      2542.7401      51568.85       147.76418    
     46810   628.15751     -5582.395      -5457.7596      2405.2013      51560.406      147.82572    
     46820   616.29832     -5580.8302     -5458.5478      2368.9537      51551.725      147.8832     
     46830   599.13821     -5578.1807     -5459.3031      2380.3665      51542.888      147.93319    
     46840   593.36557     -5577.7137     -5459.9815      2307.3694      51534.006      147.96676    
     46850   595.08552     -5578.6677     -5460.5942      2235.7963      51525.054      147.98661    
     46860   591.29978     -5578.4813     -5461.159       2371.1979      51515.952      148.01268    
     46870   579.86024     -5576.7118     -5461.6592      2621.0667      51506.91       148.0479     
     46880   581.86736     -5577.55       -5462.0992      2680.9854      51498.333      148.08658    
     46890   584.34064     -5578.4282     -5462.4867      2664.1247      51490.448      148.12064    
     46900   590.99094     -5580.1208     -5462.8598      2573.4137      51483.278      148.14422    
     46910   601.46106     -5582.5913     -5463.2528      2482.9346      51476.701      148.15367    
     46920   600.02865     -5582.7524     -5463.6982      2501.1387      51470.614      148.13701    
     46930   596.60601     -5582.5664     -5464.1912      2502.6736      51465.012      148.08477    
     46940   606.6728      -5585.1141     -5464.7416      2387.3405      51459.918      148.0035     
     46950   606.48092     -5585.7067     -5465.3722      2457.6561      51455.244      147.91035    
     46960   588.25587     -5582.7682     -5466.0498      2653.262       51450.917      147.82675    
     46970   573.38713     -5580.4706     -5466.7024      2811.976       51446.943      147.75898    
     46980   570.44093     -5580.4731     -5467.2895      2808.4211      51443.349      147.70315    
     46990   572.94094     -5581.4974     -5467.8177      2833.8439      51440.081      147.66367    
     47000   576.63143     -5582.7144     -5468.3024      2869.09        51437.059      147.6318     
     47010   585.68539     -5584.9896     -5468.7813      2778.1246      51434.169      147.59658    
     47020   592.58626     -5586.8672     -5469.2896      2667.3096      51431.275      147.56327    
     47030   589.33561     -5586.7866     -5469.854       2676.2693      51428.387      147.53333    
     47040   579.88183     -5585.4946     -5470.4378      2707.8845      51425.627      147.51463    
     47050   584.27062     -5586.9661     -5471.0384      2595.0449      51423.017      147.5121     
     47060   578.57349     -5586.4508     -5471.6535      2640.6856      51420.46       147.51131    
     47070   566.05529     -5584.5626     -5472.2491      2819.7423      51418.021      147.49848    
     47080   558.50196     -5583.6123     -5472.7975      2972.3815      51415.896      147.4724     
     47090   558.69016     -5584.136      -5473.2839      2980.651       51414.196      147.43666    
     47100   568.72414     -5586.5826     -5473.7396      2858.6719      51412.862      147.40826    
     47110   571.70985     -5587.6329     -5474.1975      2733.3581      51411.749      147.40117    
     47120   577.83661     -5589.3314     -5474.6804      2489.7865      51410.741      147.41408    
     47130   588.04199     -5591.903      -5475.227       2189.8035      51409.605      147.44075    
     47140   582.33917     -5591.3914     -5475.8469      2035.5457      51408.071      147.48458    
     47150   577.84428     -5591.1727     -5476.5201      1900.4511      51405.949      147.55256    
     47160   577.31678     -5591.7697     -5477.2217      1759.115       51403.05       147.63568    
     47170   568.90064     -5590.816      -5477.938       1798.2721      51399.206      147.7251     
     47180   560.16552     -5589.7625     -5478.6176      1906.5219      51394.433      147.81177    
     47190   565.53565     -5591.4719     -5479.2616      1850.273       51388.868      147.87882    
     47200   566.90253     -5592.3706     -5479.889       1846.1828      51382.576      147.90704    
     47210   567.49293     -5593.1144     -5480.5157      1929.4568      51375.62       147.89936    
     47220   566.07685     -5593.4711     -5481.1533      2125.2263      51368.045      147.87117    
     47230   559.45417     -5592.7917     -5481.788       2326.9672      51359.946      147.82805    
     47240   553.68545     -5592.2684     -5482.4093      2512.9559      51351.511      147.77679    
     47250   543.82084     -5590.894      -5482.9922      2625.2302      51342.927      147.72093    
     47260   538.40147     -5590.3579     -5483.5313      2658.402       51334.31       147.65751    
     47270   532.91209     -5589.7507     -5484.0133      2692.2325      51325.656      147.59786    
     47280   540.81405     -5591.7579     -5484.4527      2624.3456      51316.913      147.53814    
     47290   548.28794     -5593.6827     -5484.8946      2485.6289      51307.929      147.4737     
     47300   541.86182     -5592.8687     -5485.3555      2527.1809      51298.521      147.41416    
     47310   536.15638     -5592.204      -5485.8229      2460.7885      51288.669      147.36202    
     47320   533.56459     -5592.1501     -5486.2833      2259.1453      51278.421      147.30601    
     47330   527.70618     -5591.4338     -5486.7294      2150.5693      51267.842      147.23836    
     47340   528.43333     -5592          -5487.1513      1980.0002      51257.074      147.17058    
     47350   532.56532     -5593.2341     -5487.5655      1834.4217      51246.222      147.12268    
     47360   534.42274     -5594.027      -5487.9899      1772.2073      51235.311      147.09515    
     47370   539.67616     -5595.5189     -5488.4394      1722.0099      51224.345      147.07392    
     47380   543.60293     -5596.7944     -5488.9358      1782.5954      51213.368      147.04621    
     47390   545.44383     -5597.7114     -5489.4876      1920.5267      51202.46       147.01588    
     47400   549.49685     -5599.1364     -5490.1083      2021.057       51191.597      146.99083    
     47410   545.57175     -5599.0338     -5490.7846      2168.0335      51180.732      146.96962    
     47420   538.36866     -5598.3051     -5491.485       2364.2157      51169.995      146.94618    
     47430   531.89654     -5597.7067     -5492.1708      2571.7592      51159.622      146.9189     
     47440   533.35262     -5598.6541     -5492.8293      2691.7557      51149.803      146.89238    
     47450   541.09237     -5600.8374     -5493.4769      2615.2432      51140.618      146.87637    
     47460   537.68932     -5600.8176     -5494.1324      2563.9276      51131.932      146.87839    
     47470   533.30628     -5600.6016     -5494.786       2436.3585      51123.617      146.88066    
     47480   534.56524     -5601.505      -5495.4396      2293.7691      51115.607      146.86946    
     47490   534.76521     -5602.2015     -5496.0965      2210.4442      51107.777      146.84645    
     47500   537.31242     -5603.3848     -5496.7743      2178.4268      51099.983      146.8124     
     47510   540.17078     -5604.6614     -5497.4838      2165.5964      51092.091      146.76542    
     47520   537.08081     -5604.791      -5498.2265      2180.3709      51084.057      146.71316    
     47530   528.06612     -5603.7546     -5498.9788      2252.2929      51075.941      146.67004    
     47540   516.3644      -5602.1561     -5499.702       2346.7049      51067.838      146.64556    
     47550   505.87174     -5600.7345     -5500.3623      2411.365       51059.849      146.63553    
     47560   508.09348     -5601.7775     -5500.9644      2309.4848      51052.06       146.63511    
     47570   512.29389     -5603.1855     -5501.5391      2137.464       51044.484      146.63713    
     47580   509.23845     -5603.1449     -5502.1047      1957.405       51037.03       146.63255    
     47590   510.63444     -5603.993      -5502.6759      1758.0782      51029.612      146.61347    
     47600   511.91971     -5604.8298     -5503.2576      1684.3234      51022.196      146.58087    
[...]
     78200   171.47571     -5702.7484     -5668.7252      189.21332      49579.524      149.33942    
     78210   171.85662     -5703.0172     -5668.9184      324.22304      49522.751      149.19989    
     78220   172.01812     -5703.2325     -5669.1017      454.5747       49472.323      149.08145    
     78230   172.35012     -5703.464      -5669.2673      535.92721      49430.786      148.99064    
     78240   172.19707     -5703.5856     -5669.4192      578.4066       49399.826      148.929      
     78250   170.74674     -5703.4259     -5669.5473      599.37055      49380.347      148.89565    
     78260   167.55741     -5702.8971     -5669.6513      629.29205      49372.83       148.88956    
     78270   165.54961     -5702.5675     -5669.7201      605.0818       49377.818      148.91101    
     78280   165.73967     -5702.6448     -5669.7597      501.21475      49394.856      148.95855    
     78290   166.34841     -5702.7766     -5669.7707      381.63633      49422.01       149.02659    
     78300   166.73903     -5702.844      -5669.7606      242.32385      49456.957      149.1082     
     78310   167.56371     -5702.9802     -5669.7332      78.752523      49496.938      149.19672    
     78320   169.11203     -5703.2457     -5669.6915     -96.381484      49538.711      149.28803    
     78330   170.51421     -5703.4731     -5669.6407     -271.818        49578.761      149.3798     
     78340   171.82555     -5703.6797     -5669.587      -426.05674      49613.555      149.4685     
     78350   171.71619     -5703.6068     -5669.5359     -517.6118       49640.001      149.54923    
     78360   170.66841     -5703.3527     -5669.4896     -544.43968      49656.178      149.61547    
     78370   170.45123     -5703.2659     -5669.4459     -517.72216      49661.462      149.66093    
     78380   171.13316     -5703.36       -5669.4047     -454.1162       49656.307      149.68197    
     78390   171.84221     -5703.4585     -5669.3625     -384.05102      49641.897      149.67792    
     78400   172.12125     -5703.4735     -5669.3222     -290.43831      49619.69       149.65124    
     78410   172.24355     -5703.4581     -5669.2825     -166.52816      49591.531      149.60751    
     78420   172.12352     -5703.3944     -5669.2426     -17.635191      49559.904      149.55495    
     78430   172.16384     -5703.3604     -5669.2006      141.97983      49527.755      149.50241    
     78440   171.1206      -5703.108      -5669.1553      314.70907      49498.267      149.45933    
     78450   169.73701     -5702.7832     -5669.1049      444.347        49474.813      149.43336    
     78460   168.50804     -5702.4862     -5669.0518      528.8476       49460.08       149.42778    
     78470   167.01454     -5702.1207     -5668.9827      583.55644      49455.864      149.44237    
     78480   165.32519     -5701.7047     -5668.9018      610.56457      49463.358      149.47652    
     78490   165.32768     -5701.6        -5668.7966      574.49295      49483.113      149.53199    
     78500   166.33403     -5701.6688     -5668.6658      492.76755      49514.564      149.61082    
     78510   167.45534     -5701.7344     -5668.5088      374.54873      49556.157      149.71322    
     78520   168.89643     -5701.8446     -5668.3331      233.80992      49605.657      149.83687    
     78530   170.64442     -5701.9999     -5668.1416      83.46905       49660.333      149.97686    
     78540   171.75109     -5702.024      -5667.9462     -93.202388      49717.055      150.12606    
     78550   172.42337     -5701.9735     -5667.7622     -284.47679      49772.248      150.2769     
     78560   174.14573     -5702.1456     -5667.5926     -481.66168      49821.999      150.4208     
     78570   174.97767     -5702.168      -5667.4499     -603.52203      49862.344      150.54723    
     78580   174.21009     -5701.905      -5667.3393     -621.52329      49890.748      150.64793    
     78590   172.97369     -5701.5769     -5667.2564     -568.91776      49906.667      150.719      
     78600   171.69681     -5701.262      -5667.1949     -482.68341      49911.033      150.76129    
     78610   170.651       -5701.0031     -5667.1434     -398.3436       49905.524      150.77874    
     78620   170.11995     -5700.8525     -5667.0983     -338.63844      49891.738      150.77305    
     78630   170.47663     -5700.8782     -5667.0532     -283.17522      49870.919      150.74342    
     78640   172.6368      -5701.2631     -5667.0094     -266.87868      49844.079      150.69035    
     78650   175.10102     -5701.719      -5666.9764     -222.9268       49811.645      150.61636    
     78660   177.13822     -5702.1057     -5666.959      -147.0426       49774.437      150.52592    
     78670   177.38862     -5702.157      -5666.9605     -17.959824      49734.028      150.42645    
     78680   175.7605      -5701.8497     -5666.9763      192.16766      49693.153      150.32823    
     78690   175.07768     -5701.7395     -5667.0016      388.35298      49655.926      150.24312    
     78700   176.54858     -5702.0654     -5667.0357      504.7796       49626.237      150.18089    
     78710   176.54643     -5702.1149     -5667.0855      585.55395      49606.569      150.14603    
     78720   174.06773     -5701.686      -5667.1485      613.69229      49598.587      150.13795    
     78730   172.14478     -5701.3762     -5667.2202      548.12405      49602.837      150.15185    
     78740   171.94798     -5701.4117     -5667.2948      421.67425      49618.083      150.18056    
     78750   172.92961     -5701.6783     -5667.3666      256.98446      49641.858      150.21829    
     78760   173.94038     -5701.9537     -5667.4415      74.390519      49670.918      150.26178    
     78770   172.94686     -5701.8325     -5667.5174     -82.546876      49701.646      150.30892    
     78780   170.25932     -5701.3751     -5667.5932     -207.6702       49730.89       150.35808    
     78790   169.58647     -5701.3107     -5667.6623     -326.41147      49756.047      150.4073     
     78800   171.05862     -5701.6659     -5667.7254     -413.9119       49774.715      150.45235    
     78810   171.9779      -5701.9065     -5667.7836     -435.90117      49785.095      150.48805    
     78820   171.32803     -5701.8431     -5667.8492     -394.83015      49786.694      150.51056    
     78830   171.23119     -5701.8878     -5667.9131     -356.74557      49780.193      150.51637    
     78840   172.35363     -5702.1771     -5667.9797     -323.34995      49766.327      150.50148    
     78850   173.72304     -5702.5192     -5668.05       -267.79752      49745.803      150.46294    
     78860   174.43271     -5702.7396     -5668.1297     -225.57166      49719.611      150.40051    
     78870   173.62764     -5702.6744     -5668.2242     -157.63312      49688.702      150.31672    
     78880   171.81316     -5702.4163     -5668.3261     -39.77775       49654.496      150.2183     
     78890   170.51085     -5702.2668     -5668.4351      81.120097      49619.275      150.11415    
     78900   170.17709     -5702.309      -5668.5434      195.59293      49585.462      150.01223    
     78910   170.47831     -5702.476      -5668.6506      285.68041      49555.349      149.91983    
     78920   170.70131     -5702.6331     -5668.7635      354.31594      49530.801      149.84197    
     78930   169.19188     -5702.4536     -5668.8835      395.59252      49513.21       149.78276    
     78940   166.84321     -5702.1156     -5669.0115      385.89677      49503.385      149.74556    
     78950   165.47565     -5701.9753     -5669.1426      366.79856      49501.302      149.72976    
     78960   166.64321     -5702.3364     -5669.272       303.12741      49506.539      149.73135    
     78970   169.13585     -5702.967      -5669.4081      213.37684      49517.885      149.74431    
     78980   170.95215     -5703.4827     -5669.5633      148.71688      49533.635      149.7643     
     78990   172.00742     -5703.8752     -5669.7465      79.486813      49552.454      149.78894    
     79000   172.31764     -5704.1528     -5669.9625      9.3390381      49573.013      149.81711    
     79010   172.37166     -5704.4106     -5670.2096     -40.613545      49593.958      149.84742    
     79020   171.62738     -5704.5348     -5670.4815     -92.778672      49614.179      149.87703    
     79030   169.3469      -5704.3524     -5670.7516     -133.31893      49632.655      149.90251    
     79040   165.75919     -5703.8884     -5670.9994     -142.03125      49648.622      149.92228    
     79050   162.4915      -5703.4376     -5671.197      -126.87566      49661.854      149.93668    
     79060   161.1493      -5703.312      -5671.3377     -112.83886      49672.571      149.9468     
     79070   162.06741     -5703.5764     -5671.4199     -134.30056      49680.988      149.95328    
     79080   162.89998     -5703.7775     -5671.4558     -146.58327      49686.765      149.9564     
     79090   162.95345     -5703.7863     -5671.454      -132.24942      49689.64       149.95769    
     79100   163.11274     -5703.7852     -5671.4213     -143.72733      49689.738      149.95923    
     79110   164.0003      -5703.8987     -5671.3587     -170.56959      49686.862      149.96037    
     79120   165.04538     -5704.021      -5671.2736     -215.99654      49680.403      149.95763    
     79130   165.77056     -5704.0646     -5671.1733     -216.51517      49669.55       149.94602    
     79140   166.81127     -5704.1594     -5671.0617     -193.37469      49654.225      149.92308    
     79150   167.34246     -5704.144      -5670.9409     -142.96373      49634.862      149.88893    
     79160   166.54419     -5703.861      -5670.8162     -67.153067      49612.438      149.84557    
     79170   164.65309     -5703.3516     -5670.682       12.170286      49588.429      149.79668    
     79180   163.46308     -5702.9725     -5670.5391      84.991879      49564.437      149.74616    
     79190   163.75815     -5702.8777     -5670.3857      151.25315      49541.959      149.69747    
     79200   164.61156     -5702.8821     -5670.2208      203.15282      49522.303      149.6556     
     79210   166.2852      -5703.0527     -5670.0594      246.29904      49506.571      149.6255     
     79220   167.54407     -5703.1421     -5669.8989      307.16439      49495.732      149.60955    
     79230   168.40165     -5703.1633     -5669.75        339.07588      49490.923      149.60862    
     79240   169.95639     -5703.3329     -5669.6111      335.95456      49492.87       149.62291    
     79250   171.58507     -5703.5321     -5669.4872      311.65141      49501.609      149.65146    
     79260   171.65027     -5703.438      -5669.3801      273.79225      49516.724      149.69345    
     79270   170.00328     -5703.0205     -5669.2894      219.27407      49537.464      149.74888    
     79280   169.18625     -5702.7675     -5669.1985      111.20792      49562.677      149.81654    
     79290   170.78772     -5702.9894     -5669.1027     -44.650285      49590.251      149.89432    
     79300   173.08603     -5703.3431     -5669.0004     -173.39329      49617.21       149.97835    
     79310   173.34584     -5703.2959     -5668.9016     -247.09853      49640.968      150.06297    
     79320   171.39963     -5702.8165     -5668.8084     -275.84025      49659.904      150.14186    
     79330   168.97384     -5702.2419     -5668.7151     -246.61816      49673.454      150.21019    
     79340   168.8728      -5702.1266     -5668.6198     -210.84632      49682.055      150.26472    
     79350   169.3752      -5702.1237     -5668.5172     -169.81318      49686.412      150.30467    
     79360   168.87727     -5701.9164     -5668.4087     -106.69395      49687.379      150.33179    
     79370   168.5267      -5701.7355     -5668.2974     -56.979024      49686.106      150.35       
     79380   169.77173     -5701.8636     -5668.1785     -29.069445      49683.587      150.36314    
     79390   170.82655     -5701.949      -5668.0545     -16.342763      49680.433      150.37132    
     79400   171.13494     -5701.8871     -5667.9315     -8.7202751      49676.946      150.37199    
     79410   171.58726     -5701.8527     -5667.8073      1.3225866      49673.307      150.36339    
     79420   172.46783     -5701.9102     -5667.6901      12.585417      49669.683      150.34634    
     79430   173.02438     -5701.9083     -5667.5778     -2.9924832      49666.203      150.32387    
     79440   172.67674     -5701.7366     -5667.475      -10.265337      49662.645      150.30079    
     79450   171.22992     -5701.351      -5667.3765      4.5807939      49658.874      150.2832     
     79460   170.9384      -5701.1986     -5667.282       27.516223      49655.172      150.27583    
     79470   172.12498     -5701.3359     -5667.1839      51.430405      49652.04       150.27771    
     79480   173.26574     -5701.4645     -5667.0861      78.930575      49649.903      150.28287    
     79490   172.86289     -5701.2982     -5666.9997      142.80211      49649.39       150.28567    
     79500   172.38293     -5701.1191     -5666.9159      216.33244      49651.777      150.28355    
     79510   172.92013     -5701.1459     -5666.836       227.63125      49658.433      150.27755    
     79520   174.30058     -5701.3447     -5666.761       189.61483      49669.724      150.27072    
     79530   175.98037     -5701.615      -5666.698       112.09453      49684.9        150.26592    
     79540   176.98676     -5701.7662     -5666.6495     -13.252256      49702.324      150.26662    
     79550   177.75091     -5701.8926     -5666.6243     -143.50563      49719.609      150.27599    
     79560   178.50557     -5702.0405     -5666.6225     -273.71648      49734.09       150.29537    
     79570   179.23736     -5702.2134     -5666.6501     -351.32309      49743.235      150.32135    
     79580   178.79162     -5702.1874     -5666.7126     -356.65101      49745.39       150.34552    
     79590   176.03151     -5701.7311     -5666.8039     -277.17925      49740.413      150.3568     
     79600   173.03047     -5701.2437     -5666.9119     -180.90115      49729.736      150.3469     
     79610   171.275       -5701.0107     -5667.0273     -58.07525       49715.295      150.31139    
     79620   170.32032     -5700.9313     -5667.1373      78.178415      49699.554      150.25141    
     79630   170.4397      -5701.0657     -5667.248       163.36762      49685.196      150.1761     
     79640   171.79691     -5701.4425     -5667.3555      210.58057      49673.983      150.10004    
     79650   172.69418     -5701.7351     -5667.4701      232.45557      49666.895      150.03893    
     79660   173.51618     -5702.0186     -5667.5905      219.86616      49664.422      150.00405    
     79670   174.26039     -5702.3002     -5667.7244      161.20507      49666.306      149.99576    
     79680   173.87439     -5702.3712     -5667.872       100.31898      49671.462      150.00617    
     79690   172.08267     -5702.1801     -5668.0364      52.138278      49678.72       150.02609    
     79700   170.15498     -5701.9651     -5668.2039      4.6089098      49687.145      150.04827    
     79710   169.01003     -5701.9036     -5668.3696     -51.48836       49695.73       150.06663    
     79720   169.57707     -5702.1724     -5668.5258     -110.59761      49703.351      150.07619    
     79730   171.7786      -5702.7598     -5668.6764     -179.1452       49708.763      150.07423    
     79740   172.81321     -5703.1161     -5668.8275     -213.62776      49710.609      150.06009    
     79750   172.02826     -5703.1088     -5668.9759     -217.58108      49708.127      150.03605    
     79760   169.78691     -5702.803      -5669.1148     -186.99645      49701.219      150.00584    
     79770   167.36507     -5702.443      -5669.2354     -121.29276      49690.495      149.97319    
     79780   167.32723     -5702.5287     -5669.3286     -66.842019      49677.125      149.94168    
     79790   169.38426     -5703.0077     -5669.3994     -43.420895      49662.133      149.91333    
     79800   171.05541     -5703.3845     -5669.4447      14.001941      49646.131      149.88739    
     79810   171.31919     -5703.4768     -5669.4846      107.70764      49630.289      149.86376    
     79820   170.68278     -5703.3757     -5669.5098      177.19607      49616.392      149.84347    
     79830   169.29346     -5703.115      -5669.5247      220.28174      49605.887      149.82876    
     79840   167.42373     -5702.7462     -5669.527       232.15715      49599.65       149.82373    
     79850   165.62791     -5702.3738     -5669.5108      225.47065      49598.033      149.83198    
     79860   164.33148     -5702.0848     -5669.4791      197.46972      49600.966      149.85426    
     79870   163.81653     -5701.9332     -5669.4297      170.89713      49607.957      149.88964    
     79880   164.45832     -5701.9929     -5669.362       141.2381       49618.523      149.93561    
     79890   166.3954      -5702.2954     -5669.2802      83.44351       49632.057      149.98722    
     79900   168.30495     -5702.5803     -5669.1862      28.199103      49647.52       150.03834    
     79910   170.64062     -5702.944      -5669.0864     -57.908137      49663.755      150.08389    
     79920   172.52217     -5703.2186     -5668.9878     -156.86023      49679.04       150.11952    
     79930   172.52607     -5703.1304     -5668.8987     -185.37364      49691.502      150.14589    
     79940   170.55243     -5702.6587     -5668.8186     -207.13166      49700.318      150.16972    
     79950   168.22139     -5702.1141     -5668.7366     -180.65924      49705.123      150.19666    
     79960   166.62502     -5701.7106     -5668.6498     -124.17499      49706.379      150.22858    
     79970   166.7118      -5701.6245     -5668.5465     -106.17373      49705.04       150.26309    
     79980   168.21089     -5701.7999     -5668.4245     -95.403568      49701.449      150.29444    
     79990   169.4171      -5701.9072     -5668.2924     -37.729848      49695.936      150.31696    
     80000   170.74361     -5702.0314     -5668.1534     -19.394662      49689.464      150.3274     
Loop time of 5972.3 on 1 procs for 30000 steps with 1536 atoms

Performance: 0.434 ns/day, 55.299 hours/ns, 5.023 timesteps/s, 7.716 katom-step/s
99.5% CPU use with 1 MPI tasks x 1 OpenMP threads

MPI task timing breakdown:
Section |  min time  |  avg time  |  max time  |%varavg| %total
---------------------------------------------------------------
Pair    | 5956.3     | 5956.3     | 5956.3     |   0.0 | 99.73
Bond    | 0.010916   | 0.010916   | 0.010916   |   0.0 |  0.00
Neigh   | 5.1247     | 5.1247     | 5.1247     |   0.0 |  0.09
Comm    | 0.7047     | 0.7047     | 0.7047     |   0.0 |  0.01
Output  | 8.1609     | 8.1609     | 8.1609     |   0.0 |  0.14
Modify  | 1.8398     | 1.8398     | 1.8398     |   0.0 |  0.03
Other   |            | 0.1715     |            |       |  0.00

Nlocal:           1536 ave        1536 max        1536 min
Histogram: 1 0 0 0 0 0 0 0 0 0
Nghost:           2527 ave        2527 max        2527 min
Histogram: 1 0 0 0 0 0 0 0 0 0
Neighs:              0 ave           0 max           0 min
Histogram: 1 0 0 0 0 0 0 0 0 0
FullNghs:        45656 ave       45656 max       45656 min
Histogram: 1 0 0 0 0 0 0 0 0 0

Total # of neighbors = 45656
Ave neighs/atom = 29.723958
Ave special neighs/atom = 0
Neighbor list builds = 2988
Dangerous builds = 2875
unfix           4

write_data      structure.end.data
System init for write_data ...
write_restart   structure.end
System init for write_restart ...
                    
Total wall time: 2:11:45
