LAMMPS (2 Aug 2023)
OMP_NUM_THREADS environment is not set. Defaulting to 1 thread. (src/comm.cpp:98)
  using 1 OpenMP thread(s) per MPI task
read_restart    ../structure.ready
Reading restart file ...
  restart file = 2 Aug 2023, LAMMPS = 2 Aug 2023
  restoring atom style full from restart
  orthogonal box = (-0.96561355 -0.92810536 -8.6502923) to (22.50209 22.464582 73.259722)
  1 by 1 by 1 MPI processor grid
  pair style chgnet/gpu stores no restart info
  1536 atoms
Finding 1-2 1-3 1-4 neighbors ...
  special bond factors lj:    0        0        0       
  special bond factors coul:  0        0        0       
     0 = max # of 1-2 neighbors
     0 = max # of 1-3 neighbors
     0 = max # of 1-4 neighbors
     1 = max # of special neighbors
  special bonds CPU = 0.000 seconds
  read_restart CPU = 0.074 seconds

pair_style      chgnet/gpu /ocean/projects/cts180021p/wuziqi/clease/lammps-ASC/potentials/CHGNET
pair_coeff      * * MPtrj-efsm Cl K Li

neighbor        0.3 bin
neigh_modify    delay 10

timestep	    0.001
compute	        msd all msd
Resetting peratom fix info from restart file:
  fix style: STORE/ATOM, fix ID: msd_COMPUTE_STORE
thermo_style	custom step temp pe etotal press vol c_msd[4]
thermo	        10
dump	        1 all custom 10 xyz-mix.dump type id x y z
dump	        2 all custom 10 force-mix.dump type id fx fy fz

fix             2 gLiquid npt temp 1500 300.0 $(100.0*dt) z 1.01325 1.01325 $(1000.0*dt) couple none
fix             2 gLiquid npt temp 1500 300.0 0.10000000000000000555 z 1.01325 1.01325 $(1000.0*dt) couple none
fix             2 gLiquid npt temp 1500 300.0 0.10000000000000000555 z 1.01325 1.01325 1 couple none
run             10000
All restart file peratom fix info was re-assigned
Neighbor list info ...
  update: every = 1 steps, delay = 10 steps, check = yes
  max neighbors/atom: 2000, page size: 100000
  master list distance cutoff = 6.3
  ghost atom cutoff = 6.3
  binsize = 3.15, bins = 8 8 27
  1 neighbor lists, perpetual/occasional/extra = 1 0 0
  (1) pair chgnet/gpu, perpetual
      attributes: full, newton on
      pair build: full/bin
      stencil: full/bin/3d
      bin: standard
Per MPI rank memory allocation (min/avg/max) = 6.552 | 6.552 | 6.552 Mbytes
   Step          Temp          PotEng         TotEng         Press          Volume        c_msd[4]   
     20000   1489.388      -5641.9182     -5346.4023      4439.9507      44966.358      56.411627    
     20010   1487.2089     -5641.4344     -5346.3509      4458.9465      44966.468      56.609392    
     20020   1520.5767     -5647.9969     -5346.2928      4149.5145      44966.634      56.793892    
     20030   1505.4109     -5644.953      -5346.2579      4180.9388      44966.667      56.997402    
     20040   1496.4578     -5643.2186     -5346.3         4210.7215      44966.564      57.200734    
     20050   1480.322      -5640.0406     -5346.3236      4265.6298      44966.336      57.386355    
     20060   1484.2489     -5640.8207     -5346.3244      4171.1382      44965.68       57.563057    
     20070   1477.5717     -5639.443      -5346.2716      4128.6242      44964.328      57.740945    
     20080   1494.018      -5642.6309     -5346.1963      3922.3129      44962.562      57.926629    
     20090   1490.3716     -5641.8047     -5346.0936      3929.4629      44960.557      58.126094    
     20100   1520.0738     -5647.6263     -5346.0219      3787.5905      44958.278      58.314504    
     20110   1524.4709     -5648.51       -5346.0331      4376.874       44955.638      58.480486    
     20120   1506.654      -5645.12       -5346.1783      5443.658       44953.169      58.646686    
     20130   1503.5735     -5644.7747     -5346.4441      5851.108       44951.546      58.837554    
     20140   1495.2778     -5643.5112     -5346.8267      5865.0601      44951.091      59.044008    
     20150   1489.5648     -5642.8909     -5347.3399      5653.3313      44952.134      59.254201    
     20160   1483.5652     -5642.3507     -5347.9901      5352.0019      44954.652      59.45064     
     20170   1465.6526     -5639.5583     -5348.7519      5368.8413      44957.928      59.631407    
     20180   1472.1728     -5641.7252     -5349.625       5156.3776      44961.593      59.824286    
     20190   1485.5922     -5645.3807     -5350.618       4836.1918      44965.491      60.03877     
     20200   1476.3367     -5644.697      -5351.7707      4697.6046      44969.131      60.247929    
     20210   1462.0284     -5643.134      -5353.0467      4743.4899      44972.085      60.432912    
     20220   1463.2161     -5644.6978     -5354.3747      4525.3551      44974.105      60.59052     
     20230   1494.0174     -5652.2091     -5355.7747      4023.5248      44975.066      60.726136    
     20240   1496.4848     -5654.2218     -5357.2978      3974.0624      44975.156      60.863053    
     20250   1487.1078     -5653.9739     -5358.9104      4372.1622      44974.586      61.019808    
     20260   1439.7497     -5646.1091     -5360.4422      5110.3531      44973.614      61.196473    
     20270   1422.1942     -5643.9778     -5361.7941      5185.3858      44972.871      61.384388    
     20280   1430.1798     -5646.6614     -5362.8932      4779.1958      44972.824      61.589913    
     20290   1430.6445     -5647.6428     -5363.7825      4295.7132      44973.272      61.784549    
     20300   1413.9803     -5645.012      -5364.458       4211.4435      44973.878      61.971359    
     20310   1436.6895     -5649.9924     -5364.9327      4187.76        44974.402      62.168451    
     20320   1477.8371     -5658.5603     -5365.3363      4286.0992      44974.584      62.356443    
     20330   1470.3451     -5657.4602     -5365.7227      4750.2894      44974.561      62.52697     
     20340   1463.3279     -5656.4971     -5366.1518      4940.023       44975.069      62.694402    
     20350   1436.6869     -5651.6005     -5366.5412      4828.7785      44976.571      62.878324    
     20360   1426.2075     -5649.8419     -5366.8619      4378.8782      44978.845      63.070064    
     20370   1395.8967     -5643.9998     -5367.0339      4602.4429      44981.318      63.247748    
     20380   1397.4589     -5644.3066     -5367.0308      4812.6105      44984.066      63.409916    
     20390   1431.0121     -5650.7673     -5366.834       4565.4241      44987.383      63.5764      
     20400   1450.5283     -5654.3708     -5366.5653      4361.5712      44991.129      63.752165    
     20410   1446.6642     -5653.2968     -5366.2579      4217.696       44994.994      63.928385    
     20420   1447.1361     -5653.0847     -5365.9522      4206.2778      44998.771      64.099082    
     20430   1408.7891     -5645.1094     -5365.5854      4900.9146      45002.508      64.242507    
     20440   1421.9365     -5647.2623     -5365.1298      5082.7231      45006.605      64.352604    
     20450   1441.2371     -5650.5066     -5364.5445      4796.2556      45011.285      64.463211    
     20460   1424.8351     -5646.594      -5363.8863      4612.5259      45016.605      64.601708    
     20470   1420.1684     -5644.9028     -5363.1211      4505.0183      45022.639      64.771491    
     20480   1431.4401     -5646.267      -5362.2487      4419.2348      45029.443      64.952281    
     20490   1457.3621     -5650.4088     -5361.2473      4220.5321      45036.911      65.116444    
     20500   1472.1542     -5652.3094     -5360.213       4251.2506      45044.781      65.299468    
     20510   1470.3311     -5650.953      -5359.2182      4180.833       45052.831      65.517978    
     20520   1486.6381     -5653.2297     -5358.2595      3688.7232      45060.872      65.731035    
     20530   1518.5373     -5658.7354     -5357.4358      3002.4387      45068.537      65.925672    
     20540   1487.2018     -5651.8967     -5356.8146      3030.6385      45075.45       66.103823    
     20550   1471.7099     -5648.3694     -5356.3611      3026.8803      45081.626      66.274031    
     20560   1488.5562     -5651.3547     -5356.0039      3226.603       45087.575      66.442114    
     20570   1480.5841     -5649.6042     -5355.8352      4097.3243      45093.984      66.610862    
     20580   1458.2414     -5645.1302     -5355.7943      5072.6746      45101.337      66.790146    
     20590   1454.2826     -5644.4392     -5355.8887      5139.7321      45109.79       66.992204    
     20600   1436.2288     -5641.1012     -5356.1328      5007.696       45119.12       67.211372    
     20610   1395.5901     -5633.2866     -5356.3816      5232.4118      45129.361      67.426802    
     20620   1405.6492     -5635.5531     -5356.6522      5043.9623      45140.886      67.628377    
     20630   1408.4977     -5636.3364     -5356.8703      4848.2727      45153.724      67.795373    
     20640   1422.027      -5639.2566     -5357.1061      4673.8687      45167.592      67.955918    
     20650   1428.9629     -5640.9141     -5357.3874      4762.2796      45182.147      68.134308    
     20660   1413.3713     -5638.1591     -5357.726       4936.8867      45197.334      68.313445    
     20670   1427.7036     -5641.389      -5358.1122      4693.5749      45213.137      68.472887    
     20680   1425.2047     -5641.3623     -5358.5813      4707.8731      45229.408      68.636624    
     20690   1386.2165     -5634.1534     -5359.1082      5407.5756      45246.421      68.836923    
     20700   1367.0504     -5630.8041     -5359.5617      5639.4313      45264.765      69.092614    
     20710   1420.6241     -5641.8453     -5359.9732      4635.3441      45284.654      69.378758    
     20720   1415.7776     -5641.2671     -5360.3565      4290.1969      45305.723      69.668127    
     20730   1400.1452     -5638.6106     -5360.8017      4329.0807      45327.943      69.937843    
     20740   1396.5937     -5638.333      -5361.2288      4162.9452      45351.591      70.188299    
     20750   1406.0988     -5640.6207     -5361.6306      3701.7693      45376.726      70.449937    
     20760   1408.2059     -5641.4246     -5362.0163      3346.5273      45402.813      70.711222    
     20770   1395.9056     -5639.3785     -5362.4109      3664.734       45429.081      70.968871    
     20780   1373.9362     -5635.3784     -5362.7698      4202.4341      45455.367      71.24483     
     20790   1381.9049     -5637.2402     -5363.0505      4073.3767      45481.919      71.542076    
     20800   1403.0531     -5641.6593     -5363.2735      3438.7988      45508.599      71.85928     
     20810   1393.4821     -5639.9491     -5363.4623      3120.8814      45535.236      72.173867    
     20820   1396.0128     -5640.6401     -5363.6512      2992.4854      45561.672      72.459547    
     20830   1387.9411     -5639.209      -5363.8216      3108.1994      45587.659      72.701257    
     20840   1406.7427     -5643.0989     -5363.981       3147.0208      45613.191      72.898776    
     20850   1414.7368     -5644.8666     -5364.1625      3104.6068      45638.342      73.093984    
     20860   1436.2143     -5649.3984     -5364.4329      2804.4502      45663.172      73.32464     
     20870   1426.6948     -5647.9054     -5364.8287      2788.3316      45687.424      73.604421    
     20880   1428.32       -5648.8165     -5365.4174      2804.5454      45710.898      73.927091    
     20890   1420.7784     -5648.0413     -5366.1385      3148.9698      45733.724      74.259955    
     20900   1414.7569     -5647.7109     -5367.0029      3253.1628      45756.204      74.576989    
     20910   1419.9202     -5649.7621     -5368.0296      3076.281       45778.428      74.875241    
     20920   1399.0365     -5646.7273     -5369.1384      3062.8557      45800.158      75.149958    
     20930   1385.0335     -5645.1211     -5370.3106      2707.0816      45821.145      75.412726    
     20940   1367.6955     -5642.7891     -5371.4187      2235.8498      45841.025      75.656354    
     20950   1361.3417     -5642.5605     -5372.4508      1936.8814      45859.425      75.870744    
     20960   1355.9774     -5642.417      -5373.3716      1954.3221      45876.239      76.066482    
     20970   1359.2326     -5643.8665     -5374.1752      2252.4006      45891.585      76.245121    
     20980   1344.2247     -5641.545      -5374.8316      2489.4331      45905.553      76.392899    
     20990   1366.4416     -5646.4999     -5375.3783      2354.5348      45918.054      76.515016    
     21000   1353.7971     -5644.4597     -5375.847       2393.4189      45929.133      76.641016    
     21010   1375.6437     -5649.1802     -5376.2328      1802.5514      45939.126      76.782129    
     21020   1405.4957     -5655.4768     -5376.6063      1413.0138      45948.061      76.93553     
     21030   1400.1741     -5654.8693     -5377.0547      1613.2452      45955.927      77.102491    
     21040   1389.2935     -5653.2396     -5377.5839      1868.7547      45962.757      77.294194    
     21050   1388.6548     -5653.7021     -5378.1731      1503.1113      45968.42       77.496482    
     21060   1385.8505     -5653.7838     -5378.8112      970.66088      45972.472      77.681148    
     21070   1387.1098     -5654.7151     -5379.4926      452.69091      45974.364      77.841103    
     21080   1391.6874     -5656.3792     -5380.2484      41.99482       45973.481      77.986041    
     21090   1390.0763     -5656.8875     -5381.0764      121.85996      45969.481      78.111998    
     21100   1397.8462     -5659.3429     -5381.9902      382.45953      45962.615      78.203751    
     21110   1390.9591     -5658.9712     -5382.985       865.70468      45953.33       78.26551     
     21120   1396.1238     -5661.0945     -5384.0835      1175.2071      45942.056      78.292174    
     21130   1379.2771     -5658.9001     -5385.2318      1737.014       45929.162      78.295515    
     21140   1377.3964     -5659.6648     -5386.3696      1809.7613      45914.927      78.278975    
     21150   1368.1313     -5658.9133     -5387.4565      1696.2119      45899.311      78.25609     
     21160   1359.3077     -5658.1776     -5388.4715      1194.5         45882.225      78.229861    
     21170   1333.4599     -5653.9211     -5389.3436      1199.6137      45863.595      78.19093     
     21180   1312.4171     -5650.3762     -5389.9739      1604.8475      45843.73       78.144673    
     21190   1322.7452     -5652.8295     -5390.3779      1760.6862      45823.217      78.102792    
     21200   1346.9474     -5657.8715     -5390.6178      1839.1856      45802.293      78.064522    
     21210   1356.9102     -5660.0076     -5390.7772      2060.1423      45781.134      78.027474    
     21220   1380.4485     -5664.8577     -5390.9569      2025.3105      45759.803      77.998532    
     21230   1357.6421     -5660.5334     -5391.1578      2304.353       45737.88       77.971622    
     21240   1360.244      -5661.2725     -5391.3806      2047.567       45715.174      77.931484    
     21250   1370.7951     -5663.5895     -5391.6041      1700.5967      45691.649      77.874171    
     21260   1344.0278     -5658.4995     -5391.8252      2118.4029      45667.791      77.797731    
     21270   1346.4883     -5659.1715     -5392.0089      2219.7214      45644.487      77.704353    
     21280   1364.3844     -5662.8999     -5392.1865      2038.5424      45621.876      77.606665    
     21290   1367.8287     -5663.8096     -5392.4128      2164.4883      45599.545      77.519146    
     21300   1357.359      -5662.0247     -5392.7052      2440.3879      45577.074      77.423305    
     21310   1344.2819     -5659.7549     -5393.0301      2759.7465      45554.068      77.328389    
     21320   1351.6621     -5661.5413     -5393.3521      2485.7131      45530.46       77.255596    
     21330   1375.3943     -5666.6177     -5393.7197      1929.623       45506.347      77.162458    
     21340   1370.508      -5666.0779     -5394.1495      1994.9624      45481.739      77.047441    
     21350   1377.7839     -5668.073      -5394.7009      2357.6431      45456.694      76.952067    
     21360   1347.4436     -5662.6758     -5395.3237      2906.278       45431.485      76.900686    
     21370   1339.6243     -5661.7767     -5395.9761      2876.0738      45406.55       76.871492    
     21380   1360.3093     -5666.5701     -5396.6652      2336.5061      45381.899      76.838874    
     21390   1363.1562     -5667.8947     -5397.4249      2110.8928      45357.185      76.798089    
     21400   1335.6103     -5663.2679     -5398.2637      2565.8818      45332.221      76.753681    
     21410   1304.1691     -5657.8162     -5399.0503      2744.6966      45307.146      76.723149    
     21420   1319.7271     -5661.6083     -5399.7555      2164.6297      45282.109      76.730899    
     21430   1320.4462     -5662.4084     -5400.413       1776.2552      45256.821      76.777563    
     21440   1298.5764     -5658.65       -5400.9939      2034.1516      45231.034      76.833273    
     21450   1271.6589     -5653.7615     -5401.4461      2721.9214      45204.874      76.883608    
     21460   1272.2352     -5654.1486     -5401.7189      3370.3943      45178.727      76.904301    
     21470   1307.0886     -5661.1516     -5401.8065      3754.0075      45152.692      76.896107    
     21480   1369.1948     -5673.5541     -5401.8862      3476.8133      45126.639      76.879188    
     21490   1363.1541     -5672.5452     -5402.0759      3308.4091      45100.318      76.853673    
     21500   1358.4155     -5671.9783     -5402.4492      2888.3059      45073.659      76.830395    
     21510   1334.5312     -5667.739      -5402.9489      2929.5205      45046.565      76.81183     
     21520   1320.1048     -5665.4246     -5403.4969      3149.7552      45019.418      76.802961    
     21530   1311.4802     -5664.2845     -5404.0681      3209.917       44992.434      76.816412    
     21540   1306.9965     -5663.9868     -5404.66        2992.5225      44965.275      76.837097    
     21550   1290.43       -5661.2629     -5405.2231      2679.7269      44937.767      76.837295    
     21560   1272.3982     -5658.2051     -5405.7431      2655.0287      44909.986      76.8128      
     21570   1267.7069     -5657.6766     -5406.1454      2777.4783      44882.235      76.774683    
     21580   1283.1832     -5661.0659     -5406.464       2900.7087      44854.794      76.726635    
     21590   1249.4808     -5654.5554     -5406.6405      3599.4461      44827.646      76.662166    
     21600   1297.9372     -5664.2556     -5406.7263      3346.933       44800.804      76.58857     
     21610   1296.0745     -5663.877      -5406.7172      3294.2899      44774.234      76.519919    
     21620   1307.6128     -5666.1434     -5406.6943      2747.5429      44747.813      76.461986    
     21630   1336.6845     -5671.8981     -5406.6807      2268.4078      44721.247      76.400644    
     21640   1341.7988     -5672.9872     -5406.7551      2648.8943      44694.162      76.317358    
     21650   1342.6509     -5673.4142     -5407.013       3347.4993      44666.628      76.204308    
     21660   1316.172      -5668.5787     -5407.4314      4061.7543      44639.367      76.064939    
     21670   1311.6509     -5668.2792     -5408.0289      4147.7026      44613.241      75.933753    
     21680   1308.87       -5668.4546     -5408.756       4045.4148      44588.462      75.845444    
     21690   1346.7552     -5676.9009     -5409.6854      3381.3761      44564.956      75.80523     
     21700   1335.3902     -5675.8748     -5410.9142      3120.1683      44542.348      75.79614     
     21710   1289.968      -5668.2686     -5412.3204      3396.2324      44520.421      75.797303    
     21720   1259.5361     -5663.6118     -5413.7018      3514.682       44499.195      75.784673    
     21730   1267.9613     -5666.5206     -5414.9389      3121.0101      44478.699      75.74976     
     21740   1286.0418     -5671.2667     -5416.0976      2495.0729      44458.75       75.714748    
     21750   1269.2951     -5669.0149     -5417.1686      2528.3621      44438.98       75.717589    
     21760   1245.79       -5665.2902     -5418.1076      3194.8775      44419.288      75.7647      
     21770   1243.8932     -5665.6622     -5418.856       3450.4176      44399.911      75.823717    
     21780   1250.3382     -5667.4969     -5419.4119      3759.9229      44381.027      75.853583    
     21790   1276.755      -5673.1912     -5419.8647      3829.2703      44362.653      75.831557    
     21800   1272.1196     -5672.6528     -5420.2461      4129.3643      44345.063      75.780519    
     21810   1251.4932     -5668.8933     -5420.5791      4530.4286      44328.573      75.738765    
     21820   1235.5504     -5665.9493     -5420.7985      4879.263       44313.117      75.727119    
     21830   1257.1207     -5670.3065     -5420.8758      4468.1737      44298.563      75.760485    
     21840   1298.6999     -5678.5704     -5420.8898      3681.4155      44284.591      75.839993    
     21850   1311.5537     -5681.1925     -5420.9615      3035.6492      44270.636      75.931238    
     21860   1303.0355     -5679.7031     -5421.1622      3148.7379      44256.508      76.004427    
     21870   1294.3227     -5678.2386     -5421.4265      3550.546       44242.538      76.042717    
     21880   1327.2291     -5685.1791     -5421.8378      3697.5966      44229.125      76.054465    
     21890   1316.6854     -5683.667      -5422.4177      4009.4324      44216.366      76.042706    
     21900   1269.7255     -5675.0574     -5423.1256      4285.2498      44204.69       76.026945    
     21910   1274.7182     -5676.8284     -5423.906       3893.9264      44194.298      76.009186    
     21920   1257.1458     -5674.1125     -5424.6768      3879.0737      44184.937      75.997125    
     21930   1273.9422     -5678.2189     -5425.4505      3706.3325      44176.381      76.003384    
     21940   1296.5327     -5683.5374     -5426.2867      3245.6224      44168.264      76.030285    
     21950   1295.6116     -5684.3141     -5427.2462      3159.6578      44160.14       76.071225    
     21960   1262.314      -5678.7195     -5428.2583      3512.7836      44151.677      76.116755    
     21970   1266.8007     -5680.637      -5429.2856      3345.6346      44143.018      76.157109    
     21980   1242.8654     -5676.8547     -5430.2524      3769.3944      44134.452      76.195192    
     21990   1232.674      -5675.7078     -5431.1276      4226.7765      44126.089      76.22923     
     22000   1222.2366     -5674.3524     -5431.8432      4458.7921      44118.079      76.259392    
     22010   1213.8391     -5673.2303     -5432.3873      4681.8704      44110.691      76.281593    
     22020   1228.2297     -5676.5087     -5432.8103      4768.5753      44103.945      76.284684    
     22030   1204.4126     -5672.0427     -5433.07        5156.1917      44097.613      76.28123     
     22040   1199.1403     -5671.0876     -5433.161       5028.9227      44091.335      76.289916    
     22050   1231.0691     -5677.3499     -5433.0881      4356.5521      44084.875      76.33932     
     22060   1252.8352     -5681.5129     -5432.9325      3934.0509      44077.936      76.445082    
     22070   1235.8933     -5677.9658     -5432.7469      4366.9676      44070.542      76.570894    
     22080   1243.8999     -5679.3424     -5432.5348      4232.016       44063.19       76.662924    
     22090   1242.732      -5678.8715     -5432.2956      3941.7872      44056.297      76.719296    
     22100   1225.8424     -5675.2489     -5432.0242      3801.9603      44049.953      76.747933    
     22110   1246.1425     -5678.9429     -5431.6903      3521.1058      44043.974      76.769302    
     22120   1263.9071     -5682.1047     -5431.3275      3434.7922      44038.197      76.821382    
     22130   1274.5659     -5683.9098     -5431.0177      3431.6808      44032.576      76.917492    
     22140   1255.441      -5679.8774     -5430.78        3773.3699      44027.147      77.034033    
     22150   1241.4025     -5676.9034     -5430.5914      4095.9364      44022.349      77.145588    
     22160   1243.4865     -5677.0986     -5430.3731      4038.2657      44018.482      77.246086    
     22170   1243.6767     -5676.9078     -5430.1446      3895.6301      44015.471      77.366096    
     22180   1232.1576     -5674.3733     -5429.8956      3722.715       44013.183      77.524699    
     22190   1220.0531     -5671.6523     -5429.5763      3705.1428      44011.414      77.710754    
     22200   1226.1696     -5672.4104     -5429.1208      3716.6761      44010.057      77.865956    
     22210   1254.2632     -5677.3971     -5428.5333      3592.4725      44009.011      77.956032    
     22220   1257.2326     -5677.2759     -5427.8229      3949.4054      44008.354      78.006585    
     22230   1248.4024     -5674.7106     -5427.0096      4629.9228      44008.291      78.030275    
     22240   1265.0591     -5677.0774     -5426.0715      5030.6395      44009.173      78.052131    
     22250   1296.2474     -5682.2589     -5425.0649      5068.0355      44011.405      78.111614    
     22260   1281.8826     -5678.4305     -5424.0867      5236.0245      44015.221      78.184278    
     22270   1281.812      -5677.5388     -5423.209       5104.11        44020.525      78.216297    
     22280   1298.1145     -5680.0074     -5422.4429      4915.7981      44026.961      78.235554    
     22290   1285.4388     -5676.8917     -5421.8423      5171.4168      44034.294      78.294383    
     22300   1282.9491     -5676.0157     -5421.4603      5086.4325      44042.605      78.402242    
     22310   1300.3586     -5679.2871     -5421.2773      4537.1557      44051.786      78.537902    
     22320   1291.4455     -5677.5963     -5421.355       4167.768       44061.293      78.679802    
     22330   1274.8753     -5674.6329     -5421.6794      3929.6273      44070.89       78.817598    
     22340   1292.1617     -5678.6755     -5422.2922      3664.3531      44080.696      78.97405     
     22350   1279.2747     -5677.0184     -5423.192       3845.2333      44090.856      79.203344    
     22360   1267.4845     -5675.8334     -5424.3463      4103.5752      44101.611      79.480437    
     22370   1287.4436     -5681.2061     -5425.7588      3937.9426      44112.823      79.769881    
     22380   1281.9523     -5681.7502     -5427.3926      3962.4381      44123.977      80.051954    
     22390   1281.294      -5683.3909     -5429.1638      4054.8654      44134.814      80.296816    
     22400   1259.2561     -5680.8281     -5430.9737      4568.7382      44145.429      80.522875    
     22410   1230.813      -5676.798      -5432.5871      4709.4747      44156.187      80.747917    
     22420   1252.3459     -5682.4841     -5434.0008      3819.6784      44167.129      80.960495    
     22430   1239.82       -5681.2555     -5435.2575      3297.353       44177.901      81.173836    
     22440   1213.9854     -5677.2239     -5436.3518      3207.9089      44188.535      81.399595    
     22450   1227.0165     -5680.7399     -5437.2822      2880.5567      44198.987      81.626515    
     22460   1247.3507     -5685.6639     -5438.1717      2527.3129      44208.974      81.861474    
     22470   1241.0431     -5685.3065     -5439.0658      2437.6697      44218.375      82.08914     
     22480   1239.0955     -5685.8496     -5439.9953      2317.9721      44227.15       82.274313    
     22490   1249.6615     -5688.9272     -5440.9765      2201.6478      44235.126      82.409318    
     22500   1234.871      -5687.0321     -5442.016       2703.0934      44242.275      82.52048     
     22510   1213.0769     -5683.7695     -5443.0777      3447.5818      44249.084      82.649107    
     22520   1220.3215     -5686.2524     -5444.1232      3655.474       44256.184      82.808057    
     22530   1216.2971     -5686.4744     -5445.1436      3547.1009      44263.836      83.0013      
     22540   1218.8157     -5687.9949     -5446.1644      3006.9999      44271.838      83.233626    
     22550   1214.0232     -5688.0652     -5447.1856      2660.9189      44279.869      83.491332    
     22560   1203.0171     -5686.871      -5448.1752      2582.2042      44287.606      83.73126     
     22570   1210.568      -5689.3315     -5449.1375      2292.5181      44294.717      83.93904     
     22580   1207.193      -5689.6102     -5450.0859      2149.3229      44300.803      84.139737    
     22590   1212.9823     -5691.7214     -5451.0484      2087.3044      44305.61       84.348057    
     22600   1197.9519     -5689.7051     -5452.0143      2626.1606      44308.963      84.55972     
     22610   1173.4026     -5685.7335     -5452.9136      3299.6157      44311.317      84.769099    
     22620   1195.2282     -5690.8986     -5453.7482      3040.35        44313.512      84.954615    
     22630   1199.1557     -5692.4832     -5454.5535      2757.4857      44315.891      85.086787    
     22640   1176.4554     -5688.7877     -5455.3621      2826.3668      44318.309      85.166484    
     22650   1130.1481     -5680.2935     -5456.0559      3365.474       44320.485      85.21231     
     22660   1111.0983     -5676.9891     -5456.5313      3683.1958      44322.441      85.24343     
     22670   1130.7708     -5681.1445     -5456.7834      3565.0612      44324.133      85.28314     
     22680   1155.6936     -5686.1862     -5456.88        3275.2678      44325.72       85.335253    
     22690   1154.1593     -5685.8621     -5456.8603      3172.4481      44327.476      85.415622    
     22700   1184.621      -5691.8804     -5456.8346      2912.5374      44329.542      85.521519    
     22710   1161.5394     -5687.228      -5456.762       3297.0475      44331.843      85.634244    
     22720   1157.9525     -5686.437      -5456.6827      3628.4523      44334.508      85.762146    
     22730   1182.0732     -5691.1036     -5456.5634      3650.7463      44337.54       85.918803    
     22740   1194.3344     -5693.4185     -5456.4454      3718.8125      44340.907      86.084403    
     22750   1197.6198     -5694.0399     -5456.415       4048.3796      44344.35       86.237168    
     22760   1195.7075     -5693.7279     -5456.4824      4043.6828      44347.658      86.364113    
     22770   1204.6552     -5695.6666     -5456.6458      3585.4134      44350.725      86.452978    
     22780   1205.8438     -5696.2104     -5456.9538      3141.4691      44353.322      86.538746    
     22790   1189.8946     -5693.517      -5457.4248      3368.1413      44355.143      86.643549    
     22800   1183.685      -5692.8593     -5457.9992      3258.7582      44356.362      86.777415    
     22810   1202.3765     -5697.2959     -5458.7272      2529.226       44357.198      86.942636    
     22820   1181.5404     -5694.0289     -5459.5944      2175.2635      44357.633      87.092268    
     22830   1174.2663     -5693.5562     -5460.5649      2066.4603      44357.638      87.210071    
     22840   1168.7952     -5693.5056     -5461.5999      1848.1783      44357.117      87.309521    
     22850   1126.0071     -5686.0137     -5462.5977      1973.8126      44355.967      87.400282    
     22860   1147.5668     -5691.2102     -5463.5165      1705.9879      44354.097      87.477995    
     22870   1154.2181     -5693.3829     -5464.3695      1957.4716      44351.237      87.541498    
     22880   1130.3779     -5689.4235     -5465.1403      2696.8672      44347.418      87.580979    
     22890   1150.8791     -5694.175      -5465.8242      2888.2801      44343.064      87.60621     
     22900   1163.1468     -5697.2465     -5466.4615      3024.8145      44338.443      87.63281     
     22910   1158.1669     -5696.8766     -5467.0797      2867.4875      44333.819      87.672188    
     22920   1161.4564     -5698.1558     -5467.7062      2444.0207      44329.214      87.749212    
     22930   1152.4218     -5696.9678     -5468.3108      2177.5479      44324.163      87.855078    
     22940   1152.2727     -5697.5332     -5468.9058      2097.2692      44318.334      87.943858    
     22950   1137.8252     -5695.2118     -5469.451       2520.5571      44311.687      88.00913     
     22960   1135.7711     -5695.281      -5469.9277      2532.0856      44304.234      88.080671    
     22970   1137.9005     -5696.1398     -5470.364       2228.0461      44295.976      88.169433    
     22980   1123.4719     -5693.6224     -5470.7095      2118.5224      44286.993      88.271823    
     22990   1128.4134     -5694.8965     -5471.0031      2113.7047      44277.315      88.378343    
     23000   1103.859      -5690.2123     -5471.1908      2545.4641      44267.049      88.439818    
     23010   1122.2879     -5693.9524     -5471.2744      2406.2195      44256.562      88.42737     
     23020   1143.9439     -5698.2781     -5471.3032      2222.9392      44245.826      88.373819    
     23030   1134.9532     -5696.514      -5471.3231      2595.4477      44234.808      88.317114    
     23040   1142.0281     -5697.9576     -5471.3629      2763.394       44223.792      88.264027    
     23050   1134.3129     -5696.4807     -5471.4168      2917.3454      44212.821      88.20799     
     23060   1110.1031     -5691.7101     -5471.4497      3178.4149      44201.882      88.151551    
     23070   1120.9517     -5693.8535     -5471.4406      2945.035       44190.88       88.116627    
     23080   1116.2921     -5692.8618     -5471.3735      2897.2189      44179.543      88.122952    
     23090   1114.8895     -5692.4868     -5471.2768      2814.4073      44167.767      88.151051    
     23100   1117.4077     -5692.8519     -5471.1422      2907.9093      44155.358      88.189874    
     23110   1113.5584     -5691.9119     -5470.9659      3141.0878      44142.082      88.2316      
     23120   1129.4682     -5694.8719     -5470.7693      3111.7064      44128.072      88.26225     
     23130   1132.2901     -5695.2257     -5470.5631      2951.3131      44113.456      88.26872     
     23140   1146.2392     -5697.8309     -5470.4007      2525.4789      44098.191      88.247516    
     23150   1146.7907     -5697.8547     -5470.315       2422.475       44082.078      88.209249    
     23160   1140.0454     -5696.5052     -5470.3039      2708.7116      44065.016      88.159123    
     23170   1162.0028     -5700.9587     -5470.4007      2950.1243      44047.3        88.089055    
     23180   1154.3435     -5699.6294     -5470.5911      3554.0032      44029.35       87.998795    
     23190   1159.4824     -5701.0195     -5470.9616      3910.2368      44011.55       87.892637    
     23200   1160.5375     -5701.7798     -5471.5125      4202.4675      43994.056      87.778319    
     23210   1154.55       -5701.3759     -5472.2966      4135.4877      43977.089      87.651845    
     23220   1143.9746     -5700.3289     -5473.3479      3713.4853      43960.592      87.533419    
     23230   1136.2797     -5700.137      -5474.6828      3096.6863      43944.073      87.456277    
     23240   1127.0568     -5699.9213     -5476.297       2759.4516      43927.279      87.402161    
     23250   1126.8679     -5701.6831     -5478.0964      2591.1358      43910.166      87.352288    
     23260   1121.7841     -5702.5518     -5479.9737      2685.4913      43892.709      87.312737    
     23270   1109.5054     -5701.8226     -5481.6809      3044.8312      43875.018      87.289512    
     23280   1119.2687     -5705.1647     -5483.0857      3339.2224      43857.305      87.300179    
     23290   1125.8185     -5707.5758     -5484.1973      3729.2707      43839.55       87.344001    
     23300   1128.5103     -5708.9399     -5485.0273      4089.6519      43821.775      87.393003    
     23310   1134.7998     -5710.8585     -5485.698       4112.8652      43804.231      87.446533    
     23320   1128.3701     -5710.1664     -5486.2816      4010.0028      43787.069      87.519303    
     23330   1122.9425     -5709.635      -5486.8271      3562.4225      43770.176      87.576999    
     23340   1111.4779     -5707.8772     -5487.3441      3078.1547      43753.234      87.568688    
     23350   1104.9608     -5707.0836     -5487.8436      2577.6532      43736.025      87.516468    
     23360   1120.7111     -5710.7062     -5488.341       2193.84        43718.373      87.484864    
     23370   1110.3344     -5709.1813     -5488.875       2354.6014      43700.023      87.485902    
     23380   1098.7883     -5707.4421     -5489.4268      2815.9588      43681.103      87.500352    
     23390   1093.7774     -5706.9774     -5489.9563      3236.361       43662.168      87.536489    
     23400   1098.6702     -5708.4664     -5490.4745      3531.2861      43643.769      87.593031    
     23410   1101.0215     -5709.4457     -5490.9872      3592.901       43626.431      87.645373    
     23420   1116.5848     -5713.1089     -5491.5625      3351.6471      43610.293      87.685736    
     23430   1098.4114     -5710.1316     -5492.191       3340.8233      43594.884      87.721318    
     23440   1106.6727     -5712.4717     -5492.892       3311.632       43579.935      87.749432    
     23450   1102.9369     -5712.4644     -5493.6259      3591.169       43565.399      87.752693    
     23460   1087.9167     -5710.2374     -5494.3792      4002.0224      43551.36       87.708315    
     23470   1084.5447     -5710.3282     -5495.1391      4139.0436      43538.07       87.661144    
     23480   1084.8799     -5711.131      -5495.8753      4236.4475      43525.598      87.639567    
     23490   1076.3725     -5710.1711     -5496.6034      4480.7779      43514.099      87.63757     
     23500   1053.0552     -5706.197      -5497.2558      4704.2         43503.905      87.666212    
     23510   1053.8677     -5706.9166     -5497.8142      4438.0142      43495.224      87.731364    
     23520   1066.6368     -5709.9177     -5498.2817      3826.5104      43487.95       87.798348    
     23530   1083.0769     -5713.5985     -5498.7005      3354.7697      43481.518      87.846326    
     23540   1109.8213     -5719.3689     -5499.1645      3057.4506      43475.392      87.885429    
     23550   1107.0155     -5719.396      -5499.7483      3399.8094      43469.255      87.926664    
     23560   1079.7449     -5714.6462     -5500.4094      4047.6171      43463.375      87.977706    
     23570   1094.8863     -5718.3486     -5501.1075      4011.1089      43458.221      88.050703    
     23580   1089.7857     -5718.0908     -5501.8617      3787.4902      43453.983      88.160816    
     23590   1068.9273     -5714.7385     -5502.648       3811.4505      43450.475      88.299085    
     23600   1066.0833     -5714.9388     -5503.4126      3702.6959      43447.419      88.429664    
     23610   1042.735      -5711.0131     -5504.1195      4012.7792      43444.801      88.538895    
     23620   1034.583      -5709.9734     -5504.6973      4063.7809      43442.772      88.624171    
     23630   1058.3139     -5715.1721     -5505.1875      3719.3242      43441.213      88.660749    
     23640   1056.5157     -5715.2391     -5505.6113      3801.3253      43439.938      88.648883    
     23650   1069.4057     -5718.2179     -5506.0325      3732.6125      43439.108      88.616879    
     23660   1073.64       -5719.4846     -5506.4591      3550.2646      43438.811      88.59074     
     23670   1070.0531     -5719.2257     -5506.9118      3401.9116      43438.85       88.593659    
     23680   1067.1609     -5719.1213     -5507.3813      3081.1244      43439.121      88.646206    
     23690   1074.0746     -5721.0066     -5507.8948      2936.4534      43439.636      88.728543    
     23700   1075.5458     -5721.8419     -5508.4382      3156.2024      43440.552      88.812508    
     23710   1084.0236     -5724.1582     -5509.0724      3361.3259      43442.102      88.895676    
     23720   1062.8054     -5720.6353     -5509.7594      3886.284       43444.368      88.974356    
     23730   1047.4303     -5718.2776     -5510.4524      4115.4076      43447.496      89.048893    
     23740   1037.0067     -5716.8497     -5511.0927      4088.6229      43451.492      89.145596    
     23750   1038.2405     -5717.6631     -5511.6613      3751.2662      43456.189      89.281069    
     23760   1049.1832     -5720.3386     -5512.1657      3339.7214      43461.105      89.428284    
     23770   1062.8339     -5723.5375     -5512.656       2845.6433      43465.809      89.549494    
     23780   1078.6647     -5727.2109     -5513.1884      2297.3949      43470.177      89.636726    
     23790   1084.5685     -5728.998      -5513.8041      1960.0633      43474.07       89.701669    
     23800   1064.1276     -5725.6271     -5514.4889      2357.7343      43477.326      89.755003    
     23810   1060.4617     -5725.6143     -5515.2035      2520.8304      43480.165      89.802012    
     23820   1045.6691     -5723.3789     -5515.9032      2572.6642      43482.87       89.832685    
     23830   1021.6552     -5719.2327     -5516.5216      2634.7331      43485.599      89.847261    
     23840   1022.6284     -5719.9164     -5517.0123      2403.5366      43488.313      89.872522    
     23850   1011.613      -5718.1055     -5517.387       2486.1183      43490.689      89.927424    
     23860   1012.6632     -5718.5625     -5517.6356      2734.7964      43492.679      90.029066    
     23870   1028.7247     -5721.8903     -5517.7766      2817.7545      43494.459      90.182298    
     23880   1057.9338     -5727.8071     -5517.8979      2837.2728      43496.113      90.346873    
     23890   1069.735      -5730.3267     -5518.0759      3126.6825      43497.729      90.464535    
     23900   1054.1651     -5727.4918     -5518.3304      3394.2276      43499.532      90.530037    
     23910   1048.1989     -5726.6191     -5518.6415      3558.301       43501.815      90.60712     
     23920   1046.7428     -5726.658      -5518.9692      3386.6567      43504.496      90.74197     
     23930   1034.5214     -5724.5698     -5519.306       3294.0717      43507.33       90.90209     
     23940   1027.5909     -5723.5162     -5519.6275      3170.5791      43510.258      91.031268    
     23950   1032.7483     -5724.8243     -5519.9123      2871.3698      43513.15       91.11892     
     23960   1028.3762     -5724.2351     -5520.1905      3009.1268      43515.812      91.186317    
     23970   1028.6984     -5724.564      -5520.4555      3334.6843      43518.277      91.252436    
     23980   1037.5084     -5726.573      -5520.7165      3546.812       43520.828      91.334309    
     23990   1021.9148     -5723.7528     -5520.9903      3654.1137      43523.742      91.423955    
     24000   1025.4761     -5724.7317     -5521.2625      3092.4765      43527.251      91.500917    
     24010   1028.7595     -5725.6516     -5521.531       2301.8879      43531.22       91.552775    
     24020   1014.6362     -5723.1207     -5521.8024      2143.7224      43535.261      91.576451    
     24030   984.95082     -5717.4587     -5522.0304      2452.2106      43539.364      91.591993    
     24040   981.85187     -5716.9695     -5522.156       2438.312       43543.604      91.623322    
     24050   999.51359     -5720.4917     -5522.1739      2400.8504      43547.83       91.659577    
     24060   1019.133      -5724.3615     -5522.1509      2671.7478      43551.924      91.696709    
     24070   1019.8516     -5724.483      -5522.1299      3125.4893      43556.029      91.757159    
     24080   1033.5738     -5727.2314     -5522.1556      3165.1627      43560.295      91.839471    
     24090   1033.9197     -5727.3933     -5522.2488      2906.3302      43564.722      91.939977    
     24100   1034.7805     -5727.7441     -5522.4289      2520.4727      43569.174      92.056715    
     24110   1017.8194     -5724.639      -5522.6891      2352.2515      43573.363      92.160402    
     24120   1005.72       -5722.5344     -5522.9852      2154.6557      43577.12       92.239024    
     24130   1000.1277     -5721.7233     -5523.2836      1720.2557      43580.222      92.297274    
     24140   1010.2778     -5724.0308     -5523.5772      1321.1572      43582.295      92.321755    
     24150   1021.2496     -5726.5503     -5523.9197      1212.8897      43583.101      92.330571    
     24160   1007.5635     -5724.2292     -5524.3142      1636.7737      43582.658      92.376842    
     24170   1026.5488     -5728.4714     -5524.7895      1840.9702      43581.308      92.480747    
     24180   1022.3277     -5728.2026     -5525.3582      2050.9685      43579.253      92.62625     
     24190   1017.202      -5727.8884     -5526.061       1950.8418      43576.569      92.778826    
     24200   1006.5825     -5726.5756     -5526.8552      1717.395       43573.134      92.916474    
     24210   992.26596     -5724.6189     -5527.7391      1691.777       43568.683      93.035997    
     24220   971.24033     -5721.3285     -5528.6205      2062.0045      43563.089      93.130749    
     24230   973.18692     -5722.5483     -5529.4541      2573.2955      43556.595      93.218871    
     24240   986.89122     -5726.0559     -5530.2426      2758.9442      43549.558      93.3088      
     24250   999.90621     -5729.4261     -5531.0304      2742.1836      43542.15       93.38448     
     24260   995.47308     -5729.3423     -5531.8262      2728.9062      43534.332      93.441417    
     24270   987.20573     -5728.4707     -5532.5949      2656.0602      43526.124      93.465109    
     24280   995.88856     -5730.9177     -5533.3192      2443.2083      43517.921      93.45652     
     24290   999.71621     -5732.3588     -5534.0007      2377.8309      43509.967      93.448885    
     24300   1008.5497     -5734.7633     -5534.6526      2239.5856      43501.939      93.487033    
     24310   1009.9345     -5735.6576     -5535.2721      2169.7141      43493.361      93.558423    
     24320   1005.5262     -5735.3416     -5535.8308      2162.472       43484.145      93.625817    
     24330   1014.7815     -5737.6912     -5536.344       1991.9444      43474.385      93.695732    
     24340   1008.3935     -5736.9038     -5536.8241      2221.5173      43464.2        93.758143    
     24350   995.34562     -5734.7476     -5537.2567      2461.4055      43453.954      93.787347    
     24360   985.45276     -5733.1465     -5537.6185      2650.4166      43443.904      93.781673    
     24370   974.48601     -5731.2825     -5537.9305      2739.2058      43434.05       93.782037    
     24380   972.12049     -5731.0701     -5538.1874      2827.5916      43424.37       93.813201    
     24390   985.36038     -5733.9229     -5538.4132      2696.5489      43415.028      93.860305    
     24400   970.41698     -5731.1931     -5538.6485      2833.1668      43406.095      93.904695    
     24410   951.37743     -5727.6046     -5538.8377      3001.8124      43397.501      93.922234    
     24420   974.349       -5732.313      -5538.9882      2638.6124      43389.139      93.906253    
     24430   979.59843     -5733.4995     -5539.1332      2451.3329      43380.783      93.856863    
     24440   980.3493      -5733.835      -5539.3196      2353.2949      43372.366      93.767426    
     24450   985.98376     -5735.1918     -5539.5585      2316.6869      43363.961      93.654571    
     24460   953.78642     -5729.0764     -5539.8315      2760.1056      43355.6        93.564233    
     24470   945.3999      -5727.6555     -5540.0746      2765.3908      43347.4        93.520926    
     24480   968.77833     -5732.5027     -5540.2832      2472.7649      43339.327      93.52835     
     24490   967.96687     -5732.5514     -5540.4929      2640.1583      43331.125      93.550359    
     24500   992.46696     -5737.6794     -5540.7598      2606.5358      43322.799      93.540978    
     24510   1007.0986     -5740.9673     -5541.1445      2737.8281      43314.352      93.499341    
     24520   1000.5938     -5740.2308     -5541.6987      3227.4262      43305.849      93.44683     
     24530   1003.6525     -5741.5642     -5542.4252      3349.9334      43297.667      93.402379    
     24540   990.53748     -5739.8302     -5543.2934      3324.5586      43290.054      93.391339    
     24550   998.76151     -5742.4812     -5544.3126      2820.6477      43282.84       93.401808    
     24560   978.70957     -5739.5889     -5545.3989      2480.4326      43275.578      93.395263    
     24570   974.48329     -5739.8383     -5546.4868      2193.3211      43267.888      93.36523     
     24580   972.97153     -5740.5916     -5547.5401      2278.7673      43259.601      93.338375    
     24590   955.68515     -5738.1292     -5548.5075      2690.3923      43250.772      93.332564    
     24600   950.24925     -5737.901      -5549.3579      2863.724       43241.682      93.345013    
     24610   937.93451     -5736.1816     -5550.082       2934.3337      43232.583      93.380241    
     24620   929.63006     -5735.1057     -5550.6538      2993.5457      43223.656      93.424384    
     24630   938.47065     -5737.3202     -5551.1142      2661.5009      43215.07       93.428039    
     24640   936.12943     -5737.2458     -5551.5044      2418.7354      43206.678      93.377382    
     24650   937.76762     -5737.912      -5551.8455      2398.0212      43198.124      93.310307    
     24660   935.56848     -5737.7754     -5552.1452      2473.9998      43189.265      93.274762    
     24670   924.63997     -5735.8634     -5552.4016      2554.4603      43180.052      93.282552    
     24680   941.7785      -5739.4761     -5552.6137      2373.7217      43170.453      93.319884    
     24690   966.20405     -5744.5474     -5552.8386      2049.5334      43160.251      93.36181     
     24700   977.16855     -5747.0482     -5553.164       2058.8988      43149.288      93.392543    
     24710   969.31979     -5745.9327     -5553.6058      2358.641       43137.65       93.412212    
     24720   971.97888     -5747.0376     -5554.1831      2496.2734      43125.432      93.448359    
     24730   953.94953     -5744.1365     -5554.8592      2756.0527      43112.594      93.520581    
     24740   933.8554      -5740.8618     -5555.5715      2966.9075      43099.207      93.610405    
     24750   941.2227      -5743.0294     -5556.2774      2470.3221      43085.521      93.677805    
     24760   955.19226     -5746.5271     -5557.0033      1892.8203      43071.41       93.698086    
     24770   949.70356     -5746.2136     -5557.7788      1913.702       43056.544      93.678117    
     24780   937.92859     -5744.67       -5558.5716      2364.9875      43040.99       93.633483    
     24790   936.44172     -5745.1355     -5559.332       2487.1748      43025.23       93.586144    
     24800   937.11775     -5745.9869     -5560.0494      2214.5271      43009.493      93.558903    
     24810   940.54442     -5747.3716     -5560.7541      2019.524       42993.631      93.570645    
     24820   934.42354     -5746.8354     -5561.4324      2149.325       42977.531      93.607455    
     24830   934.62961     -5747.5225     -5562.0786      2419.7848      42961.169      93.652341    
     24840   948.80351     -5750.9722     -5562.716       2345.1173      42944.625      93.70088     
     24850   936.53701     -5749.1913     -5563.3689      2577.1715      42927.903      93.740543    
     24860   912.36797     -5744.9993     -5563.9724      2963.3997      42911.214      93.73738     
     24870   921.28645     -5747.3005     -5564.5041      2935.2271      42894.8        93.673657    
     24880   923.33524     -5748.1992     -5564.9963      2954.6825      42878.616      93.569806    
     24890   930.73552     -5750.131      -5565.4597      3073.5116      42862.728      93.46547     
     24900   941.81976     -5752.8193     -5565.9488      3301.5189      42847.34       93.412661    
     24910   936.76186     -5752.344      -5566.477       3529.1631      42832.646      93.416619    
     24920   923.66053     -5750.3035     -5567.036       3411.5237      42818.9        93.4543      
     24930   904.09436     -5746.9607     -5567.5754      3443.5518      42806.16       93.512011    
     24940   904.54039     -5747.532      -5568.0582      3215.2977      42794.382      93.591568    
     24950   915.7342      -5750.194      -5568.4992      2805.9939      42783.212      93.670315    
     24960   916.5569      -5750.8147     -5568.9567      2606.7381      42772.189      93.72278     
     24970   896.73436     -5747.313      -5569.388       2878.4193      42761.185      93.75063     
     24980   903.25501     -5749.0115     -5569.7927      2826.3181      42750.401      93.771945    
     24990   899.59318     -5748.6515     -5570.1593      2842.4916      42739.869      93.804615    
     25000   893.26446     -5747.7363     -5570.4999      2932.2766      42729.524      93.844808    
     25010   895.28941     -5748.446      -5570.8078      2926.4249      42719.25       93.873837    
     25020   886.98618     -5747.0632     -5571.0725      3121.3159      42709.083      93.896215    
     25030   894.88807     -5748.869      -5571.3104      3200.1327      42699.293      93.935983    
     25040   892.04558     -5748.5127     -5571.5181      3608.7066      42690.279      94.003123    
     25050   885.3357      -5747.3741     -5571.7109      4240.7266      42682.571      94.084614    
     25060   872.59839     -5744.9993     -5571.8632      4696.4859      42676.604      94.159457    
     25070   888.53251     -5748.2706     -5571.9731      4501.8984      42672.529      94.234203    
     25080   918.39444     -5754.3014     -5572.0788      3766.8193      42670.08       94.314333    
     25090   913.29186     -5753.48       -5572.2698      3803.4254      42668.829      94.39755     
     25100   903.56692     -5751.8273     -5572.5467      4157.9148      42668.721      94.506213    
     25110   900.62112     -5751.587      -5572.8909      4342.6159      42669.912      94.619067    
     25120   893.60139     -5750.5968     -5573.2935      4240.223       42672.411      94.699173    
     25130   888.21901     -5749.9662     -5573.7308      3848.9528      42675.91       94.741278    
     25140   886.71545     -5750.1354     -5574.1983      3356.1805      42679.93       94.758223    
     25150   885.84235     -5750.462      -5574.6982      2960.7481      42684.209      94.764799    
     25160   884.66388     -5750.7513     -5575.2214      2648.7938      42688.794      94.793852    
     25170   904.01423     -5755.1803     -5575.8109      2119.9034      42693.656      94.871179    
     25180   901.16547     -5755.3022     -5576.4981      2121.6218      42698.618      94.978846    
     25190   880.91583     -5752.0393     -5577.253       2267.5722      42703.682      95.077746    
     25200   880.13226     -5752.6677     -5578.0369      2267.1124      42708.852      95.154181    
     25210   876.24346     -5752.667      -5578.8077      2316.4098      42714.218      95.224268    
     25220   872.48519     -5752.6699     -5579.5564      2486.538       42719.963      95.307375    
     25230   867.68617     -5752.3971     -5580.2357      2592.4235      42726.197      95.41219     
     25240   876.22015     -5754.6929     -5580.8382      2216.9384      42732.852      95.52552     
     25250   876.36207     -5755.2729     -5581.3902      1927.4783      42739.646      95.638524    
     25260   852.19574     -5750.9359     -5581.8481      2133.7242      42746.445      95.74235     
     25270   846.23377     -5750.0896     -5582.1847      1951.7462      42753.162      95.839812    
     25280   835.15913     -5748.0846     -5582.3771      1946.5068      42759.547      95.942538    
     25290   843.01692     -5749.7274     -5582.4608      2008.139       42765.494      96.045617    
     25300   862.24892     -5753.5404     -5582.4579      2188.4168      42770.927      96.131946    
     25310   882.00025     -5757.4684     -5582.4669      2364.0363      42775.815      96.190219    
     25320   860.81618     -5753.3005     -5582.5023      2966.6152      42780.244      96.216382    
     25330   860.07215     -5753.1973     -5582.5466      3081.1684      42784.547      96.227061    
     25340   887.09961     -5758.6135     -5582.6003      3011.3553      42788.869      96.239602    
     25350   874.60872     -5756.2482     -5582.7133      3602.406       42793.089      96.265823    
     25360   857.90902     -5753.0793     -5582.8579      3981.9947      42797.261      96.302066    
     25370   879.21721     -5757.4724     -5583.0231      3530.2615      42801.57       96.338687    
     25380   878.85434     -5757.6134     -5583.2361      3333.0347      42805.915      96.372745    
     25390   871.11275     -5756.354      -5583.5128      3312.6645      42810.183      96.387568    
     25400   881.17864     -5758.6875     -5583.849       3123.5942      42814.458      96.37768     
     25410   886.93917     -5760.2512     -5584.2698      2864.8674      42818.752      96.371287    
     25420   859.90111     -5755.3802     -5584.7636      3005.2847      42823.046      96.389159    
     25430   855.48014     -5755.0192     -5585.2797      2776.7915      42827.488      96.429367    
     25440   858.61091     -5756.1548     -5585.7941      2488.7047      42832.089      96.497323    
     25450   854.26609     -5755.8102     -5586.3116      2487.5827      42836.654      96.589202    
     25460   861.39188     -5757.7533     -5586.8408      2409.9949      42840.906      96.691985    
     25470   852.68955     -5756.5671     -5587.3813      2400.6253      42844.624      96.802239    
     25480   844.07616     -5755.3879     -5587.9111      2329.4994      42847.795      96.912837    
     25490   838.01352     -5754.6753     -5588.4014      2357.7546      42850.578      97.021046    
     25500   843.43336     -5756.1998     -5588.8506      2321.4477      42853.233      97.126672    
     25510   842.82522     -5756.5027     -5589.2741      2367.7698      42855.738      97.213155    
     25520   830.44009     -5754.4435     -5589.6723      2662.3009      42858.031      97.277647    
     25530   831.22314     -5754.95       -5590.0234      2668.1679      42860.366      97.339475    
     25540   826.87765     -5754.3809     -5590.3165      2337.326       42862.775      97.411651    
     25550   830.2317      -5755.3081     -5590.5782      1943.2698      42865.11       97.479937    
     25560   829.64613     -5755.4114     -5590.7977      1804.337       42867.191      97.530972    
     25570   825.39926     -5754.7621     -5590.991       1940.9506      42868.976      97.565261    
     25580   836.30997     -5757.0978     -5591.1619      1937.4052      42870.534      97.585142    
     25590   845.47769     -5759.105      -5591.3501      1971.7102      42871.787      97.608329    
     25600   851.01856     -5760.4387     -5591.5845      2016.7811      42872.727      97.662732    
     25610   841.77885     -5758.8918     -5591.8709      2117.5333      42873.362      97.754145    
     25620   838.04631     -5758.4718     -5592.1914      1809.7051      42873.527      97.847185    
     25630   841.07666     -5759.4232     -5592.5416      1401.8047      42872.963      97.922032    
     25640   834.38955     -5758.4846     -5592.9298      1212.3942      42871.359      97.986863    
     25650   829.48434     -5757.9188     -5593.3372      1249.8272      42868.659      98.05237     
     25660   830.35739     -5758.5059     -5593.7511      1267.6692      42865.073      98.110092    
     25670   836.48425     -5760.1472     -5594.1768      1208.9647      42860.72       98.154732    
     25680   845.06616     -5762.3159     -5594.6427      1205.176       42855.481      98.194985    
     25690   847.11352     -5763.2303     -5595.1509      1441.8334      42849.309      98.22926     
     25700   859.08421     -5766.1963     -5595.7417      1793.8428      42842.343      98.243431    
     25710   846.54541     -5764.3539     -5596.3871      2301.6028      42834.764      98.232031    
     25720   843.47688     -5764.4015     -5597.0436      2235.1713      42826.785      98.210945    
     25730   849.09498     -5766.1824     -5597.7098      1722.9932      42818.343      98.201139    
     25740   835.69777     -5764.1667     -5598.3523      1582.6108      42809.277      98.215176    
     25750   822.27149     -5762.0775     -5598.9271      1573.0437      42799.616      98.235963    
     25760   816.21094     -5761.3663     -5599.4184      1590.6371      42789.461      98.238202    
     25770   814.09158     -5761.3546     -5599.8272      1517.2385      42778.841      98.208348    
     25780   809.40968     -5760.7808     -5600.1823      1431.67        42767.595      98.164619    
     25790   806.40632     -5760.4863     -5600.4838      1332.8754      42755.591      98.131346    
     25800   807.37055     -5760.9412     -5600.7473      1229.9756      42742.804      98.09897     
     25810   802.27727     -5760.1648     -5600.9815      1271.7673      42729.455      98.058925    
     25820   816.36712     -5763.1816     -5601.2027      1075.461       42715.843      98.024984    
     25830   830.5247      -5766.2571     -5601.4691      973.10774      42701.845      98.009566    
     25840   821.5507      -5764.8062     -5601.7987      1372.425       42687.28       98.00606     
     25850   812.20353     -5763.3322     -5602.1793      1956.6215      42672.353      98.019362    
     25860   808.78909     -5763.0637     -5602.5884      2214.7161      42657.433      98.051917    
     25870   816.16948     -5764.968      -5603.0283      2013.4066      42642.584      98.07767     
     25880   818.72631     -5765.9579     -5603.5109      1696.7686      42627.559      98.076326    
     25890   834.55025     -5769.679      -5604.0922      1344.0448      42612.118      98.04878     
     25900   821.98487     -5767.8607     -5604.7671      1516.1204      42596.083      97.999624    
     25910   805.20405     -5765.257      -5605.4929      1929.5594      42579.45       97.944586    
     25920   797.64232     -5764.4623     -5606.1986      2168.6415      42562.377      97.893962    
     25930   793.17664     -5764.2451     -5606.8675      2313.5799      42545.059      97.838185    
     25940   796.07605     -5765.4496     -5607.4967      2269.2184      42527.62       97.780907    
     25950   794.55136     -5765.7261     -5608.0757      2265.8945      42510.101      97.733457    
     25960   803.22085     -5768.0156     -5608.6451      2197.5977      42492.504      97.680291    
     25970   815.95694     -5771.1185     -5609.221       2286.472       42474.755      97.618268    
     25980   822.82965     -5773.103      -5609.8418      2457.7428      42456.991      97.569105    
     25990   825.49867     -5774.3192     -5610.5285      2468.2333      42439.61       97.545882    
     26000   804.12332     -5770.8032     -5611.2536      2716.2362      42422.842      97.544932    
     26010   788.06894     -5768.2976     -5611.9334      2852.0949      42406.834      97.554011    
     26020   799.91961     -5771.283      -5612.5675      2540.1898      42391.692      97.569254    
     26030   806.59971     -5773.2385     -5613.1976      2349.7784      42377.428      97.596398    
     26040   801.54126     -5772.8683     -5613.831       2442.031       42364.186      97.625152    
     26050   787.23962     -5770.6494     -5614.4498      2853.1769      42352.056      97.646077    
     26060   780.24274     -5769.8346     -5615.0233      3046.3017      42341.007      97.651275    
     26070   786.42087     -5771.5957     -5615.5585      2885.5465      42330.795      97.656507    
     26080   783.20979     -5771.4803     -5616.0803      2765.5185      42321.172      97.668005    
     26090   777.72104     -5770.8896     -5616.5787      2942.1888      42312.021      97.655387    
     26100   780.74393     -5771.9769     -5617.0661      2990.0052      42303.383      97.604176    
     26110   777.09327     -5771.725      -5617.5385      3312.0671      42295.307      97.528455    
     26120   782.56247     -5773.2876     -5618.016       3287.6035      42287.872      97.450804    
     26130   785.89913     -5774.4467     -5618.513       3305.7414      42280.893      97.375627    
     26140   781.79345     -5774.1621     -5619.0431      3518.0559      42274.322      97.303589    
     26150   780.55056     -5774.4543     -5619.5819      3686.2722      42268.342      97.250296    
     26160   784.14388     -5775.7445     -5620.1591      3624.0971      42263.165      97.243703    
     26170   770.27602     -5773.5688     -5620.7351      3666.9163      42258.871      97.286785    
     26180   783.79884     -5776.8486     -5621.3317      3329.4182      42255.453      97.343997    
     26190   784.52556     -5777.6111     -5621.95        3264.8316      42252.737      97.386216    
     26200   792.63726     -5779.8794     -5622.6088      3045.4113      42250.591      97.410041    
     26210   797.79287     -5781.6244     -5623.3309      2892.1643      42248.986      97.428125    
     26220   794.0407      -5781.6552     -5624.1061      2711.5201      42247.965      97.450278    
     26230   785.92263     -5780.8528     -5624.9145      2557.4348      42247.521      97.484508    
     26240   763.65107     -5777.2035     -5625.6842      2625.7556      42247.723      97.538283    
     26250   760.85593     -5777.3438     -5626.379       2323.4874      42248.66       97.605435    
     26260   768.24297     -5779.437      -5627.0066      1889.7898      42250.125      97.667963    
     26270   770.64956     -5780.5203     -5627.6124      1491.6197      42251.683      97.735102    
     26280   766.49722     -5780.2848     -5628.2008      1243.877       42252.873      97.814033    
     26290   776.72849     -5782.9116     -5628.7976      1010.073       42253.383      97.892363    
     26300   773.70565     -5782.9343     -5629.42        1313.5706      42253.165      97.958635    
     26310   756.56722     -5780.1621     -5630.0483      2039.8466      42252.437      98.019396    
     26320   744.48221     -5778.3589     -5630.643       2438.0708      42251.456      98.073506    
     26330   749.1303      -5779.8252     -5631.187       2347.2983      42250.396      98.114938    
     26340   757.67051     -5782.0573     -5631.7246      2023.7182      42249.286      98.136729    
     26350   740.35394     -5779.147      -5632.2501      2099.2006      42248.121      98.142458    
     26360   735.52304     -5778.6837     -5632.7454      2014.6333      42246.943      98.153394    
     26370   737.62033     -5779.552      -5633.1976      1950.7592      42245.718      98.195409    
     26380   737.2728      -5779.9087     -5633.6232      1984.9843      42244.493      98.29013     
     26390   748.26552     -5782.5033     -5634.0367      1987.0859      42243.297      98.416719    
     26400   760.60526     -5785.4088     -5634.4938      1966.3543      42242.085      98.538084    
     26410   763.90971     -5786.5909     -5635.0203      1985.1264      42240.836      98.632284    
     26420   760.23447     -5786.4631     -5635.6217      1958.6234      42239.521      98.690116    
     26430   754.04604     -5785.8926     -5636.279       1906.1819      42238.116      98.719788    
     26440   750.52594     -5785.886      -5636.9709      1856.0674      42236.584      98.738195    
     26450   728.15954     -5782.1268     -5637.6495      2074.579       42235.021      98.759975    
     26460   721.04754     -5781.3175     -5638.2513      2063.7195      42233.719      98.799172    
     26470   742.641       -5786.1599     -5638.8093      1707.2114      42232.83       98.874371    
     26480   743.23687     -5786.8345     -5639.3656      1839.4696      42232.233      98.973525    
     26490   732.17694     -5785.192      -5639.9176      2107.3505      42231.884      99.082635    
     26500   735.30572     -5786.3577     -5640.4625      2186.1452      42231.82       99.179611    
     26510   734.18165     -5786.6653     -5640.9931      2107.4898      42232.065      99.236095    
     26520   733.99351     -5787.156      -5641.5212      2043.369       42232.638      99.238353    
     26530   731.80242     -5787.2542     -5642.0541      2162.8313      42233.599      99.209439    
     26540   726.03026     -5786.6407     -5642.5859      2493.1645      42235.021      99.19048     
     26550   714.39651     -5784.8273     -5643.0808      2923.4026      42236.928      99.187544    
     26560   718.7795      -5786.161      -5643.5449      3109.7513      42239.34       99.182977    
     26570   732.22836     -5789.2808     -5643.9962      2777.4648      42242.23       99.16251     
     26580   746.14036     -5792.5386     -5644.4936      2399.9703      42245.361      99.128756    
     26590   747.92626     -5793.4548     -5645.0556      2269.4467      42248.438      99.082443    
     26600   754.47001     -5795.4093     -5645.7116      2007.1789      42251.243      99.037276    
     26610   743.30588     -5793.928      -5646.4454      1980.1999      42253.612      99.002076    
     26620   723.95419     -5790.8302     -5647.1873      2009.6209      42255.6        98.967502    
     26630   727.99195     -5792.3357     -5647.8917      1658.6724      42257.238      98.946909    
     26640   737.22975     -5794.8647     -5648.5878      1359.065       42258.266      98.947494    
     26650   725.98452     -5793.3325     -5649.2868      1555.9567      42258.421      98.968171    
     26660   710.09124     -5790.8225     -5649.9302      1820.27        42257.766      98.99498     
     26670   717.19316     -5792.8253     -5650.5239      1606.9448      42256.48       98.996541    
     26680   717.0214      -5793.36       -5651.0927      1307.4814      42254.52       98.959219    
     26690   704.76482     -5791.4626     -5651.6272      1259.0489      42251.849      98.899673    
     26700   704.33526     -5791.8849     -5652.1347      1132.5335      42248.541      98.839224    
     26710   703.54404     -5792.2042     -5652.611       1181.8113      42244.717      98.797479    
     26720   696.79817     -5791.3209     -5653.0662      1527.315       42240.598      98.777865    
     26730   687.67296     -5789.933      -5653.4888      1966.6361      42236.445      98.777067    
     26740   676.87107     -5788.1499     -5653.849       2147.5609      42232.452      98.787923    
     26750   696.96129     -5792.4551     -5654.168       1789.3271      42228.655      98.79854     
     26760   710.72554     -5795.5188     -5654.5007      1346.9296      42224.796      98.789079    
     26770   705.37879     -5794.8446     -5654.8874      1128.3723      42220.547      98.751089    
     26780   693.82909     -5792.97       -5655.3043      1003.022       42215.815      98.707187    
     26790   684.07796     -5791.4564     -5655.7256      1009.7206      42210.594      98.677646    
     26800   677.70857     -5790.5856     -5656.1185      1169.7736      42204.978      98.666353    
     26810   676.60896     -5790.7306     -5656.4817      1399.4065      42199.12       98.665951    
     26820   676.73465     -5791.0895     -5656.8156      1564.1668      42193.099      98.667189    
     26830   683.74171     -5792.7971     -5657.133       1647.0336      42186.937      98.67292     
     26840   683.30812     -5793.0249     -5657.4468      1685.3146      42180.584      98.69558     
     26850   687.22864     -5794.1261     -5657.7701      1580.1716      42173.983      98.743963    
     26860   692.23509     -5795.469      -5658.1196      1351.092       42167.097      98.801111    
     26870   693.69043     -5796.1509     -5658.5128      1190.1515      42159.844      98.831563    
     26880   693.51454     -5796.5552     -5658.952       1161.7727      42152.209      98.813764    
     26890   690.40777     -5796.4292     -5659.4424      1193.2655      42144.252      98.76837     
     26900   676.47569     -5794.1693     -5659.9468      1501.3853      42136.027      98.718647    
     26910   678.49735     -5795.0632     -5660.4396      1638.9644      42127.71       98.663414    
     26920   687.44109     -5797.3301     -5660.9319      1706.2712      42119.492      98.606669    
     26930   695.05065     -5799.3578     -5661.4498      1721.1029      42111.461      98.564505    
     26940   701.05443     -5801.1204     -5662.0211      1526.3773      42103.581      98.553173    
     26950   685.58122     -5798.6517     -5662.6226      1560.7453      42095.866      98.578149    
     26960   679.67058     -5798.0596     -5663.2032      1426.9625      42088.528      98.643322    
     26970   682.4298      -5799.1677     -5663.7639      1312.4482      42081.643      98.736751    
     26980   676.88643     -5798.5939     -5664.2899      1469.1347      42075.192      98.830496    
     26990   682.0166      -5800.118      -5664.7962      1448.0522      42069.122      98.89642     
     27000   676.49834     -5799.512      -5665.285       1425.8083      42063.233      98.937331    
     27010   668.22545     -5798.3357     -5665.7502      1456.0795      42057.31       98.984337    
     27020   663.07309     -5797.7424     -5666.1792      1364.7764      42051.134      99.036066    
     27030   656.01545     -5796.7306     -5666.5677      1209.6176      42044.363      99.069187    
     27040   646.65103     -5795.2112     -5666.9064      1195.6155      42036.724      99.076175    
     27050   648.91305     -5795.9451     -5667.1914      1092.3596      42028.276      99.0655      
     27060   657.64112     -5797.9321     -5667.4467      963.5934       42019.153      99.048413    
     27070   658.07912     -5798.2632     -5667.6909      1115.3289      42009.447      99.036905    
     27080   659.21414     -5798.736      -5667.9384      1274.9622      41999.354      99.041319    
     27090   664.30624     -5800.017      -5668.2091      1465.8518      41989.022      99.058631    
     27100   659.61809     -5799.3779     -5668.5003      1792.9775      41978.579      99.07417     
     27110   671.51648     -5802.071      -5668.8326      1752.7144      41968.197      99.066248    
     27120   681.6173      -5804.4792     -5669.2366      1713.4556      41957.961      99.032338    
     27130   673.98108     -5803.4546     -5669.7271      1871.756       41947.994      98.976985    
     27140   664.65964     -5802.1582     -5670.2802      1983.4915      41938.476      98.91254     
     27150   661.71787     -5802.1469     -5670.8525      1846.3614      41929.554      98.862872    
     27160   661.55555     -5802.7042     -5671.4421      1699.0916      41921.158      98.837931    
     27170   653.33421     -5801.6506     -5672.0198      1690.3013      41913.159      98.824486    
     27180   648.79982     -5801.2998     -5672.5686      1768.1607      41905.501      98.804744    
     27190   648.30587     -5801.7045     -5673.0713      1804.8325      41898.229      98.78462     
     27200   651.23355     -5802.7595     -5673.5455      1706.216       41891.327      98.774766    
     27210   650.66778     -5803.0979     -5673.9961      1586.1175      41884.693      98.770074    
     27220   651.30548     -5803.6633     -5674.435       1556.482       41878.215      98.765573    
     27230   650.00328     -5803.8398     -5674.8699      1535.1784      41871.762      98.759667    
     27240   653.29657     -5804.9337     -5675.3103      1397.847       41865.257      98.766463    
     27250   652.94971     -5805.3201     -5675.7655      1272.213       41858.639      98.78797     
     27260   648.83466     -5804.9751     -5676.237       1415.5379      41851.894      98.819655    
     27270   641.32994     -5803.9556     -5676.7065      1724.8157      41845.107      98.870299    
     27280   641.55898     -5804.4639     -5677.1694      1859.9096      41838.387      98.9432      
     27290   638.32039     -5804.2749     -5677.623       2119.4851      41831.764      99.023644    
     27300   639.81594     -5805.019      -5678.0704      2307.3323      41825.265      99.098345    
     27310   644.56428     -5806.4136     -5678.5228      2274.0663      41818.933      99.151496    
     27320   640.67398     -5806.1093     -5678.9904      2089.5157      41812.799      99.17569     
     27330   634.04326     -5805.2659     -5679.4626      1782.4845      41806.941      99.172644    
     27340   632.67737     -5805.4585     -5679.9262      1475.4205      41801.376      99.145209    
     27350   638.18039     -5807.0171     -5680.393       1281.8339      41795.925      99.117733    
     27360   642.40114     -5808.3384     -5680.8768      1148.8233      41790.404      99.10232     
     27370   642.50165     -5808.8719     -5681.3904      1166.3372      41784.796      99.087629    
     27380   640.18337     -5808.9543     -5681.9328      1370.594       41779.186      99.072076    
     27390   636.92355     -5808.8569     -5682.4822      1569.5483      41773.657      99.068813    
     27400   634.84899     -5809.0031     -5683.0399      1597.9882      41768.279      99.081349    
     27410   629.13294     -5808.4193     -5683.5903      1485.2544      41763.034      99.085743    
     27420   620.47312     -5807.2302     -5684.1195      1355.0986      41757.825      99.050316    
     27430   615.66971     -5806.7618     -5684.6042      1254.3973      41752.679      98.979695    
     27440   621.44777     -5808.3589     -5685.0547      1182.3         41747.686      98.914195    
     27450   619.73666     -5808.4629     -5685.4983      1188.6216      41742.947      98.883757    
     27460   607.80222     -5806.5154     -5685.9187      1281.6385      41738.454      98.886347    
     27470   606.98763     -5806.7457     -5686.3107      1257.7208      41734.176      98.897434    
     27480   605.07936     -5806.7281     -5686.6717      1224.3839      41730.079      98.891695    
     27490   602.93125     -5806.6436     -5687.0134      1388.0092      41726.145      98.860776    
     27500   603.73196     -5807.1237     -5687.3346      1566.4191      41722.383      98.811058    
     27510   609.92348     -5808.6705     -5687.653       1686.1752      41718.715      98.762849    
     27520   617.13095     -5810.4397     -5687.9921      1858.9301      41715.124      98.738936    
     27530   623.21807     -5812.028      -5688.3726      2020.909       41711.745      98.726496    
     27540   626.77279     -5813.1797     -5688.819       2111.4701      41708.784      98.708853    
     27550   632.99806     -5814.9412     -5689.3453      2079.3407      41706.324      98.681582    
     27560   634.32207     -5815.8116     -5689.9531      2098.1899      41704.299      98.635406    
     27570   627.48977     -5815.132      -5690.629       2168.1436      41702.656      98.580357    
     27580   618.19855     -5813.9681     -5691.3087      2059.4935      41701.286      98.54474     
     27590   621.89846     -5815.3729     -5691.9794      1620.1666      41699.93       98.535429    
     27600   620.19055     -5815.6908     -5692.6361      1364.9168      41698.26       98.538935    
[...]
     48200   306.41473     -5907.8492     -5847.0522      96.874071      40477.393      103.30186    
     48210   301.07362     -5906.7795     -5847.0422      406.04002      40464.965      103.3229     
     48220   300.11561     -5906.5869     -5847.0397      629.2333       40455.567      103.33259    
     48230   301.4855      -5906.8572     -5847.0381      730.974        40450.91       103.33205    
     48240   300.59553     -5906.6825     -5847.04        876.0261       40451.962      103.32784    
     48250   303.45118     -5907.2611     -5847.052       842.34678      40459.641      103.33386    
     48260   306.66836     -5907.9294     -5847.082       744.49535      40473.844      103.36435    
     48270   307.20754     -5908.0986     -5847.1443      587.79115      40493.871      103.4272     
     48280   308.35434     -5908.4308     -5847.2489      331.09392      40518.527      103.52112    
     48290   310.62502     -5909.0365     -5847.404       22.729129      40545.918      103.63398    
     48300   307.01284     -5908.5315     -5847.6158     -207.83842      40573.744      103.74777    
     48310   299.16443     -5907.2351     -5847.8766     -272.40893      40600.271      103.84761    
     48320   293.96158     -5906.4844     -5848.1582     -316.53688      40624.884      103.92339    
     48330   293.1192      -5906.5957     -5848.4367     -422.07364      40647.168      103.97101    
     48340   293.93829     -5907.0297     -5848.7081     -470.83706      40666.368      103.99478    
     48350   292.54928     -5907.0139     -5848.9679     -511.15624      40682.006      104.00376    
     48360   290.78183     -5906.9022     -5849.2069     -586.47811      40693.73       104.00679    
     48370   290.05296     -5906.9678     -5849.4171     -704.19589      40700.892      104.00752    
     48380   286.42167     -5906.4192     -5849.589      -757.53323      40702.595      104.00506    
     48390   282.27717     -5905.7234     -5849.7156     -751.29994      40698.391      103.99852    
     48400   283.62657     -5906.0599     -5849.7844     -837.6872       40688.138      103.98484    
     48410   288.98496     -5907.1388     -5849.8        -886.67226      40671.274      103.95847    
     48420   292.03481     -5907.7181     -5849.7743     -802.62178      40647.409      103.9167     
     48430   292.78893     -5907.8086     -5849.7151     -585.93982      40617.162      103.85602    
     48440   293.25674     -5907.8046     -5849.6182     -323.42944      40582.092      103.7748     
     48450   294.77004     -5907.9653     -5849.4787     -100.11605      40544.194      103.67425    
     48460   300.16922     -5908.8578     -5849.2999      42.210668      40505.19       103.55729    
     48470   304.59637     -5909.5345     -5849.0983      190.95344      40466.261      103.43124    
     48480   304.12684     -5909.2306     -5848.8875      423.8613       40428.655      103.30554    
     48490   301.4266      -5908.4788     -5848.6714      623.52004      40394.009      103.18926    
     48500   301.32751     -5908.2349     -5848.4472      730.32947      40363.883      103.08977    
     48510   304.32572     -5908.5959     -5848.2134      727.01975      40339.167      103.01158    
     48520   305.62969     -5908.6172     -5847.9759      718.9721       40319.932      102.95475    
     48530   305.23666     -5908.3055     -5847.7422      755.33692      40306.188      102.91685    
     48540   302.81489     -5907.5896     -5847.5068      819.56623      40298.202      102.89851    
     48550   297.79416     -5906.35       -5847.2633      956.76932      40296.526      102.90303    
     48560   296.19796     -5905.7615     -5846.9916      907.05898      40302.017      102.93438    
     48570   301.30225     -5906.4668     -5846.6841      692.19527      40314.36       102.99044    
     48580   309.59509     -5907.7844     -5846.3563      396.11361      40332.041      103.06235    
     48590   310.162       -5907.5823     -5846.0417      253.37751      40353.015      103.14049    
     48600   309.49314     -5907.1681     -5845.7602      237.27012      40376.169      103.2191     
     48610   313.79031     -5907.7764     -5845.5159      33.291775      40401.056      103.29409    
     48620   314.10608     -5907.639      -5845.3159     -96.165026      40426.377      103.35866    
     48630   308.289       -5906.3342     -5845.1653     -164.90746      40451.089      103.41023    
     48640   302.43252     -5905.0532     -5845.0463     -191.16953      40474.629      103.45294    
     48650   299.14955     -5904.2919     -5844.9363     -101.83339      40496.841      103.49484    
     48660   299.42285     -5904.2307     -5844.8209     -4.7434499      40518.313      103.54536    
     48670   300.27693     -5904.2761     -5844.6969      49.095574      40539.776      103.60835    
     48680   301.1127      -5904.312      -5844.5669      103.89268      40561.737      103.67995    
     48690   304.34521     -5904.8163     -5844.4298      151.61559      40584.582      103.74911    
     48700   307.09987     -5905.2264     -5844.2934      191.4375       40608.639      103.80495    
     48710   310.89508     -5905.8585     -5844.1725      147.24369      40634.144      103.84633    
     48720   309.28859     -5905.444      -5844.0767      65.415344      40660.804      103.88095    
     48730   304.73323     -5904.468      -5844.0046     -10.607483      40688.061      103.91689    
     48740   302.90933     -5904.0406     -5843.9391     -165.19076      40715.223      103.95455    
     48750   304.46352     -5904.2812     -5843.8713     -307.78637      40741.165      103.99114    
     48760   306.74432     -5904.6636     -5843.8011     -448.10457      40764.709      104.02863    
     48770   306.31119     -5904.5138     -5843.7373     -501.41114      40784.804      104.07527    
     48780   307.28127     -5904.657      -5843.688      -564.45898      40800.945      104.13595    
     48790   308.42162     -5904.8511     -5843.6558     -636.85103      40812.664      104.20132    
     48800   308.89095     -5904.9419     -5843.6535     -675.84728      40819.436      104.24935    
     48810   309.99589     -5905.2019     -5843.6943     -628.43687      40820.958      104.26065    
     48820   308.1852      -5904.9316     -5843.7833     -491.38677      40817.609      104.23472    
     48830   306.85341     -5904.802      -5843.9179     -381.28423      40810.402      104.18379    
     48840   309.68239     -5905.5491     -5844.1037     -330.38386      40800.198      104.11938    
     48850   311.13264     -5906.0779     -5844.3447     -243.97448      40787.466      104.0495     
     48860   308.72022     -5905.8926     -5844.6381     -161.32288      40772.823      103.9814     
     48870   307.66875     -5906.0175     -5844.9716     -140.15392      40756.927      103.92247    
     48880   307.26106     -5906.298      -5845.333      -225.70304      40739.955      103.8771     
     48890   307.96722     -5906.8242     -5845.7191     -364.68709      40721.253      103.84656    
     48900   306.13041     -5906.8583     -5846.1176     -406.36951      40699.833      103.82649    
     48910   302.74548     -5906.577      -5846.508      -278.67116      40675.472      103.81278    
     48920   295.74178     -5905.5454     -5846.866      -69.5112        40649.136      103.80283    
     48930   290.45111     -5904.7958     -5847.1661      130.17917      40622.455      103.79378    
     48940   292.34775     -5905.4081     -5847.4021      214.8023       40596.929      103.78383    
     48950   298.05241     -5906.729      -5847.5911      259.85162      40573.257      103.76815    
     48960   297.94847     -5906.866      -5847.7487      372.49699      40551.814      103.74188    
     48970   291.03629     -5905.6238     -5847.878       644.70337      40533.535      103.70168    
     48980   286.42361     -5904.7903     -5847.9597      850.07847      40520.334      103.64849    
     48990   290.82201     -5905.6978     -5847.9945      777.2045       40513.603      103.58718    
     49000   299.06861     -5907.3413     -5848.0018      527.17905      40512.781      103.52202    
     49010   300.08328     -5907.5457     -5848.0048      402.6764       40516.107      103.4618     
     49020   296.20224     -5906.7792     -5848.0084      419.34815      40522.55       103.42067    
     49030   295.01837     -5906.5411     -5848.0053      521.63435      40532.194      103.40971    
     49040   298.13542     -5907.1384     -5847.9841      590.13902      40545.727      103.43625    
     49050   298.85447     -5907.2538     -5847.9568      561.67755      40563.54       103.49932    
     49060   296.5471      -5906.7612     -5847.922       489.24256      40585.434      103.58906    
     49070   299.90314     -5907.3761     -5847.871       232.40675      40610.679      103.69528    
     49080   305.45009     -5908.415      -5847.8094     -83.969028      40637.317      103.81091    
     49090   305.22573     -5908.3184     -5847.7572     -246.38958      40663.047      103.9293     
     49100   301.41422     -5907.5273     -5847.7224     -338.67088      40686.56       104.03633    
     49110   294.72716     -5906.1702     -5847.6921     -313.36122      40707.216      104.11651    
     49120   290.09384     -5905.2056     -5847.6468     -231.20699      40725.196      104.16632    
     49130   293.61191     -5905.8212     -5847.5644     -257.78604      40741.075      104.19697    
     49140   300.84669     -5907.1428     -5847.4505     -337.61728      40754.723      104.22321    
     49150   306.4673      -5908.1411     -5847.3336     -421.49262      40765.549      104.25047    
     49160   307.30901     -5908.203      -5847.2285     -490.66825      40772.919      104.27504    
     49170   305.69148     -5907.8024     -5847.1488     -483.34604      40776.401      104.29409    
     49180   304.13139     -5907.4321     -5847.0881     -410.94922      40776.072      104.30671    
     49190   305.72592     -5907.7031     -5847.0427     -274.60284      40772.582      104.31168    
     49200   309.33507     -5908.3942     -5847.0177     -217.14732      40766.933      104.31102    
     49210   305.50023     -5907.6394     -5847.0238     -1.4073039      40759.854      104.31264    
     49220   299.56303     -5906.488      -5847.0504      186.91395      40752.86       104.32344    
     49230   302.22323     -5907.0469     -5847.0815      168.24068      40747.312      104.34382    
     49240   308.04563     -5908.2473     -5847.1267      29.256321      40743.109      104.37605    
     49250   306.9624      -5908.1111     -5847.2053     -59.635787      40739.23       104.42017    
     49260   299.16282     -5906.6777     -5847.3195     -26.459856      40735.053      104.47025    
     49270   294.8549      -5905.9482     -5847.4448     -53.699313      40730.691      104.51476    
     49280   299.38003     -5906.9747     -5847.5734     -220.08881      40725.908      104.54117    
     49290   305.06258     -5908.2448     -5847.716      -383.06663      40719.514      104.54393    
     49300   305.4935      -5908.511      -5847.8967     -409.46924      40710.379      104.52611    
     49310   301.76394     -5907.9913     -5848.117      -359.04225      40698.303      104.49689    
     49320   297.53567     -5907.3948     -5848.3594     -273.18891      40683.728      104.46786    
     49330   295.96236     -5907.3336     -5848.6104     -289.67758      40667.259      104.4476     
     49340   292.75224     -5906.944      -5848.8577     -239.58782      40648.969      104.43684    
     49350   285.10809     -5905.6461     -5849.0766     -113.65499      40629.249      104.43419    
     49360   282.99533     -5905.3945     -5849.2442     -26.553216      40609.045      104.43758    
     49370   288.04017     -5906.5089     -5849.3576     -10.494384      40589.039      104.43967    
     49380   292.69814     -5907.5065     -5849.431       20.485019      40569.391      104.43097    
     49390   297.04662     -5908.418      -5849.4797      101.19831      40550.359      104.4113     
     49400   300.76174     -5909.1973     -5849.5218      202.75307      40532.517      104.38916    
     49410   300.72162     -5909.2339     -5849.5664      338.87074      40516.632      104.36952    
     49420   300.12147     -5909.168      -5849.6196      425.31741      40503.669      104.35031    
     49430   302.05283     -5909.6104     -5849.6787      435.64724      40494.212      104.33192    
     49440   304.72599     -5910.2168     -5849.7548      456.63025      40488.305      104.32126    
     49450   305.25485     -5910.4244     -5849.8575      445.78307      40485.985      104.32547    
     49460   301.36886     -5909.7905     -5849.9946      463.8708       40487.133      104.34935    
     49470   295.98882     -5908.8812     -5850.1528      496.88361      40491.812      104.39573    
     49480   293.24644     -5908.4982     -5850.3139      451.03215      40500.138      104.45839    
     49490   291.18695     -5908.2422     -5850.4665      323.61209      40511.676      104.5279     
     49500   290.12966     -5908.1635     -5850.5976      159.73428      40525.424      104.59869    
     49510   291.76305     -5908.5974     -5850.7074     -92.139634      40539.991      104.6652     
     49520   291.30788     -5908.5912     -5850.7915     -243.07194      40553.637      104.71972    
     49530   289.56037     -5908.303      -5850.8501     -382.8307       40565.166      104.75655    
     49540   289.01289     -5908.2191     -5850.8748     -497.11734      40573.553      104.77573    
     49550   290.34471     -5908.4648     -5850.8563     -550.12291      40577.975      104.78417    
     49560   295.3924      -5909.4086     -5850.7985     -600.54131      40578.084      104.78886    
     49570   298.08148     -5909.8557     -5850.7121     -616.63066      40573.623      104.78913    
     49580   296.21211     -5909.3763     -5850.6036     -429.14204      40564.692      104.78066    
     49590   296.23514     -5909.2423     -5850.465      -237.54616      40552.61       104.76139    
     49600   297.82259     -5909.384      -5850.2918     -2.6936602      40538.975      104.73506    
     49610   298.14656     -5909.2375     -5850.081       198.21475      40525.551      104.71148    
     49620   296.06068     -5908.5813     -5849.8386      364.10366      40513.874      104.70287    
     49630   293.27014     -5907.7482     -5849.5592      429.14329      40505.098      104.71664    
     49640   291.1909      -5907.0132     -5849.2367      453.10781      40499.727      104.75131    
     49650   292.92998     -5906.9934     -5848.8719      452.64774      40497.897      104.79678    
     49660   296.05409     -5907.2219     -5848.4806      443.92223      40499.545      104.83827    
     49670   299.38063     -5907.4896     -5848.0882      466.76924      40504.589      104.86301    
     49680   303.95799     -5908.032      -5847.7224      416.17237      40513.047      104.86577    
     49690   306.84483     -5908.2869     -5847.4045      370.27401      40524.54       104.84902    
     49700   309.2238      -5908.5055     -5847.1511      299.00277      40538.631      104.82599    
     49710   308.97001     -5908.2671     -5846.963       208.94866      40554.768      104.81404    
     49720   304.62806     -5907.271      -5846.8284      169.52544      40572.309      104.82412    
     49730   300.81682     -5906.4141     -5846.7277      151.91905      40590.916      104.85736    
     49740   303.88528     -5906.9396     -5846.6444      78.282649      40610.321      104.9081     
     49750   307.89147     -5907.668      -5846.5779      56.526742      40630.072      104.96655    
     49760   310.1528      -5908.0873     -5846.5485      45.204975      40649.975      105.02242    
     49770   305.71012     -5907.2109     -5846.5537      31.186218      40669.887      105.0685     
     49780   298.11391     -5905.7292     -5846.5792      82.344042      40689.733      105.09923    
     49790   297.9784      -5905.7249     -5846.6017      16.049482      40709.761      105.11435    
     49800   301.49258     -5906.4368     -5846.6163     -96.283056      40729.557      105.12093    
     49810   303.2923      -5906.8114     -5846.6339     -281.9715       40748.246      105.1304     
     49820   299.45393     -5906.0801     -5846.6641     -402.9463       40764.538      105.15073    
     49830   293.43705     -5904.9082     -5846.6861     -495.01765      40777.45       105.18134    
     49840   290.02792     -5904.2307     -5846.685      -604.41388      40786.284      105.21424    
     49850   287.3888      -5903.6649     -5846.6429     -666.26756      40790.326      105.23763    
     49860   288.90194     -5903.877      -5846.5547     -721.01324      40789.185      105.24188    
     49870   291.88965     -5904.3325     -5846.4174     -730.14611      40782.507      105.22459    
     49880   292.11766     -5904.2043     -5846.244      -651.36145      40770.284      105.18683    
     49890   291.04015     -5903.7784     -5846.0319     -452.75156      40753.292      105.13325    
     49900   292.40342     -5903.7894     -5845.7724     -195.08371      40733.1        105.06988    
     49910   298.0009      -5904.594      -5845.4663      77.254941      40711.737      104.99902    
     49920   305.79182     -5905.8124     -5845.1389      263.20146      40691.27       104.9251     
     49930   307.70398     -5905.8765     -5844.8236      393.16667      40673.124      104.85681    
     49940   303.6086      -5904.7874     -5844.5471      460.27066      40658.24       104.80244    
     49950   301.69379     -5904.1626     -5844.3022      403.75502      40647.024      104.76826    
     49960   306.3353      -5904.8646     -5844.0833      219.43006      40638.95       104.75813    
     49970   311.86138     -5905.7791     -5843.9013      104.54642      40632.705      104.76944    
     49980   313.93095     -5906.0662     -5843.7778      64.614435      40627.383      104.79723    
     49990   314.69035     -5906.1555     -5843.7164      59.288491      40622.671      104.83664    
     50000   317.55538     -5906.7264     -5843.7189      37.559236      40618.482      104.88005    
Loop time of 8937.3 on 1 procs for 20000 steps with 1536 atoms

Performance: 0.193 ns/day, 124.129 hours/ns, 2.238 timesteps/s, 3.437 katom-step/s
120.3% CPU use with 1 MPI tasks x 1 OpenMP threads

MPI task timing breakdown:
Section |  min time  |  avg time  |  max time  |%varavg| %total
---------------------------------------------------------------
Pair    | 8863.5     | 8863.5     | 8863.5     |   0.0 | 99.17
Bond    | 0.020271   | 0.020271   | 0.020271   |   0.0 |  0.00
Neigh   | 6.2734     | 6.2734     | 6.2734     |   0.0 |  0.07
Comm    | 0.76246    | 0.76246    | 0.76246    |   0.0 |  0.01
Output  | 64.942     | 64.942     | 64.942     |   0.0 |  0.73
Modify  | 1.5738     | 1.5738     | 1.5738     |   0.0 |  0.02
Other   |            | 0.1925     |            |       |  0.00

Nlocal:           1536 ave        1536 max        1536 min
Histogram: 1 0 0 0 0 0 0 0 0 0
Nghost:           2732 ave        2732 max        2732 min
Histogram: 1 0 0 0 0 0 0 0 0 0
Neighs:              0 ave           0 max           0 min
Histogram: 1 0 0 0 0 0 0 0 0 0
FullNghs:        59172 ave       59172 max       59172 min
Histogram: 1 0 0 0 0 0 0 0 0 0

Total # of neighbors = 59172
Ave neighs/atom = 38.523438
Ave special neighs/atom = 0
Neighbor list builds = 2000
Dangerous builds = 2000
unfix           3

write_data      structure.end.data
System init for write_data ...
write_restart   structure.end
System init for write_restart ...
                    
Total wall time: 3:46:47
