LAMMPS (29 Sep 2021 - Update 3)
OMP_NUM_THREADS environment is not set. Defaulting to 1 thread. (src/comm.cpp:98)
  using 1 OpenMP thread(s) per MPI task
units	metal
atom_style	full

read_data	mixed.data
Reading data file ...
  orthogonal box = (0.0000000 0.0000000 0.0000000) to (18.492711 18.368364 83.044081)
  2 by 1 by 8 MPI processor grid
  reading atoms ...
  864 atoms
Finding 1-2 1-3 1-4 neighbors ...
  special bond factors lj:    0        0        0       
  special bond factors coul:  0        0        0       
     0 = max # of 1-2 neighbors
     0 = max # of 1-3 neighbors
     0 = max # of 1-4 neighbors
     1 = max # of special neighbors
  special bonds CPU = 0.001 seconds
  read_data CPU = 0.008 seconds

pair_style	quip
pair_coeff	* * /ocean/projects/cts180021p/wuziqi/clease/mint-PD/PhaseDiagram-Clease/Liquid/GAP_potential/gap_LiKCl.xml "Potential xml_label=GAP_2021_9_27_0_1_17_37_618" 17 19 3

neighbor	0.3 bin
neigh_modify	delay 10

timestep	0.001
compute	msd all msd
thermo_style	custom step temp pe etotal press vol c_msd[4]
thermo	10
dump	1 all custom 10 xyz-mix.dump type id x y z
dump	2 all custom 10 force-mix.dump type id fx fy fz

fix     1 all nve
run     2000
Neighbor list info ...
  update every 1 steps, delay 10 steps, check yes
  max neighbors/atom: 2000, page size: 100000
  master list distance cutoff = 6.22
  ghost atom cutoff = 6.22
  binsize = 3.11, bins = 6 6 27
  1 neighbor lists, perpetual/occasional/extra = 1 0 0
  (1) pair quip, perpetual
      attributes: full, newton on
      pair build: full/bin
      stencil: full/bin/3d
      bin: standard
Per MPI rank memory allocation (min/avg/max) = 8.888 | 8.895 | 8.900 Mbytes
Step Temp PotEng TotEng Press Volume c_msd[4] 
       0            0   -7973.6696   -7973.6696   -2874.2394    28208.484            0 
      10    41.278351   -7978.2784   -7973.6737   -2959.4518    28208.484 0.00023887099 
      20    117.01377   -7986.7312   -7973.6782   -2971.9336    28208.484 0.0029537371 
      30    174.81925   -7993.1785   -7973.6771   -2824.2466    28208.484  0.010160551 
      40    218.44962    -7998.045   -7973.6766   -2720.6333    28208.484  0.020641735 
      50    256.00476   -8002.2349   -7973.6771   -2700.3711    28208.484  0.032489043 
      60    281.23595   -8005.0509   -7973.6786   -2720.3164    28208.484  0.045481137 
      70    279.84796   -8004.8936   -7973.6762   -2497.2427    28208.484  0.060875411 
      80    275.57271   -8004.4166   -7973.6761   -2346.6282    28208.484  0.078472831 
      90    275.14134   -8004.3684    -7973.676   -2375.5075    28208.484  0.097756432 
     100    277.97329   -8004.6843   -7973.6759   -2450.2098    28208.484   0.11838341 
     110    284.32121   -8005.3929   -7973.6764   -2585.3887    28208.484    0.1397563 
     120    288.42818   -8005.8514   -7973.6768   -2555.7238    28208.484   0.16133553 
     130    287.27066   -8005.7216   -7973.6761   -2379.8786    28208.484   0.18293983 
     140    286.58177   -8005.6454   -7973.6767   -2199.4073    28208.484   0.20440576 
     150    283.09159    -8005.256   -7973.6767   -2058.8623    28208.484   0.22545748 
     160    281.87093     -8005.12   -7973.6769   -2002.9487    28208.484   0.24504756 
     170    281.00839    -8005.024   -7973.6771   -2057.3307    28208.484   0.26222423 
     180    282.68046     -8005.21   -7973.6765   -2118.7926    28208.484   0.27648184 
     190    291.53832   -8006.1995   -7973.6779   -2237.0667    28208.484   0.28923786 
     200    293.64302   -8006.4325   -7973.6762   -2373.3356    28208.484   0.30372277 
     210    298.64228   -8006.9936   -7973.6796   -2435.1957    28208.484   0.32052492 
     220    292.65421   -8006.3221   -7973.6761   -2273.8456    28208.484   0.33666335 
     230    296.18967   -8006.7198   -7973.6794   -2277.4624    28208.484   0.34931106 
     240    282.07352   -8005.1401   -7973.6743   -2198.7147    28208.484   0.36070053 
     250    293.47873    -8006.417    -7973.679   -2346.9356    28208.484   0.37209929 
     260    294.86866   -8006.5718   -7973.6788   -2406.0825    28208.484   0.38456478 
     270    292.66954   -8006.3399   -7973.6921   -2371.6679    28208.484   0.39632792 
     280    288.22645   -8005.8424   -7973.6903   -2343.9303    28208.484   0.40740341 
     290    280.03766   -8004.9272   -7973.6886   -2399.6918    28208.484   0.41930862 
     300    280.42672   -8004.9707   -7973.6886   -2493.7264    28208.484   0.43203295 
     310    287.66524   -8005.7795     -7973.69   -2540.7382    28208.484   0.44617059 
     320    287.59248   -8005.7709   -7973.6895   -2479.6365    28208.484   0.46153129 
     330    287.30367   -8005.7384   -7973.6892   -2430.7941    28208.484   0.47558463 
     340      291.107   -8006.1632   -7973.6897   -2433.3574    28208.484   0.48761679 
     350    290.07985   -8006.0486   -7973.6898   -2407.8749    28208.484   0.49931209 
     360    283.46216   -8005.3096    -7973.689    -2324.857    28208.484   0.51138392 
     370    283.31611   -8005.2933    -7973.689   -2223.9029    28208.484   0.52363749 
     380    293.81781   -8006.4657   -7973.6899   -2201.7975    28208.484   0.53571675 
     390    300.79692   -8007.2454   -7973.6911   -2203.1603    28208.484   0.54763687 
     400    296.63974     -8006.78   -7973.6894   -2207.2978    28208.484   0.55946952 
     410     295.9675   -8006.7055   -7973.6899    -2389.454    28208.484   0.57119336 
     420    296.34311   -8006.7466   -7973.6891   -2528.2941    28208.484   0.58115249 
     430    302.08464   -8007.3879   -7973.6899   -2546.6384    28208.484   0.58802692 
     440    300.89773   -8007.2566    -7973.691   -2408.1467    28208.484   0.59313659 
     450    295.75798   -8006.6815   -7973.6893   -2201.4544    28208.484   0.59704421 
     460    298.71554   -8007.0127   -7973.6905   -2097.6901    28208.484   0.60034051 
     470    293.57038   -8006.4367   -7973.6885   -1853.8963    28208.484   0.60455383 
     480    299.68957   -8007.1205   -7973.6897   -1687.1392    28208.484   0.60898733 
     490    304.28303    -8007.634   -7973.6908   -1569.5251    28208.484   0.61372446 
     500    297.76534   -8006.9049   -7973.6887   -1520.9163    28208.484   0.61909997 
     510     298.0343    -8006.936   -7973.6898   -1578.3555    28208.484     0.624484 
     520    298.51386   -8006.9892   -7973.6895   -1617.2528    28208.484   0.63055005 
     530    299.67651    -8007.119   -7973.6896   -1583.6011    28208.484   0.63765456 
     540    301.93935   -8007.3714   -7973.6896    -1486.536    28208.484   0.64551302 
     550    304.04909   -8007.6074   -7973.6903   -1392.2763    28208.484    0.6536082 
     560    304.32541   -8007.6381   -7973.6901   -1287.1967    28208.484   0.66116979 
     570    303.65289   -8007.5627   -7973.6898   -1155.3607    28208.484   0.66831766 
     580    306.61685   -8007.8931   -7973.6895   -1197.3354    28208.484   0.67540713 
     590    314.13334   -8008.7329   -7973.6909   -1349.2051    28208.484   0.68183493 
     600    314.58012   -8008.7816   -7973.6897   -1383.1623    28208.484   0.68848067 
     610    313.36382   -8008.6461   -7973.6899   -1339.6031    28208.484   0.69624527 
     620     312.9428   -8008.5985   -7973.6893   -1300.0364    28208.484   0.70606469 
     630    317.72028    -8009.132   -7973.6899   -1341.7477    28208.484   0.71807814 
     640    322.57063   -8009.6733   -7973.6901   -1410.5145    28208.484   0.73069429 
     650    323.60168   -8009.7886   -7973.6903   -1540.2113    28208.484   0.74223138 
     660    318.39172   -8009.2068   -7973.6897   -1568.6259    28208.484   0.75263353 
     670    316.27474   -8008.9702   -7973.6892   -1586.0839    28208.484    0.7619451 
     680    320.95534   -8009.4935   -7973.6904   -1558.4885    28208.484   0.77150239 
     690    319.85933   -8009.3708     -7973.69    -1459.468    28208.484   0.78296875 
     700    315.81982   -8008.9199   -7973.6897   -1330.2989    28208.484   0.79605918 
     710    316.18394   -8008.9601   -7973.6893   -1285.6029    28208.484   0.80930055 
     720    321.99795   -8009.6098   -7973.6904   -1374.2337    28208.484   0.82124899 
     730    320.60154   -8009.4538   -7973.6902   -1440.5044    28208.484   0.83277534 
     740    316.58517   -8009.0043   -7973.6888   -1452.0725    28208.484    0.8439361 
     750    321.27163   -8009.5293    -7973.691   -1655.1798    28208.484     0.854338 
     760    314.38368   -8008.7598   -7973.6899   -1838.5562    28208.484   0.86584884 
     770     305.9368   -8007.8166   -7973.6889   -1999.9526    28208.484   0.87941766 
     780    305.71483   -8007.7927   -7973.6897   -2140.7584    28208.484   0.89394007 
     790    305.84031   -8007.8065   -7973.6896   -2209.2571    28208.484   0.90782838 
     800    306.48205   -8007.8784   -7973.6899   -2275.1918    28208.484   0.92026204 
     810    304.33355   -8007.6388   -7973.6899   -2343.4421    28208.484   0.93178116 
     820    297.82924   -8006.9125   -7973.6892   -2314.2529    28208.484    0.9431626 
     830    296.11711   -8006.7216   -7973.6893   -2340.1192    28208.484   0.95457823 
     840    299.50491   -8007.0998   -7973.6896   -2406.4366    28208.484   0.96506277 
     850    304.52466   -8007.6597   -7973.6895   -2460.7845    28208.484   0.97329313 
     860     310.8399   -8008.3649   -7973.6902   -2449.0401    28208.484   0.97916609 
     870    310.67413   -8008.3459   -7973.6897   -2327.6881    28208.484   0.98350092 
     880    309.42712   -8008.2065   -7973.6894   -2225.4629    28208.484   0.98651824 
     890    311.26126   -8008.4116   -7973.6899    -2248.854    28208.484   0.98981853 
     900    313.26109   -8008.6341   -7973.6893   -2271.1415    28208.484     0.995508 
     910    320.18937   -8009.4082   -7973.6906   -2399.0494    28208.484    1.0049166 
     920    319.06768   -8009.2826   -7973.6901    -2517.896    28208.484    1.0179539 
     930    311.48412   -8008.4358   -7973.6893   -2630.8665    28208.484    1.0322955 
     940    307.33364   -8007.9728   -7973.6893   -2692.4224    28208.484    1.0452919 
     950    306.79072   -8007.9125   -7973.6895   -2690.0291    28208.484    1.0559933 
     960    307.40028   -8007.9805   -7973.6895    -2685.778    28208.484    1.0648912 
     970    308.12458   -8008.0613   -7973.6895   -2650.3957    28208.484    1.0729687 
     980    308.40186   -8008.0924   -7973.6897   -2580.8757    28208.484    1.0808973 
     990    307.35297   -8007.9752   -7973.6895    -2481.356    28208.484    1.0887898 
    1000    307.21435     -8007.96   -7973.6898   -2353.6684    28208.484    1.0961224 
    1010    306.76152   -8007.9091   -7973.6894   -2248.7956    28208.484    1.1027335 
    1020    309.26646    -8008.189   -7973.6898   -2286.0041    28208.484    1.1099454 
    1030    310.25342   -8008.2989   -7973.6897   -2305.1256    28208.484    1.1183111 
    1040    307.62812   -8008.0062   -7973.6898    -2294.831    28208.484    1.1271276 
    1050    300.85261   -8007.2498   -7973.6892   -2274.7356    28208.484    1.1353455 
    1060    298.03491   -8006.9356   -7973.6894   -2274.0022    28208.484    1.1412949 
    1070     298.1827   -8006.9525   -7973.6898   -2240.2755    28208.484    1.1449307 
    1080    298.32389   -8006.9674   -7973.6889   -2186.0158    28208.484    1.1478628 
    1090    304.12167   -8007.6156   -7973.6903   -2224.5843    28208.484    1.1507358 
    1100    303.21342   -8007.5135   -7973.6896   -2273.1413    28208.484    1.1542182 
    1110    302.55349   -8007.4391   -7973.6888   -2350.8777    28208.484    1.1583885 
    1120    311.89752   -8008.4827   -7973.6901   -2437.4889    28208.484     1.162828 
    1130    317.78566     -8009.14   -7973.6905   -2446.8483    28208.484     1.167408 
    1140    311.56568   -8008.4454   -7973.6898   -2410.0182    28208.484    1.1717043 
    1150    303.07264   -8007.4971   -7973.6889   -2380.3816    28208.484    1.1751291 
    1160    303.70308   -8007.5677   -7973.6892    -2470.872    28208.484    1.1775178 
    1170    310.51899   -8008.3284   -7973.6895   -2617.7569    28208.484    1.1788381 
    1180    316.91994   -8009.0426   -7973.6898   -2682.3818    28208.484    1.1790698 
    1190    320.34041   -8009.4241   -7973.6896   -2666.8258    28208.484    1.1789053 
    1200    321.06279   -8009.5055   -7973.6905   -2603.0061    28208.484    1.1796194 
    1210    314.26027   -8008.7456   -7973.6894   -2485.4053    28208.484    1.1821764 
    1220    309.32884    -8008.196   -7973.6899    -2464.998    28208.484    1.1865082 
    1230    306.19371   -8007.8458   -7973.6895   -2530.8384    28208.484    1.1911967 
    1240    306.63151   -8007.8948   -7973.6896   -2616.4378    28208.484    1.1944331 
    1250    309.06475   -8008.1663   -7973.6897   -2607.8093    28208.484    1.1957913 
    1260    312.48643   -8008.5482   -7973.6898    -2462.899    28208.484    1.1957707 
    1270    312.94072   -8008.5995   -7973.6905   -2234.5909    28208.484    1.1949586 
    1280    309.44145   -8008.2076   -7973.6889   -2027.1289    28208.484    1.1941489 
    1290    314.87458   -8008.8149   -7973.6902   -1974.2087    28208.484    1.1943163 
    1300    319.36818   -8009.3159   -7973.6899   -1982.4404    28208.484     1.195877 
    1310    321.84143   -8009.5922   -7973.6903   -1943.5386    28208.484    1.1987306 
    1320    321.73486     -8009.58     -7973.69    -1845.706    28208.484    1.2036004 
    1330    320.53672   -8009.4466   -7973.6902   -1700.8294    28208.484    1.2106875 
    1340    314.45984   -8008.7682   -7973.6898   -1509.1942    28208.484    1.2186301 
    1350    308.88407   -8008.1459   -7973.6894   -1443.5528    28208.484    1.2257175 
    1360    308.85021   -8008.1421   -7973.6894   -1546.3935    28208.484    1.2310073 
    1370    314.64585   -8008.7893   -7973.6901   -1721.3694    28208.484     1.234708 
    1380    316.29012   -8008.9734   -7973.6908   -1817.9195    28208.484    1.2377498 
    1390    307.32275   -8007.9718   -7973.6895   -1803.5548    28208.484    1.2409119 
    1400    301.76471   -8007.3515   -7973.6892   -1859.1426    28208.484    1.2443267 
    1410    303.86241   -8007.5861   -7973.6897   -1936.9087    28208.484    1.2481193 
    1420    306.88628   -8007.9231   -7973.6894   -1917.1497    28208.484    1.2526965 
    1430    311.21927   -8008.4068   -7973.6898   -1887.7633    28208.484    1.2583105 
    1440    313.42496   -8008.6528   -7973.6898   -1851.4527    28208.484    1.2642026 
    1450     313.3569   -8008.6451   -7973.6897   -1798.7574    28208.484     1.269636 
    1460    313.21275   -8008.6295   -7973.6901   -1825.1156    28208.484    1.2754342 
    1470    309.64761   -8008.2313   -7973.6896   -1804.0626    28208.484    1.2823313 
    1480    309.40126   -8008.2029   -7973.6887   -1783.0935    28208.484    1.2890305 
    1490    320.42565   -8009.4341   -7973.6901   -1893.3186    28208.484    1.2938055 
    1500    328.10175   -8010.2905   -7973.6903   -1974.4184    28208.484    1.2976917 
    1510    327.81197   -8010.2577   -7973.6898    -1937.058    28208.484    1.3022885 
    1520     324.2243   -8009.8576   -7973.6899   -1828.5619    28208.484    1.3070588 
    1530    318.99753   -8009.2739   -7973.6893   -1744.3097    28208.484    1.3111416 
    1540    315.99968   -8008.9401   -7973.6899   -1679.5222    28208.484    1.3147163 
    1550    311.82694   -8008.4737   -7973.6889   -1676.3191    28208.484     1.318865 
    1560    315.99733   -8008.9396   -7973.6896   -1782.1266    28208.484    1.3245612 
    1570    321.70035   -8009.5765   -7973.6904   -1943.6277    28208.484    1.3315419 
    1580    318.91113   -8009.2648   -7973.6898   -1980.5418    28208.484     1.338424 
    1590    316.40503   -8008.9842   -7973.6888   -1871.1257    28208.484    1.3448929 
    1600    323.69059   -8009.7984   -7973.6903   -1863.2593    28208.484    1.3517889 
    1610    324.55521    -8009.895   -7973.6903   -1926.3043    28208.484    1.3589892 
    1620    317.22283   -8009.0757    -7973.689    -2033.451    28208.484    1.3640281 
    1630    315.56944   -8008.8917   -7973.6895   -2189.5743    28208.484    1.3650114 
    1640          316   -8008.9396   -7973.6894   -2246.5115    28208.484     1.363698 
    1650     317.3618   -8009.0917   -7973.6895   -2167.3771    28208.484    1.3628757 
    1660    317.92845   -8009.1553   -7973.6899   -2101.0814    28208.484    1.3639966 
    1670    314.61233   -8008.7852   -7973.6897   -2010.9785    28208.484    1.3669961 
    1680    312.18324   -8008.5133   -7973.6888   -2055.2147    28208.484     1.371293 
    1690    317.45918   -8009.1028   -7973.6897    -2191.224    28208.484    1.3761955 
    1700    321.08797   -8009.5076   -7973.6898   -2266.1824    28208.484    1.3813209 
    1710    322.36089   -8009.6492   -7973.6893   -2262.0514    28208.484    1.3861808 
    1720    325.18317   -8009.9643   -7973.6896   -2258.3202    28208.484    1.3904451 
    1730    326.15411   -8010.0728   -7973.6898    -2317.316    28208.484     1.394947 
    1740     323.8725   -8009.8181   -7973.6896   -2287.8062    28208.484    1.4007384 
    1750    320.41839   -8009.4325   -7973.6894   -2200.4994    28208.484    1.4075406 
    1760     319.2517   -8009.3028   -7973.6898   -2148.7833    28208.484     1.414045 
    1770    317.70647   -8009.1306     -7973.69    -2060.265    28208.484    1.4199919 
    1780    313.91842   -8008.7076   -7973.6895   -1900.1987    28208.484    1.4259827 
    1790    313.00692   -8008.6058   -7973.6894   -1752.6987    28208.484    1.4322179 
    1800     316.3606   -8008.9805     -7973.69   -1656.4741    28208.484    1.4376798 
    1810    317.06323    -8009.059   -7973.6901   -1611.9912    28208.484    1.4414287 
    1820    314.75826    -8008.801   -7973.6892    -1594.078    28208.484    1.4434919 
    1830    319.39788   -8009.3191   -7973.6898   -1580.2478    28208.484    1.4448335 
    1840    326.94741   -8010.1618   -7973.6903   -1586.0007    28208.484    1.4478206 
    1850     328.2751   -8010.3099   -7973.6903   -1510.9657    28208.484    1.4534245 
    1860    325.54844   -8010.0044    -7973.689   -1434.8489    28208.484    1.4597334 
    1870    330.22766   -8010.5276   -7973.6902   -1485.8246    28208.484    1.4649668 
    1880    331.47708   -8010.6665   -7973.6897   -1548.2944    28208.484    1.4702024 
    1890    330.21474   -8010.5256   -7973.6896   -1516.0861    28208.484    1.4764703 
    1900    331.58833   -8010.6782    -7973.689   -1442.8287    28208.484    1.4834549 
    1910    337.92691   -8011.3872    -7973.691   -1475.0881    28208.484    1.4904186 
    1920     332.3277   -8010.7614   -7973.6897   -1417.3686    28208.484    1.4973123 
    1930    326.40875   -8010.1005   -7973.6891    -1294.946    28208.484    1.5028962 
    1940    327.61985   -8010.2367   -7973.6902   -1344.4187    28208.484    1.5071937 
    1950    326.33555   -8010.0933   -7973.6901   -1454.2005    28208.484    1.5117741 
    1960    320.98412   -8009.4961   -7973.6898    -1539.947    28208.484    1.5179832 
    1970    316.38994    -8008.983   -7973.6892   -1494.5471    28208.484    1.5266599 
    1980    318.66568   -8009.2379   -7973.6903    -1430.619    28208.484     1.537506 
    1990    319.09324   -8009.2848   -7973.6895   -1383.3475    28208.484     1.548395 
    2000    324.20331   -8009.8559   -7973.6905   -1553.3118    28208.484     1.556546 
Loop time of 1560.82 on 16 procs for 2000 steps with 864 atoms

Performance: 0.111 ns/day, 216.780 hours/ns, 1.281 timesteps/s
97.9% CPU use with 16 MPI tasks x 1 OpenMP threads

MPI task timing breakdown:
Section |  min time  |  avg time  |  max time  |%varavg| %total
---------------------------------------------------------------
Pair    | 1177.4     | 1401.5     | 1540.5     | 299.1 | 89.79
Bond    | 0.00014162 | 0.00050411 | 0.0011179  |   0.0 |  0.00
Neigh   | 0.020253   | 0.024193   | 0.028315   |   1.7 |  0.00
Comm    | 20.051     | 155.17     | 382.29     | 888.1 |  9.94
Output  | 0.19475    | 4.0329     | 11.039     | 182.8 |  0.26
Modify  | 0.010106   | 0.011377   | 0.015235   |   1.2 |  0.00
Other   |            | 0.06612    |            |       |  0.00

Nlocal:        54.0000 ave          63 max          48 min
Histogram: 5 0 1 2 2 1 1 2 0 2
Nghost:        409.688 ave         449 max         386 min
Histogram: 3 3 1 3 2 1 1 0 0 2
Neighs:         0.00000 ave           0 max           0 min
Histogram: 16 0 0 0 0 0 0 0 0 0
FullNghs:      1604.62 ave        2106 max        1301 min
Histogram: 5 0 2 2 2 0 2 1 1 1

Total # of neighbors = 25674
Ave neighs/atom = 29.715278
Ave special neighs/atom = 0.0000000
Neighbor list builds = 199
Dangerous builds = 198
unfix   1

velocity    all create 1125.0 1312343 dist gaussian
fix     2 all npt temp 1125.0 1125.0 $(100.0*dt) aniso 0.0 1.01325 $(1000.0*dt)
fix     2 all npt temp 1125.0 1125.0 0.10000000000000000555 aniso 0.0 1.01325 $(1000.0*dt)
fix     2 all npt temp 1125.0 1125.0 0.10000000000000000555 aniso 0.0 1.01325 1
run     3000
Per MPI rank memory allocation (min/avg/max) = 8.893 | 8.897 | 8.900 Mbytes
Step Temp PotEng TotEng Press Volume c_msd[4] 
    2000         1125   -8009.8559   -7884.3604    1829.1823    28208.484     1.556546 
    2010    1043.7975   -8000.7739   -7884.3368    2272.6878    28210.193    1.5628746 
    2020    914.16799   -7986.1407   -7884.1639    2944.2324    28215.981    1.5772297 
    2030    821.36662   -7975.2951   -7883.6705    3472.2162    28226.999    1.5939554 
    2040    757.72882    -7967.295   -7882.7692    3792.4501    28244.187     1.613649 
    2050    724.93915   -7962.3625   -7881.4945     3741.405    28268.126    1.6383414 
    2060    719.92586   -7960.3411   -7880.0323    3285.2456    28298.745    1.6682477 
    2070    720.52947   -7959.0234   -7878.6473    2564.6729    28335.284    1.7019118 
    2080    733.95683   -7959.2628   -7877.3888     1627.029     28376.47    1.7371853 
    2090    726.88428   -7957.2139   -7876.1289    1104.6106     28420.75    1.7740497 
    2100    713.27481   -7954.3484   -7874.7815    921.02535    28467.151    1.8123588 
    2110    701.12401   -7951.5046   -7873.2931    1036.1542    28515.334    1.8497607 
    2120    706.27365   -7950.4646   -7871.6787    1149.6361     28565.44    1.8836183 
    2130    713.73577   -7949.5799   -7869.9616    1166.6361    28617.644    1.9140295 
    2140    720.17217   -7948.5292   -7868.1929    1041.4831    28671.957    1.9409514 
    2150    750.89347   -7950.1091   -7866.3458    556.19126    28728.059    1.9649413 
    2160     773.7852    -7950.717   -7864.4001     83.84364    28785.078    1.9896547 
    2170    788.54157   -7950.3579   -7862.3949   -221.40691     28842.12    2.0177481 
    2180    803.22203   -7949.9454   -7860.3448   -397.38862    28898.557    2.0494982 
    2190    806.30731   -7948.2019   -7858.2571   -544.78532    28953.986    2.0834861 
    2200    805.29882   -7945.9836   -7856.1513    -690.2426    29008.088    2.1167473 
    2210    813.52634   -7944.7586   -7854.0086   -848.64795    29060.527    2.1470642 
    2220    807.44408     -7941.91   -7851.8384   -725.77038    29111.022     2.174516 
    2230    801.76479   -7939.1093   -7849.6713   -586.88706    29159.729    2.1992842 
    2240    807.69586   -7937.5815   -7847.4818   -672.92876    29206.847    2.2222448 
    2250    818.83719    -7936.595   -7845.2525   -631.40217    29252.265    2.2457691 
    2260    828.10681   -7935.3771   -7843.0005   -516.46056    29296.053    2.2707854 
    2270    857.50546   -7936.3633   -7840.7073   -817.45352    29338.316    2.2971738 
    2280    880.40174   -7936.5707   -7838.3605   -1038.4563    29378.583    2.3279915 
    2290     879.7884   -7934.1619   -7836.0201   -1029.2244    29416.444    2.3652265 
    2300    886.04009   -7932.5446   -7833.7055   -806.33469    29451.925    2.4063891 
    2310    900.44578   -7931.8209   -7831.3748   -529.72003    29485.439    2.4488504 
    2320    903.55989   -7929.8404   -7829.0469   -177.27802    29517.552    2.4918293 
    2330    930.81303   -7930.5462   -7826.7126   -232.13016    29548.848    2.5332574 
    2340    950.31278    -7930.352   -7824.3432   -209.95785    29579.336    2.5717372 
    2350    964.38888   -7929.5786   -7821.9996   -201.48332     29609.03    2.6087289 
    2360    979.31181   -7928.9126   -7819.6689   -332.16722     29637.94     2.647436 
    2370    973.14727   -7925.9354   -7817.3793   -192.38634    29665.896    2.6897643 
    2380    964.48995   -7922.7304   -7815.1401    82.712507    29693.148    2.7360772 
    2390    975.87639   -7921.7661   -7812.9056   -14.191089    29720.153    2.7864689 
    2400     987.2838   -7920.7824   -7810.6494   -156.66761    29746.797    2.8409859 
    2410    999.78374   -7919.9293   -7808.4019   -231.33933    29772.806    2.8971406 
    2420    1004.5936   -7918.2334   -7806.1695    -68.17908    29798.088    2.9503675 
    2430    1020.0576   -7917.7532   -7803.9642   -17.807329    29822.892    2.9978092 
    2440    1050.7869   -7918.9746   -7801.7578    -167.1648    29847.312    3.0426032 
    2450    1055.2489   -7917.2998   -7799.5852    -156.8568    29871.125    3.0889756 
    2460    1051.0838    -7914.739    -7797.489   -123.51923    29894.324    3.1384569 
    2470     1038.365   -7911.2805   -7795.4493   -33.873114    29916.994    3.1921229 
    2480    1019.7769    -7907.207   -7793.4494     179.6206    29939.349    3.2481761 
    2490    1024.8506   -7905.7699   -7791.4463    190.69487    29961.748    3.3021699 
    2500    1037.6616   -7905.1602   -7789.4075    314.62731    29984.269    3.3527737 
    2510    1047.0038   -7904.1635   -7787.3686    480.89888    30007.152    3.4019335 
    2520    1063.9961   -7904.0272   -7785.3368     353.0967    30030.671    3.4521718 
    2530     1084.984   -7904.3574   -7783.3258    103.44397    30054.594    3.5029748 
    2540    1087.8644   -7902.7159    -7781.363    71.701622    30078.487      3.55277 
    2550    1089.2553   -7900.9842   -7779.4762    59.375341    30102.231    3.6014295 
    2560     1097.785   -7900.0981   -7777.6385   -88.940811    30125.779    3.6478529 
    2570      1125.93   -7901.4431    -7775.844     -347.455    30148.844    3.6893574 
    2580    1154.6068   -7902.9102   -7774.1121   -482.48885    30170.958    3.7271345 
    2590    1165.1888   -7902.4834   -7772.5048   -308.44642    30191.897     3.764076 
    2600    1177.6539   -7902.4203   -7771.0512   -260.25993    30211.928    3.8014573 
    2610    1171.7302   -7900.4671   -7769.7588   -200.23998    30231.203    3.8409578 
    2620     1141.074   -7895.9097   -7768.6212   -249.37391    30249.836    3.8822244 
    2630    1118.4028   -7892.3347   -7767.5752   -725.93287    30267.677    3.9238358 
    2640    1105.0863   -7889.8187   -7766.5447   -1224.4048    30283.848    3.9668755 
    2650    1100.3042     -7888.24   -7765.4994   -1413.2719      30297.4    4.0117746 
    2660    1099.6293   -7887.0896   -7764.4243   -1248.3851    30307.995    4.0570744 
    2670    1102.8678   -7886.3447   -7763.3181   -1062.4057    30315.933    4.0991799 
    2680    1128.1902   -7888.0374   -7762.1861   -1102.6592    30321.567    4.1356881 
    2690     1153.877   -7889.7724   -7761.0557   -975.88054    30324.941    4.1692642 
    2700    1168.2844    -7890.317   -7759.9931   -998.91195    30326.251    4.2034159 
    2710    1162.2313   -7888.6872   -7759.0385   -1012.1805    30325.526    4.2393484 
    2720    1147.3631   -7886.1812   -7758.1912   -752.75642    30322.822    4.2761253 
    2730    1142.2568   -7884.8367   -7757.4162   -321.52558     30318.66    4.3143874 
    2740     1149.668   -7884.9384   -7756.6912   -69.601188    30313.865    4.3522778 
    2750    1155.2807   -7884.8971   -7756.0238   -229.28855     30308.91     4.387792 
    2760    1152.2899   -7883.9615   -7755.4218   -145.34625    30303.608    4.4213424 
    2770    1174.6973   -7885.9211   -7754.8819   -155.06712    30298.048    4.4503781 
    2780    1209.0701   -7889.3175   -7754.4439   -201.31913    30292.225    4.4749917 
    2790    1218.4011   -7890.0988   -7754.1843    223.35868    30286.165    4.4991475 
    2800    1215.3883   -7889.7322   -7754.1538    462.17799    30280.583     4.525103 
    2810    1185.5587    -7886.576   -7754.3252    624.49835    30276.006    4.5521435 
    2820    1173.9824   -7885.6075    -7754.648    605.38762    30272.712    4.5794258 
    2830    1164.7141   -7885.0014   -7755.0758    555.16522    30270.699     4.608849 
    2840    1159.0395   -7884.8858   -7755.5932    593.81277     30269.88    4.6412101 
    2850    1158.5481   -7885.4231   -7756.1853    627.64813    30270.285    4.6749571 
    2860     1176.213   -7888.0778   -7756.8695    439.58959    30271.923     4.708847 
    2870     1185.929   -7889.9676   -7757.6754    222.16293    30274.454    4.7439716 
    2880    1185.2354   -7890.8387   -7758.6239    54.015226    30277.429      4.78174 
    2890    1174.9647   -7890.7724   -7759.7033    59.950317    30280.519    4.8254099 
    2900    1135.5585   -7887.5103   -7760.8371     347.2306    30283.796    4.8747256 
    2910    1130.5579   -7888.0817   -7761.9663    143.48764    30287.654    4.9234554 
    2920    1130.0948   -7889.1497   -7763.0859   -136.52827    30291.768    4.9704216 
    2930    1104.6981   -7887.3928   -7764.1621   -177.86116    30295.639    5.0138962 
    2940    1105.5832   -7888.4969   -7765.1675   -560.37858    30299.052    5.0530126 
    2950    1112.9514   -7890.2637   -7766.1123   -902.53894    30301.309    5.0902799 
    2960     1121.597   -7892.1425   -7767.0266   -992.87527    30301.745    5.1261342 
    2970      1113.58   -7892.1342   -7767.9126   -954.62838    30300.185    5.1604248 
    2980    1100.9344   -7891.5638   -7768.7529   -815.32253     30296.73    5.1926189 
    2990    1093.0047   -7891.4517   -7769.5254   -653.21967    30291.642    5.2243508 
    3000    1083.7845   -7891.1159   -7770.2181   -629.16895    30285.231     5.256945 
    3010    1065.4606   -7889.6563   -7770.8026   -734.47575    30277.566    5.2883008 
    3020     1060.249   -7889.5245   -7771.2522   -897.24837    30268.457    5.3157482 
    3030     1087.905   -7892.9379   -7771.5805   -1397.2276    30257.515     5.342937 
    3040    1103.9172   -7894.9811   -7771.8375   -1803.9664    30243.805    5.3762723 
    3050    1088.5884   -7893.4787   -7772.0451   -1465.4113    30226.677    5.4165146 
    3060    1073.6084   -7891.9434   -7772.1808    -1131.618    30206.675    5.4605274 
    3070    1059.1079   -7890.3511    -7772.206   -776.66687    30184.526    5.5046744 
    3080    1059.0919   -7890.2377   -7772.0944   -868.37727    30160.864    5.5426828 
    3090    1069.7653   -7891.1853   -7771.8513   -1151.8276    30135.578    5.5728278 
    3100    1063.9351   -7890.1703   -7771.4867    -1045.204    30108.224    5.5985098 
    3110    1050.9088   -7888.2268   -7770.9963   -882.89081    30078.958    5.6228262 
    3120    1040.7174   -7886.4478   -7770.3543   -714.53921    30048.135    5.6435235 
    3130    1051.8235   -7886.8798   -7769.5473   -654.19043    30016.091     5.658971 
    3140    1073.4169   -7888.3264   -7768.5851   -656.77902    29982.971    5.6731071 
    3150    1095.5333   -7889.7189   -7767.5106   -391.74262    29948.853    5.6894983 
    3160    1110.3684   -7890.2334   -7766.3701    124.06418    29914.291    5.7087261 
    3170    1132.5263   -7891.5349   -7765.1999    450.14122    29880.248    5.7281735 
    3180    1164.0034   -7893.9033   -7764.0569    570.09018    29847.358    5.7464481 
    3190    1161.7301   -7892.5918   -7762.9991     1015.882     29815.95    5.7663324 
    3200     1159.964   -7891.4402   -7762.0445    1553.3645    29786.866     5.788441 
    3210    1169.6415   -7891.6618   -7761.1865    1635.5825    29761.047     5.814012 
    3220    1185.3708   -7892.6705   -7760.4406    1313.1408    29738.621    5.8428929 
    3230    1194.3833   -7893.0788   -7759.8435    967.44879    29718.979    5.8772036 
    3240     1167.294   -7889.6223   -7759.4089     932.6931    29701.468    5.9202239 
    3250    1142.6338   -7886.5422   -7759.0797    993.27415    29685.966    5.9672813 
    3260    1138.6809    -7885.823   -7758.8014    893.10496    29672.505    6.0155543 
    3270    1140.0575   -7885.7276   -7758.5524    814.09071    29660.903    6.0622554 
    3280    1152.2959   -7886.8887   -7758.3484      963.187    29651.031    6.1051661 
    3290    1141.8966   -7885.5713    -7758.191    1327.5354    29643.177    6.1471136 
    3300    1162.8261   -7887.8079   -7758.0929     1032.329    29637.858    6.1882115 
    3310    1181.1758    -7889.835   -7758.0731    790.89686     29634.65    6.2263873 
    3320    1203.8686   -7892.4894    -7758.196    402.72297    29632.987    6.2606673 
    3330    1201.3404   -7892.5102   -7758.4988    199.31707    29632.167    6.2922496 
    3340     1170.566   -7889.5472   -7758.9688    292.59002    29631.795    6.3229944 
    3350    1137.1856   -7886.3898   -7759.5351    405.67044    29632.005     6.356795 
    3360     1109.043   -7883.8266   -7760.1112    488.18843    29633.014    6.3961308 
    3370    1097.5025   -7883.0785   -7760.6505    589.01895    29634.983    6.4410393 
    3380    1093.8844   -7883.1514   -7761.1269    823.40569    29638.125     6.495597 
    3390    1099.9399   -7884.2413   -7761.5413    1033.5886    29642.878    6.5551531 
    3400      1114.18   -7886.1954   -7761.9069    887.09976     29649.58    6.6087953 
    3410    1134.8373   -7888.8476   -7762.2548     599.9534    29658.003    6.6522065 
    3420    1152.8194   -7891.2318   -7762.6331    256.56062    29667.565    6.6902956 
    3430    1149.6268   -7891.3125   -7763.0699    39.547025    29677.634    6.7316249 
    3440    1141.7565   -7890.9279   -7763.5633   -245.12403    29687.747    6.7802787 
    3450    1124.7972   -7889.5558    -7764.083   -357.52774    29697.408    6.8299055 
    3460    1115.6582   -7889.0538   -7764.6004   -358.91014    29706.383    6.8745293 
    3470    1109.8704   -7888.8968   -7765.0891   -510.98471    29714.617    6.9209692 
    3480    1110.6979   -7889.4472   -7765.5472   -709.03723    29721.825    6.9727837 
    3490    1109.3341   -7889.7199    -7765.972   -689.62112    29727.679    7.0266437 
    3500     1112.985   -7890.5222    -7766.367    -634.6135    29732.183    7.0789195 
    3510    1097.8925   -7889.2041   -7766.7326   -412.24169    29735.462    7.1308487 
    3520    1067.7647    -7886.129   -7767.0182    17.733916     29737.99    7.1862992 
    3530    1098.6853   -7889.7754   -7767.2154   -78.362208    29740.445    7.2467568 
    3540    1106.4495   -7890.7653   -7767.3392    100.26381    29742.822    7.3084467 
    3550    1098.3073   -7889.9386   -7767.4208    250.55241    29745.395    7.3644579 
    3560    1094.6062   -7889.5521   -7767.4472    254.76626    29748.448    7.4136043 
    3570    1093.0146   -7889.3323   -7767.4049    147.19361    29752.006    7.4573379 
    3580    1115.2762   -7891.7163   -7767.3055    -364.5501    29755.782    7.4976376 
    3590     1135.175   -7893.8086   -7767.1781   -835.50768    29758.867    7.5377441 
    3600    1129.0497   -7893.0095   -7767.0623   -947.18246    29760.381    7.5781148 
    3610    1117.5173   -7891.6201   -7766.9593   -936.60491    29760.044    7.6195057 
    3620      1104.05   -7889.9948   -7766.8364   -826.08066    29757.877    7.6639128 
    3630    1110.2426   -7890.5246   -7766.6754   -530.43374    29754.125    7.7070932 
    3640    1131.3666   -7892.6863   -7766.4806   -288.00199    29749.318    7.7449077 
    3650    1139.7862   -7893.4342   -7766.2893    96.841338    29743.968    7.7814306 
    3660    1142.1955   -7893.5424   -7766.1288    589.11991    29738.829    7.8234135 
    3670    1129.8716   -7892.0403   -7766.0014    1270.0409    29734.895    7.8707616 
    3680    1111.8587   -7889.9141   -7765.8846    1731.2448    29733.433    7.9159816 
    3690    1109.8177   -7889.5447   -7765.7429    1428.7351     29735.27    7.9507892 
    3700    1129.8296   -7891.6141   -7765.5799    790.54618    29739.888    7.9800622 
    3710    1115.6409   -7889.8569   -7765.4055    658.55016      29746.2    8.0168931 
    3720    1096.1363   -7887.4884   -7765.2128    646.04535    29753.859    8.0652844 
    3730    1104.3944   -7888.1627   -7764.9658     701.8321    29762.857    8.1181178 
    3740    1122.6699   -7889.9057   -7764.6702    1033.7449    29773.362    8.1668775 
    3750    1124.0297   -7889.7497   -7764.3625    1221.8976    29785.942    8.2096199 
    3760    1114.8394   -7888.4124   -7764.0503    1113.4335    29800.993    8.2494519 
    3770    1098.3244   -7886.2321   -7763.7123    876.96869    29818.344    8.2907524 
    3780    1108.7062   -7887.0043   -7763.3265    496.20911     29837.54    8.3364568 
    3790    1124.0874   -7888.2837   -7762.8901    154.13478    29857.889     8.388699 
    3800    1114.6598   -7886.7814   -7762.4394    28.704354    29878.742    8.4491575 
    3810    1112.5438   -7886.0733   -7761.9674   -179.05071    29899.776    8.5124985 
    3820     1117.888   -7886.1722   -7761.4701   -177.01809    29920.638    8.5768196 
    3830    1129.8945   -7886.9926   -7760.9512   -65.176401    29941.323    8.6435725 
    3840    1154.7819   -7889.2635   -7760.4458   -94.791927    29962.013    8.7123255 
    3850     1149.732   -7888.2412   -7759.9869   -109.85258      29982.7    8.7819399 
    3860    1147.8284   -7887.6333   -7759.5913   -504.13946    30003.254    8.8484754 
    3870     1139.969   -7886.4081   -7759.2429   -616.40133    30023.032    8.9105128 
    3880    1125.6667   -7884.4965   -7758.9267   -441.47062     30041.78    8.9734824 
    3890    1127.7854   -7884.4269   -7758.6208   -384.13589    30059.773    9.0394881 
    3900    1145.4098   -7886.0964   -7758.3242   -441.72894    30077.131    9.1052762 
    3910    1141.7453   -7885.4222   -7758.0588   -315.07755    30093.802     9.169229 
    3920    1120.7546   -7882.8504   -7757.8286   -406.85692    30109.952    9.2320369 
    3930    1108.5413   -7881.2501   -7757.5907   -840.21914    30125.366     9.298032 
    3940    1109.9814   -7881.1377   -7757.3176   -940.75165     30139.29    9.3700275 
    3950    1119.7265   -7881.9189   -7757.0117   -753.42156    30151.491    9.4465512 
    3960    1119.6413   -7881.5793   -7756.6817   -572.54626    30162.298    9.5262645 
    3970     1116.314   -7880.8619   -7756.3354   -488.53528    30172.051    9.6045763 
    3980    1131.4357   -7882.1868   -7755.9735   -746.43409    30180.843    9.6725963 
    3990     1131.193   -7881.8013   -7755.6151   -635.95139    30188.308    9.7356166 
    4000     1103.908   -7878.4069   -7755.2643   -343.15779    30194.578    9.7985188 
    4010    1101.0365   -7877.7064   -7754.8841   -152.78847    30200.196    9.8590074 
    4020    1112.5642   -7878.5517   -7754.4435    5.5317183    30205.572    9.9142912 
    4030    1129.8005   -7879.9979    -7753.967    8.5449962    30211.007      9.96358 
    4040    1145.4664    -7881.267   -7753.4885   -28.844282    30216.538    10.009203 
    4050    1148.1797   -7881.1305   -7753.0493   -27.361989    30222.098    10.052085 
    4060    1133.3329   -7879.0772   -7752.6522    90.275284    30227.721    10.094071 
    4070    1149.6706   -7880.5381   -7752.2906   -117.14313     30233.54    10.137758 
    4080    1167.7965   -7882.2445    -7751.975   -544.21301    30239.172     10.18509 
    4090    1149.1918   -7879.9358   -7751.7418    -699.1847    30243.821    10.235767 
    4100    1132.3126   -7877.8808   -7751.5696   -678.83849    30247.141    10.287184 
    4110    1144.2595    -7879.069   -7751.4251   -887.47157    30249.087    10.332411 
    4120    1152.3762   -7879.8719   -7751.3226   -1165.3563    30249.228    10.372648 
    4130    1122.6398   -7876.4979   -7751.2658   -1247.1111    30247.013    10.412806 
    4140    1116.3256   -7875.7453   -7751.2175   -1221.0634    30242.229    10.448245 
    4150    1135.9094   -7877.8704    -7751.158   -1094.1453    30234.877    10.473169 
    4160    1149.6619   -7879.3643   -7751.1178   -814.44855    30225.191    10.487305 
    4170    1159.3162    -7880.458   -7751.1345   -664.03652    30213.643    10.496715 
    4180    1168.8894   -7881.6231   -7751.2318   -726.28709    30200.493    10.512916 
    4190    1169.9321   -7881.9423   -7751.4346   -862.34868    30185.627    10.543142 
    4200    1165.0692   -7881.7136   -7751.7484   -1126.2334    30168.712    10.579188 
    4210    1153.0623    -7880.784   -7752.1582   -1394.6807    30149.192    10.610337 
    4220    1136.6898   -7879.4352   -7752.6357   -1257.8669    30126.556    10.631635 
    4230     1124.172   -7878.5408   -7753.1377   -785.55414    30100.991    10.645218 
    4240    1117.9232   -7878.3369   -7753.6309   -68.503279    30073.411    10.662053 
    4250    1122.4065    -7879.308   -7754.1019    313.64088    30045.126    10.693747 
    4260    1133.4474   -7881.0165   -7754.5787    518.81073     30016.92    10.737888 
    4270    1130.1837   -7881.1341   -7755.0604    760.80088    29989.257    10.780739 
    4280    1132.1272   -7881.8509   -7755.5604     984.4095    29962.621     10.81602 
    4290    1112.2266   -7880.1319   -7756.0613    1239.3771    29937.471    10.849914 
    4300    1099.8619   -7879.2226   -7756.5314    1422.0105    29914.338    10.886234 
    4310    1109.9102    -7880.769   -7756.9569    1248.1666    29893.541    10.920082 
    4320    1119.8897   -7882.2835   -7757.3581    1223.2086    29874.886    10.946524 
    4330    1127.6744   -7883.5442   -7757.7504    1166.5451    29858.316    10.975489 
    4340    1126.8944     -7883.86   -7758.1533    1060.1527    29843.759    11.016239 
    4350    1112.8044   -7882.6882   -7758.5532    955.39776    29831.043     11.06327 
    4360    1124.4865   -7884.3841   -7758.9459     821.4423    29819.989    11.110504 
    4370    1135.9478   -7886.0638   -7759.3471    862.60118    29810.394    11.159392 
    4380    1133.4846   -7886.2171   -7759.7752    989.03916    29802.344    11.211563 
    4390    1129.5254   -7886.2296   -7760.2293    915.32994    29796.075    11.264259 
    4400    1117.4385   -7885.3402   -7760.6882    745.77922    29791.494    11.316464 
    4410      1107.13   -7884.6239   -7761.1218    750.48878    29788.366    11.370972 
    4420    1115.1462   -7885.9182    -7761.522    707.50262    29786.667     11.42938 
    4430    1116.6372   -7886.4638   -7761.9013    702.50101    29786.375    11.491481 
    4440     1123.218   -7887.5632   -7762.2665     372.6577    29787.434    11.553799 
    4450    1140.7922   -7889.9002   -7762.6431    -131.0078    29789.244     11.61195 
    4460    1148.6452   -7891.1964   -7763.0633   -365.22634    29790.882    11.665319 
    4470    1127.6004   -7889.3123   -7763.5268   -307.55644    29791.888    11.715921 
    4480    1110.5199   -7887.8794   -7763.9992   -386.42751     29792.29    11.764566 
    4490    1101.0208   -7887.2615    -7764.441    -489.7586    29791.935    11.816312 
    4500    1095.4229   -7887.0408   -7764.8448   -452.99312    29790.628    11.874557 
    4510      1084.31   -7886.1373   -7765.1809   -220.12174    29788.435    11.933353 
    4520    1104.3715   -7888.6443     -7765.45     -225.038    29785.699    11.987712 
    4530    1128.4746   -7891.5673   -7765.6842   -332.25816     29782.45    12.043994 
    4540    1139.5581   -7893.0561   -7765.9366   -276.30704    29778.504    12.109879 
    4550    1133.1382   -7892.6328   -7766.2296   -143.84867    29773.939    12.186548 
    4560    1116.1698   -7891.0564    -7766.546    110.70566    29769.017    12.270363 
    4570    1103.6395   -7889.9586    -7766.846    469.59388    29764.238     12.35058 
    4580    1100.6669   -7889.8909   -7767.1099    554.75676    29760.249    12.420249 
    4590    1086.3196   -7888.5054   -7767.3248    483.94359    29757.259    12.483659 
    4600    1067.2134   -7886.5125   -7767.4632    431.45652    29755.185    12.544972 
    4610    1058.4219   -7885.5462   -7767.4777    244.49143    29753.916    12.606105 
    4620    1087.0689   -7888.6316   -7767.3674    -52.13547    29753.086    12.667529 
    4630    1090.6766   -7888.8139   -7767.1473   -77.773228      29752.2    12.725071 
    4640    1088.8346   -7888.2985   -7766.8374    26.437102    29751.172    12.770021 
    4650    1097.4674    -7888.848   -7766.4239    79.906531    29750.162    12.802326 
    4660    1098.6509    -7888.458   -7765.9018    301.12961     29749.33    12.832883 
    4670    1106.4981   -7888.7072   -7765.2757    396.15078    29749.047    12.867944 
    4680    1105.1675   -7887.8241    -7764.541    419.41964    29749.543      12.9092 
    4690    1113.3126   -7887.9052   -7763.7135    248.49177    29750.854     12.95646 
    4700    1110.0833   -7886.6307   -7762.7992    57.091725    29752.703    13.006382 
    4710    1100.6038   -7884.6008   -7761.8268   -12.120947    29754.739    13.055888 
    4720    1121.3226   -7885.8924   -7760.8072   -147.11265    29756.791    13.100513 
    4730    1148.5895   -7887.9129    -7759.786   -323.91456    29758.604    13.134426 
    4740    1166.1483   -7888.9528   -7758.8672   -301.24572    29759.856    13.158164 
    4750    1162.5716   -7887.7979   -7758.1113    16.797343    29760.602    13.177561 
    4760    1154.3141   -7886.2865    -7757.521     482.2946    29761.427    13.195825 
    4770    1152.5025   -7885.6274    -7757.064    691.42992    29763.207    13.219254 
    4780      1156.29   -7885.7025   -7756.7166      530.088     29766.37    13.255013 
    4790    1152.9246   -7885.0806   -7756.4701    436.80229    29770.694    13.301141 
    4800    1140.0935   -7883.4858   -7756.3066     571.5896    29776.041    13.350409 
    4810    1135.8926   -7882.9074   -7756.1969    576.61445    29782.639    13.394843 
    4820    1139.2397   -7883.2087   -7756.1248    417.32974    29790.532    13.432285 
    4830    1131.5192   -7882.3118   -7756.0891    548.52854    29799.522    13.467557 
    4840     1123.481   -7881.3968   -7756.0708    700.25058    29809.841    13.507899 
    4850    1139.0589   -7883.1281   -7756.0644    596.26588    29821.775    13.559957 
    4860    1150.4739   -7884.4223   -7756.0852    382.76331    29835.181    13.617968 
    4870    1142.7376   -7883.6291    -7756.155    279.39293    29849.701    13.667518 
    4880    1128.6079    -7882.154   -7756.2561    426.49484    29865.174    13.699458 
    4890     1143.482   -7883.9338   -7756.3766    565.36227    29881.862    13.722663 
    4900    1165.4814   -7886.5593   -7756.5481    683.47405    29900.058    13.751113 
    4910    1145.1549   -7884.5331   -7756.7894    1145.3889    29920.115    13.791015 
    4920    1153.4316   -7885.7631    -7757.096    898.69567    29942.773    13.847656 
    4930     1133.098   -7883.8225   -7757.4237    520.62584    29967.725     13.91933 
    4940    1118.5763   -7882.5282   -7757.7494    87.057063    29994.228    13.990995 
    4950    1119.4014   -7882.9157   -7758.0448   -272.58069    30021.456    14.053217 
    4960    1110.0082   -7882.1368   -7758.3137   -348.26348    30048.704    14.104806 
    4970    1099.4485   -7881.1895   -7758.5443   -280.53797    30075.779    14.146219 
    4980    1104.7247   -7881.9598   -7758.7261   -395.01888    30102.725     14.18847 
    4990     1119.519   -7883.7497   -7758.8657   -597.51514    30129.313    14.246031 
    5000    1142.2291   -7886.4237   -7759.0063    -746.2236    30155.114    14.319189 
Loop time of 2421.66 on 16 procs for 3000 steps with 864 atoms

Performance: 0.107 ns/day, 224.228 hours/ns, 1.239 timesteps/s
98.0% CPU use with 16 MPI tasks x 1 OpenMP threads

MPI task timing breakdown:
Section |  min time  |  avg time  |  max time  |%varavg| %total
---------------------------------------------------------------
Pair    | 2176.7     | 2272.5     | 2368.2     | 123.3 | 93.84
Bond    | 0.00032282 | 0.00084953 | 0.0019968  |   0.0 |  0.00
Neigh   | 0.031276   | 0.03314    | 0.036536   |   0.8 |  0.00
Comm    | 37.844     | 121.7      | 222.31     | 530.8 |  5.03
Output  | 0.17523    | 0.17837    | 0.22358    |   2.8 |  0.01
Modify  | 8.9474     | 27.213     | 42.421     | 229.1 |  1.12
Other   |            | 0.01569    |            |       |  0.00

Nlocal:        54.0000 ave          60 max          46 min
Histogram: 1 0 1 2 0 4 2 5 0 1
Nghost:        397.938 ave         420 max         362 min
Histogram: 1 0 2 0 1 1 4 3 2 2
Neighs:         0.00000 ave           0 max           0 min
Histogram: 16 0 0 0 0 0 0 0 0 0
FullNghs:      1496.88 ave        1711 max        1147 min
Histogram: 1 0 1 1 1 2 3 3 3 1

Total # of neighbors = 23950
Ave neighs/atom = 27.719907
Ave special neighs/atom = 0.0000000
Neighbor list builds = 300
Dangerous builds = 300
unfix   2

fix     3 all npt temp 1125.0 1125.0 $(100.0*dt) aniso 1.01325 1.01325 $(1000.0*dt)
fix     3 all npt temp 1125.0 1125.0 0.10000000000000000555 aniso 1.01325 1.01325 $(1000.0*dt)
fix     3 all npt temp 1125.0 1125.0 0.10000000000000000555 aniso 1.01325 1.01325 1
run     20000
Per MPI rank memory allocation (min/avg/max) = 8.897 | 8.899 | 8.901 Mbytes
Step Temp PotEng TotEng Press Volume c_msd[4] 
    5000    1142.2291   -7886.4237   -7759.0063    -746.2236    30155.114    14.319189 
    5010     1151.513   -7887.4868   -7759.0338   -675.39109    30154.367    14.379321 
    5020    1135.8095   -7885.8138   -7759.1125   -313.75342    30152.321    14.436044 
    5030    1132.8545   -7885.5968   -7759.2251   -131.91806      30149.6    14.489177 
    5040    1143.2794   -7886.8969   -7759.3624   -272.01299    30146.572    14.543657 
    5050    1147.0998   -7887.5146   -7759.5539   -541.26482    30142.964    14.604551 
    5060    1126.1022   -7885.4109   -7759.7925   -369.15387    30138.367    14.675003 
    5070    1114.8475   -7884.4158   -7760.0529   -202.84981    30133.007    14.753525 
    5080    1101.7946   -7883.2104   -7760.3035    39.982644    30127.246    14.830202 
    5090    1097.4651    -7882.944   -7760.5201     117.0322    30121.531    14.894461 
    5100    1103.7344   -7883.8138   -7760.6906    119.75636    30116.037    14.941947 
    5110    1124.7502   -7886.3108   -7760.8432    11.600082    30110.747    14.977602 
    5120    1126.0964   -7886.6238   -7761.0061    27.525388    30105.505    15.012871 
    5130    1129.0584   -7887.1499   -7761.2018    45.982508    30100.317     15.05339 
    5140    1136.5991    -7888.236   -7761.4467   -17.953175    30095.205    15.096715 
    5150    1132.7101   -7888.1133   -7761.7578    79.826727    30090.098    15.134894 
    5160    1140.0243   -7889.3305   -7762.1591    152.05319    30085.131    15.168206 
    5170     1143.167    -7890.201    -7762.679    327.20377    30080.484    15.204573 
    5180    1141.5781   -7890.6849   -7763.3402    241.45606    30076.434    15.248892 
    5190    1122.7957   -7889.3976   -7764.1481   -50.740398    30072.815     15.29839 
    5200     1076.333   -7885.0851   -7765.0186   -95.634115    30069.143    15.345919 
    5210    1072.7375   -7885.5317   -7765.8662   -234.21887    30065.244    15.386328 
    5220    1091.2002   -7888.4007   -7766.6756    -423.8338    30060.857    15.422386 
    5230     1081.684   -7888.1029   -7767.4394   -410.10135    30055.638    15.461284 
    5240    1066.9249   -7887.1414   -7768.1244    -488.4892    30049.544    15.505165 
    5250    1053.5184   -7886.2094   -7768.6878   -831.90793    30042.376    15.552942 
    5260    1052.0841    -7886.469   -7769.1075   -993.08392    30033.514     15.60154 
    5270    1060.1507    -7887.645   -7769.3836   -818.89833     30022.65    15.650442 
    5280    1063.7237   -7888.1896   -7769.5297   -475.58045    30010.088    15.700287 
    5290    1057.1543    -7887.468   -7769.5408    37.944389     29996.53    15.747564 
    5300    1089.0276   -7890.9069   -7769.4242    33.189664    29982.857    15.784829 
    5310    1113.5063   -7893.4286   -7769.2153   -205.32707    29969.114     15.81233 
    5320    1091.4898   -7890.7026   -7768.9453   -216.12734    29954.911    15.834484 
    5330     1080.626   -7889.1382   -7768.5928   -284.00404    29940.174    15.849846 
    5340    1087.9156   -7889.4857   -7768.1271   -433.87852    29924.759    15.855632 
    5350    1067.1418   -7886.5758   -7767.5346   -267.57339    29908.423    15.859299 
    5360    1060.2939   -7885.0718   -7766.7944   -184.79504    29891.417    15.871192 
    5370    1084.2688     -7886.83   -7765.8782   -396.08203    29873.867     15.88986 
    5380    1098.5789   -7887.3792   -7764.8311   -156.88648    29855.477      15.9099 
    5390    1104.3967    -7886.922   -7763.7249    538.98172    29836.731     15.92785 
    5400    1114.1001   -7886.9001   -7762.6205    1200.9211    29818.917    15.940252 
    5410    1114.0365   -7885.8504    -7761.578    1863.5231    29803.395     15.94772 
    5420     1127.923   -7886.4766   -7760.6551     2040.609    29791.378    15.958082 
    5430    1143.6478   -7887.4578   -7759.8822    1922.5784    29783.306    15.976484 
    5440    1155.2436   -7888.1557   -7759.2865     1633.801    29778.992    16.000429 
    5450     1163.483   -7888.6505   -7758.8623    1422.1115     29777.92    16.028202 
    5460    1149.9871   -7886.8661   -7758.5833    1294.4081    29779.692    16.062438 
    5470    1164.1137    -7888.288   -7758.4294    972.48821    29784.004     16.10018 
    5480    1167.6404   -7888.6351   -7758.3831    1038.1568    29790.365    16.140903 
    5490    1151.3475   -7886.8809   -7758.4463    1629.3712    29798.948    16.189828 
    5500    1130.1912   -7884.6463   -7758.5718     2185.692     29810.86    16.244255 
    5510    1113.1733   -7882.8825   -7758.7063    2133.3052    29827.119    16.300789 
    5520    1111.9455   -7882.8564   -7758.8172    1702.3191    29847.711    16.360058 
    5530    1104.5439   -7882.0931   -7758.8795    1167.5647    29871.875    16.423002 
    5540    1095.4693    -7881.097   -7758.8957    682.22593    29898.581    16.486366 
    5550    1090.0557   -7880.4422   -7758.8449     483.0276    29926.922    16.552117 
    5560    1107.8715    -7882.316   -7758.7313      177.013     29956.41    16.626677 
    5570    1120.0621   -7883.5193   -7758.5747    20.030882    29986.497    16.710491 
    5580    1115.1378    -7882.797   -7758.4017   -38.713713    30016.817    16.792519 
    5590    1111.7255   -7882.2149   -7758.2003    -125.0443    30047.216    16.861637 
    5600    1116.1382   -7882.4587   -7757.9518   -294.82387    30077.481    16.918996 
    5610    1124.4084   -7883.0887   -7757.6593    -365.1516    30107.266    16.972496 
    5620    1130.7788   -7883.4896   -7757.3495   -456.74517    30136.379     17.02709 
    5630    1157.0392   -7886.1112   -7757.0417   -1103.4491    30164.502    17.083649 
    5640    1152.6532   -7885.3426   -7756.7624   -1457.5875     30190.46    17.137025 
    5650    1131.0434   -7882.6936    -7756.524   -1358.6676    30213.525    17.179284 
    5660    1141.2665   -7883.6153   -7756.3053   -1275.8517    30233.771    17.212642 
    5670      1133.03   -7882.4952    -7756.104   -759.93209    30251.471    17.247664 
    5680    1120.7051   -7880.9422   -7755.9258   -213.99622     30267.57    17.289193 
    5690     1120.165   -7880.6908   -7755.7347   -21.606344    30283.109    17.332181 
    5700    1130.6296   -7881.6428   -7755.5194    -85.19385    30298.511    17.374717 
    5710    1127.7919   -7881.0899    -7755.283   -255.92251    30313.661    17.418192 
    5720    1128.7077   -7880.9309   -7755.0219   -434.75269    30328.218    17.463226 
    5730    1144.4365   -7882.3949   -7754.7313   -442.10763    30341.845    17.512108 
    5740     1153.161   -7883.0629   -7754.4261     -350.718    30354.526    17.567593 
    5750    1160.0106   -7883.5329    -7754.132   -412.85271    30366.393    17.624789 
    5760    1163.4549    -7883.664   -7753.8789   -431.71078    30377.364    17.674349 
    5770    1158.3335   -7882.9047   -7753.6909   -471.59865    30387.385    17.713604 
    5780    1143.6715   -7881.1369   -7753.5586   -600.99865    30396.374    17.749246 
    5790     1143.959   -7881.0828   -7753.4725   -965.96308    30404.013    17.786294 
    5800    1146.7876   -7881.3461   -7753.4202   -1256.0809    30409.645      17.8203 
    5810    1158.3137   -7882.6374   -7753.4258   -1766.6776    30412.611    17.846943 
    5820    1157.5243    -7882.645   -7753.5214   -2080.8406    30411.973    17.862938 
    5830    1142.8962   -7881.2091   -7753.7173   -2165.5126    30407.102    17.872705 
    5840    1128.9369   -7879.9289   -7753.9943   -2207.2154    30397.817    17.886579 
    5850    1092.5378    -7876.178   -7754.3038   -2096.6837     30384.09    17.910163 
    5860    1083.0844   -7875.4054   -7754.5857   -2176.9332    30366.103    17.941054 
    5870    1096.6543   -7877.1459   -7754.8124    -2163.756    30343.794    17.980123 
    5880    1102.4062   -7877.9707   -7754.9956   -1920.2919    30317.246    18.024212 
    5890    1106.4598   -7878.5648   -7755.1376   -1645.5844    30286.974    18.063204 
    5900    1126.1432   -7880.8769    -7755.254   -1477.7107    30253.545    18.092893 
    5910    1141.3893   -7882.7028   -7755.3791   -1326.4858    30217.341    18.119663 
    5920    1146.3007   -7883.4175   -7755.5459   -1090.5575    30178.722    18.152518 
    5930    1144.0068   -7883.3871   -7755.7714   -768.79599     30138.19    18.192105 
    5940    1134.4396   -7882.5902   -7756.0417   -335.27411     30096.46    18.228021 
    5950     1134.395   -7882.8942   -7756.3507   -98.779708    30054.364    18.250294 
    5960    1139.8186   -7883.8471   -7756.6986    101.25545    30012.434    18.258983 
    5970    1157.0607   -7886.1881   -7757.1162    16.624166    29971.007     18.26281 
    5980    1157.7362   -7886.7784   -7757.6312    293.61187    29930.066    18.266444 
    5990    1152.4359   -7886.7966   -7758.2406    749.66555    29890.126    18.275526 
    6000    1147.4864   -7886.9417   -7758.9379    870.76304    29851.993    18.297267 
    6010     1141.756   -7887.0679   -7759.7033    637.87312    29815.905    18.333129 
    6020    1141.0788   -7887.8246   -7760.5355    431.82809    29781.435    18.382439 
    6030    1120.0356   -7886.3196   -7761.3779    712.83793    29748.267    18.446781 
    6040    1113.3626   -7886.3845   -7762.1873    857.79874    29716.811    18.519115 
    6050    1107.7057   -7886.5024   -7762.9362    955.83794    29687.359    18.587078 
    6060    1092.0752   -7885.4202   -7763.5976    1114.8144    29660.105     18.65008 
    6070    1084.6818   -7885.1444   -7764.1466    1287.0541    29635.314    18.707802 
    6080    1097.0412   -7886.9642   -7764.5876    1437.0669    29613.276    18.752991 
    6090    1092.1167   -7886.7663    -7764.939    1804.7236    29594.312    18.786544 
    6100    1085.1349   -7886.2504    -7765.202    1974.0778    29579.007    18.817113 
    6110    1086.3945   -7886.5639   -7765.3749    1931.5225    29567.652    18.848567 
    6120    1086.3078   -7886.6406   -7765.4613    1954.3502    29560.176    18.879074 
    6130    1093.3916   -7887.4325    -7765.463    1891.2989    29556.563    18.909321 
    6140    1113.6114   -7889.6356   -7765.4106    1675.4957    29556.626    18.940925 
    6150    1105.6587   -7888.6617   -7765.3238    1617.8702    29559.978    18.974244 
    6160    1089.2464   -7886.7046   -7765.1976    1455.2888    29566.441    19.013569 
    6170    1082.0596   -7885.7122   -7765.0068    1098.2962    29575.638    19.060188 
    6180    1060.1901   -7882.9753   -7764.7095    970.00189    29586.952    19.120724 
    6190    1069.2894   -7883.5657   -7764.2849    669.31578    29600.042    19.189935 
    6200    1074.0764   -7883.5297   -7763.7149    477.33988    29614.369    19.255035 
    6210    1054.0413   -7880.5934   -7763.0135    909.83435    29629.661    19.308715 
    6220    1048.2452   -7879.1119   -7762.1786    1249.2294    29646.605    19.347736 
    6230    1052.6834    -7878.621   -7761.1925    1203.0104    29665.826    19.378498 
    6240    1079.7521   -7880.5495   -7760.1015    895.04985    29687.231    19.411821 
    6250    1100.0691   -7881.7085   -7758.9941    619.75478    29710.269    19.454866 
    6260    1095.0946   -7880.1431   -7757.9837    331.53441    29734.383    19.515263 
    6270    1101.9081   -7880.0308   -7757.1113   -158.26508     29758.95    19.589531 
    6280    1105.7128   -7879.7242   -7756.3803    -210.1862    29783.141     19.66321 
    6290    1098.2557   -7878.2893   -7755.7772    46.243969    29806.824    19.724742 
    6300    1130.8519   -7881.4239   -7755.2756    2.1160522    29830.391    19.771982 
    6310    1147.7589   -7882.9074   -7754.8731   -196.60328    29853.778    19.816261 
    6320     1134.076   -7881.0866   -7754.5788   -373.68462    29876.625     19.85731 
    6330    1135.0398   -7880.9689   -7754.3535   -721.30595    29898.547     19.88929 
    6340    1145.2803   -7881.9295   -7754.1718   -888.64334     29918.92    19.922033 
    6350    1138.8636   -7881.0843   -7754.0424   -550.88855     29937.48    19.958481 
    6360    1159.2128   -7883.2826   -7753.9707    -316.3751     29954.79    19.989376 
    6370    1173.1392   -7884.8438   -7753.9784   -220.45234    29971.322    20.016914 
    6380    1151.8507   -7882.5779   -7754.0873    -244.5937     29987.26    20.047861 
    6390    1129.3977   -7880.2326   -7754.2466   -356.71123    30002.609    20.084255 
    6400    1139.9851   -7881.6009   -7754.4338   -681.16843    30017.089    20.125449 
    6410     1140.891   -7881.9148   -7754.6467   -933.97101     30030.11    20.175687 
    6420    1146.5674   -7882.8029   -7754.9016   -1214.7057    30041.146    20.237132 
    6430    1136.6594   -7881.9888   -7755.1927   -1294.8585    30049.711    20.300742 
    6440    1120.7406   -7880.5391   -7755.5188   -1622.2651    30055.563    20.360565 
    6450    1086.8093   -7877.0686   -7755.8334    -1774.526    30058.153    20.416026 
    6460    1067.4283   -7875.1497   -7756.0764    -1628.555    30057.206    20.457834 
    6470    1076.4142   -7876.2966    -7756.221   -1391.8931    30053.019    20.476498 
    6480    1074.7597   -7876.1488   -7756.2578   -1042.2166    30046.112    20.481562 
    6490     1095.919   -7878.4458   -7756.1944   -936.93011    30037.138    20.493934 
    6500    1135.2008   -7882.6978   -7756.0644   -1116.9495    30026.315    20.530886 
    6510    1135.4837   -7882.5895   -7755.9246   -941.90617    30013.439    20.594746 
    6520    1125.6139    -7881.358   -7755.7941   -758.13106     29998.81    20.668252 
    6530    1145.7442   -7883.4743   -7755.6648   -639.96864    29982.817    20.731933 
    6540    1167.2522   -7885.7742   -7755.5655   -272.76841    29965.787    20.784235 
    6550    1182.7496   -7887.4926   -7755.5551    179.95801     29948.43    20.833614 
    6560    1176.8722   -7886.9541   -7755.6722    426.05576    29931.594    20.886816 
    6570    1149.2024   -7884.1052   -7755.9099     471.0482    29915.759    20.942719 
    6580    1139.8967   -7883.3964   -7756.2392    624.51358    29901.077    20.996767 
    6590    1132.8768   -7882.9952   -7756.6211    763.23478    29887.838    21.048403 
    6600     1133.382   -7883.5007   -7757.0702    662.76476    29876.243    21.101128 
    6610    1121.3098   -7882.6598    -7757.576    434.38818    29866.092    21.164591 
    6620    1107.2267   -7881.6299    -7758.117    287.71233    29856.964    21.236944 
    6630    1090.5107   -7880.2991    -7758.651    337.28294    29848.565    21.308923 
    6640    1096.2107   -7881.4445   -7759.1605    211.11357    29840.905    21.371394 
    6650     1112.353   -7883.7495   -7759.6648   -161.87686    29833.725    21.419426 
    6660    1100.5182   -7882.9312   -7760.1667   -155.85936    29826.397    21.463466 
    6670    1093.5861   -7882.6434   -7760.6522    148.36256    29818.909    21.513482 
    6680    1085.0316   -7882.1363   -7761.0993    568.22911     29811.84    21.567762 
    6690     1071.614   -7881.0234   -7761.4833    946.65239    29805.996    21.618813 
    6700     1084.138   -7882.7335   -7761.7963    770.35727    29802.009    21.662098 
    6710    1104.1977   -7885.2242   -7762.0493    563.24558    29799.601    21.700713 
    6720    1115.3002    -7886.691   -7762.2776    547.63943    29798.377     21.74645 
    6730    1120.3385   -7887.4857   -7762.5102    394.09097    29798.217    21.803682 
    6740    1110.6388   -7886.6422   -7762.7488    371.77276    29798.872    21.858735 
    6750     1107.348   -7886.5138   -7762.9875    379.54344    29800.258    21.898998 
    6760    1100.4316   -7885.9637   -7763.2089     441.5087    29802.392    21.934365 
    6770    1091.6494   -7885.1741    -7763.399    620.55689    29805.405    21.973894 
    6780    1085.6614   -7884.6492   -7763.5421    656.30569    29809.566    22.021264 
    6790    1076.8192     -7883.73   -7763.6092    689.07584    29814.991    22.069055 
    6800    1090.5843   -7885.2467   -7763.5904    563.22513    29821.691    22.106869 
    6810    1086.3707   -7884.6584   -7763.4721    331.92766    29829.418    22.136962 
    6820    1078.2523   -7883.5332   -7763.2525    176.41168    29837.737    22.163097 
    6830    1072.0848   -7882.4812   -7762.8886    41.130742    29846.331    22.194133 
    6840    1087.8751   -7883.7067   -7762.3526   -312.07935    29854.889    22.233589 
    6850    1111.6988    -7885.651   -7761.6393   -486.23931    29862.796    22.274184 
    6860    1134.3362    -7887.337   -7760.8001   -340.25338    29869.715    22.307937 
    6870    1132.9412   -7886.2763    -7759.895    81.871733    29875.936    22.334594 
    6880    1128.8273   -7884.8934    -7758.971    442.16238    29882.263    22.359001 
    6890     1142.079   -7885.4382   -7758.0376    321.39941    29889.328    22.385102 
    6900    1147.8719   -7885.1844   -7757.1376    167.67751    29896.955    22.408132 
    6910    1138.7304   -7883.3253   -7756.2982    262.41001    29904.894    22.418874 
    6920     1157.525   -7884.6606   -7755.5369    291.35428     29913.27    22.421761 
    6930    1149.8157   -7883.1325   -7754.8688    383.43269    29922.179    22.434694 
    6940     1134.652   -7880.8751   -7754.3029    314.05832    29931.736    22.462063 
    6950    1118.0423   -7878.5187   -7753.7993    356.83826    29941.855    22.497132 
    6960    1099.1698   -7875.9281    -7753.314    571.78817    29952.633    22.532834 
    6970    1105.1379   -7876.0915   -7752.8117    416.63933    29964.387    22.562132 
    6980    1130.5933   -7878.4103   -7752.2909   -76.670383    29976.792    22.588471 
    6990    1136.7386   -7878.5976   -7751.7927   -198.49623    29989.005    22.617723 
    7000    1138.2499   -7878.3178   -7751.3443   -230.05649    30000.708    22.649151 
    7010    1156.1914   -7879.9231   -7750.9482   -226.70516    30011.858    22.684728 
    7020    1181.8504    -7882.475   -7750.6378   -539.10788    30022.384    22.725412 
    7030    1198.6658   -7884.1779   -7750.4649    -790.1033    30031.748    22.771359 
    7040    1195.9815   -7883.8789   -7750.4654   -657.43668    30039.515    22.817677 
    7050    1186.5666   -7883.0018   -7750.6386   -355.40681    30045.921    22.853858 
    7060    1173.3121   -7881.8314   -7750.9467   -56.648676    30051.563    22.872308 
    7070    1174.0335   -7882.3296   -7751.3644    17.668343    30056.991    22.873729 
    7080    1145.4488   -7879.6448   -7751.8683     450.4971    30062.484    22.872475 
    7090    1122.6441   -7877.6295   -7752.3968    858.21568    30068.828    22.881447 
    7100    1138.5781   -7879.9374   -7752.9273    815.00495     30076.77    22.903923 
    7110    1152.0404   -7881.9983   -7753.4865     461.2828    30086.222    22.934529 
    7120    1136.5155    -7880.853   -7754.0729    332.65897    30096.585    22.972837 
    7130    1139.2094   -7881.7577   -7754.6771     137.8953    30107.514    23.015688 
    7140    1136.2596   -7882.0349   -7755.2835   -22.940742    30118.648    23.060094 
    7150    1117.6624   -7880.5471   -7755.8702   -81.428509    30129.671    23.104045 
    7160    1115.1642   -7880.8053    -7756.407   -219.70776     30140.41     23.14346 
    7170     1133.529   -7883.3402   -7756.8934   -185.26522    30150.658    23.178117 
    7180    1144.6298   -7885.0472    -7757.362    168.90704    30160.505    23.208948 
    7190    1148.4895   -7885.9463   -7757.8306    483.97905    30170.609    23.243184 
    7200    1145.8459   -7886.1172   -7758.2964     360.7119    30181.543    23.290489 
    7210    1135.4046   -7885.4007   -7758.7446    127.84682    30193.105    23.351622 
    7220    1114.9322   -7883.5176   -7759.1452    120.58719    30204.889    23.420548 
    7230    1090.3066   -7881.0775   -7759.4522    103.29264    30216.821    23.485606 
    7240    1091.8927   -7881.4521   -7759.6498   -21.817262    30228.851    23.536738 
    7250    1090.3086   -7881.3686    -7759.743   -228.01158    30240.738     23.57865 
    7260    1096.1875   -7882.0357   -7759.7543   -525.50156    30252.061    23.621281 
    7270    1103.3569   -7882.7876   -7759.7065   -814.53409     30262.24    23.670735 
    7280    1096.0791   -7881.8871   -7759.6178   -1145.0417    30270.675    23.729103 
    7290    1101.6138    -7882.379   -7759.4923   -1549.2632    30276.704    23.791971 
    7300    1101.4275   -7882.2007   -7759.3348   -1503.3516    30279.625    23.857697 
    7310    1085.6507   -7880.2478   -7759.1418   -926.51246    30279.564     23.92119 
    7320    1095.3697   -7881.0938   -7758.9037   -482.03345    30277.583    23.975025 
    7330    1096.3337   -7880.9201   -7758.6224   -114.05281    30274.629    24.027505 
    7340    1101.3116   -7881.1612   -7758.3082    145.64921    30271.462    24.087999 
    7350     1130.912   -7884.1329    -7757.978    59.146544    30268.557    24.155565 
    7360    1138.6505   -7884.6882   -7757.6701    100.38109     30265.84    24.227313 
    7370    1141.5226   -7884.7565    -7757.418    140.62433     30263.35    24.300332 
    7380    1149.0007   -7885.3925   -7757.2198    163.05182    30261.172    24.370581 
    7390    1144.0568   -7884.6999   -7757.0787    317.12578    30259.375      24.4309 
    7400    1133.2589   -7883.4003   -7756.9835    354.18715    30258.211    24.485226 
    7410    1136.6973   -7883.7179   -7756.9176    392.22055    30257.796    24.543962 
    7420    1137.7526   -7883.7914   -7756.8733    622.31905    30258.245    24.606766 
    7430    1142.6618   -7884.3313   -7756.8657    763.90272    30259.938    24.669113 
    7440    1148.6183   -7885.0285   -7756.8984    879.29027    30263.188    24.739279 
    7450    1156.3198   -7885.9823   -7756.9931    985.39999    30268.211    24.823923 
    7460    1143.1127   -7884.6742   -7757.1582    1177.7573    30275.243    24.916531 
    7470    1123.5874   -7882.7075   -7757.3697    1221.3447    30284.614    25.015859 
    7480    1120.0653   -7882.5357   -7757.5908    1063.1752    30296.398    25.121951 
    7490    1128.5543   -7883.6956   -7757.8037    654.16654    30310.244    25.229058 
    7500    1126.3535   -7883.6706   -7758.0242     307.1614    30325.341    25.332979 
    7510    1111.3471   -7882.2276   -7758.2551    204.82986    30341.022    25.435197 
    7520    1104.1084   -7881.6375   -7758.4725    216.46712    30357.053     25.53866 
    7530    1113.7845   -7882.9204   -7758.6761    270.85605    30373.432    25.638179 
    7540     1125.531   -7884.4389   -7758.8842    306.99924    30390.262    25.735348 
    7550    1126.0112   -7884.7285   -7759.1203    381.56155     30407.61    25.839702 
    7560    1136.0403    -7886.133    -7759.406    285.31073    30425.603    25.950456 
    7570    1139.5789   -7886.8878    -7759.766   -198.98921    30443.987    26.063953 
    7580    1113.4115   -7884.4166   -7760.2139   -592.68456    30461.843    26.172587 
    7590    1092.7319   -7882.6151   -7760.7192    -793.3741    30478.384    26.268622 
    7600    1092.4424   -7883.1172   -7761.2536   -815.80233    30493.199    26.352094 
    7610    1089.6075    -7883.354   -7761.8067   -673.61888    30506.253    26.431129 
    7620     1087.252   -7883.6567   -7762.3721   -586.21764    30517.799     26.51331 
    7630    1091.2761   -7884.6726   -7762.9391    -804.9591    30527.985     26.60721 
    7640    1094.1413   -7885.5554   -7763.5023   -1130.8422    30536.423    26.713658 
    7650    1102.6455   -7887.0632   -7764.0614   -1425.7423    30542.455    26.823382 
    7660     1115.981    -7889.126   -7764.6366   -1502.9522    30545.522    26.929174 
    7670    1104.9495   -7888.4981   -7765.2393   -1443.9346    30545.467    27.029939 
    7680    1070.7222   -7885.2641   -7765.8235   -1298.1217     30542.44    27.130259 
    7690    1059.5853   -7884.5251   -7766.3268   -1335.9238    30536.709    27.233288 
    7700    1069.5068   -7886.0332   -7766.7282   -1506.1732    30528.242    27.335037 
    7710     1068.942    -7886.278   -7767.0359   -1748.1428    30516.706    27.429565 
    7720     1046.903   -7884.0179   -7767.2343   -1774.2526    30501.691    27.513415 
    7730    1046.8798     -7884.07    -7767.289   -1739.7559     30483.12    27.582796 
    7740    1061.7687   -7885.6187   -7767.1768    -1534.529    30461.147     27.63629 
    7750    1059.5524   -7885.0954   -7766.9007   -1280.3468     30436.21    27.677736 
    7760    1052.9577   -7883.9077   -7766.4487   -1015.5843    30408.872    27.705115 
    7770    1072.1768   -7885.4153   -7765.8124   -866.68785    30379.662    27.718594 
    7780    1081.4637   -7885.6343   -7764.9954   -872.92435    30348.922    27.732373 
    7790    1088.9175   -7885.5194    -7764.049   -865.36012    30316.711    27.756318 
    7800    1090.0017   -7884.6023   -7763.0109   -749.05051    30283.075    27.791569 
    7810    1102.3036   -7884.8881   -7761.9244   -714.94477    30248.236    27.832289 
    7820    1115.5729   -7885.2942   -7760.8503   -522.80626    30212.371    27.869415 
    7830    1134.4804   -7886.4078   -7759.8548   -150.72091    30175.891    27.891389 
    7840    1156.8829   -7888.0429   -7758.9908    374.97187    30139.563    27.895141 
    7850    1149.7801   -7886.5555   -7758.2958    661.92607     30104.36    27.886796 
    7860    1140.8447   -7885.0211   -7757.7582    805.77889    30070.894    27.882105 
    7870    1143.4877    -7884.897   -7757.3392    689.19067    30039.399    27.891961 
    7880    1135.9033   -7883.7211   -7757.0094    631.77527    30009.697    27.909729 
    7890    1140.7537   -7884.0047   -7756.7519    552.11405    29981.625    27.923831 
    7900    1127.9001   -7882.3594   -7756.5404    927.70404    29955.118    27.939262 
    7910    1126.8739   -7882.0599   -7756.3554    1406.8832    29930.823    27.967139 
    7920     1135.304   -7882.8401   -7756.1953    1636.6264    29909.581    28.004351 
    7930    1106.7265   -7879.5055   -7756.0485    2108.4723    29891.931    28.044882 
    7940    1105.6882    -7879.231   -7755.8899    2081.3136      29878.6     28.09199 
    7950    1117.3271   -7880.3419   -7755.7024    1672.0684    29869.509     28.15339 
    7960    1120.8346   -7880.5381   -7755.5073    1159.8714    29863.819    28.223757 
    7970    1126.8583   -7881.0148   -7755.3121    955.10162    29860.582    28.294201 
    7980    1123.0141   -7880.3903   -7755.1164    928.39755    29859.308    28.351237 
    7990    1110.4602   -7878.7943   -7754.9208    1172.7006    29859.935    28.390595 
    8000    1102.6874   -7877.7019   -7754.6955    1458.6719    29862.884    28.434078 
    8010    1130.1455   -7880.5023   -7754.4329    1468.0083     29868.64     28.50026 
    8020    1166.0476   -7884.2475   -7754.1731    1326.6931    29877.226    28.590766 
    8030    1179.8154   -7885.6004   -7753.9902    1306.4373    29888.386    28.696979 
    8040    1170.8856   -7884.5366   -7753.9225    1216.9518    29902.023    28.802623 
    8050    1160.9811   -7883.4669   -7753.9577    868.43873    29917.893    28.901679 
    8060    1176.5613    -7885.335   -7754.0878    392.51403    29935.318    28.992211 
    8070    1184.6771   -7886.5002   -7754.3476    -218.2729    29953.319     29.07559 
    8080    1164.9814   -7884.7107   -7754.7553   -517.80606    29970.773    29.156047 
    8090    1151.0101   -7883.6904   -7755.2935   -402.14595    29987.101    29.235211 
    8100    1141.5529    -7883.289   -7755.9471   -254.21632     30002.47    29.315212 
    8110    1111.9658   -7880.7253   -7756.6838   -153.01077    30017.173    29.396085 
    8120    1085.5521   -7878.5362   -7757.4412     -50.9314    30031.427    29.475708 
    8130    1066.6331     -7877.13   -7758.1455   -161.42591    30045.419     29.54857 
    8140    1091.1382   -7880.5094   -7758.7913    -834.6676    30058.853     29.60698 
    8150    1098.0633   -7881.8881   -7759.3975    -1279.749    30070.528    29.653958 
    8160    1083.9478   -7880.8899   -7759.9739   -1236.9418    30079.622    29.696573 
    8170    1067.8662   -7879.6128   -7760.4907   -1132.4341    30086.153    29.735832 
    8180    1051.8092   -7878.2408   -7760.9099   -823.65751    30090.392    29.771742 
    8190    1059.2229   -7879.3686   -7761.2107   -844.79359    30092.865    29.815183 
    8200    1078.1536   -7881.6655   -7761.3958    -935.7691    30093.617    29.867406 
    8210    1105.9763   -7884.8775   -7761.5042   -813.08137    30092.523    29.911837 
    8220     1103.027   -7884.6072   -7761.5629    -450.7464    30089.857    29.941041 
    8230     1101.891   -7884.5021   -7761.5845   -292.34698    30086.277    29.962848 
    8240    1113.3811   -7885.7663    -7761.567   -484.47067     30082.09    29.983959 
    8250    1100.7634   -7884.3056   -7761.5138   -495.63474     30077.02    30.012835 
    8260    1072.8192   -7881.0641   -7761.3895   -504.00046        30071    30.047335 
    8270    1063.1816   -7879.7218   -7761.1223   -597.34655    30064.012      30.0791 
    8280    1055.5447   -7878.3831   -7760.6355   -623.74409    30055.905     30.10689 
    8290    1078.7162   -7880.2175   -7759.8851   -640.61953    30046.621    30.132569 
    8300    1105.7583   -7882.2117   -7758.8627   -528.02494    30036.161    30.153441 
    8310    1119.0388   -7882.4804   -7757.6499   -202.03415    30024.788     30.16162 
    8320    1136.5235   -7883.1241   -7756.3432    141.84809    30013.125    30.154665 
    8330    1171.6117   -7885.7515   -7755.0564    368.38979    30001.841    30.145873 
    8340    1176.9235   -7885.2066    -7753.919    593.44924    29991.412    30.141047 
    8350    1157.9313    -7882.168    -7752.999    845.19797    29982.278    30.140097 
    8360    1146.9206   -7880.1991   -7752.2584    965.84375    29974.903    30.144829 
    8370    1147.5232   -7879.6611   -7751.6532    1032.5555     29969.52    30.157409 
    8380    1142.2766   -7878.5748   -7751.1522    1111.0424    29966.267    30.183754 
    8390    1169.3793   -7881.1924   -7750.7464    912.24492    29965.214    30.219038 
    8400    1177.8501   -7881.8377   -7750.4467    894.77836    29966.038    30.263067 
    8410    1190.8165   -7883.1283   -7750.2909    749.57601    29968.638    30.322565 
    8420    1200.4445   -7884.2011   -7750.2897    465.09872    29972.685    30.400246 
    8430    1184.2484   -7882.5518   -7750.4471    414.89011    29977.663     30.48951 
    8440    1177.0447   -7882.0386   -7750.7375    393.79842    29983.437    30.585522 
    8450    1168.9602   -7881.5359   -7751.1366     421.6144     29989.95    30.678095 
    8460    1169.1005   -7882.0556   -7751.6406    555.90922    29997.278    30.753811 
    8470    1166.5366   -7882.3645   -7752.2356    588.38231     30005.64    30.811416 
[...]
   22890    1143.8899   -7882.3616    -7754.759   -1143.5801    30857.796     102.3639 
   22900    1159.3917   -7883.7924   -7754.4605   -1029.0484    30854.794    102.38504 
   22910    1183.0833   -7886.2282   -7754.2535   -966.05505    30849.593    102.38313 
   22920    1200.1407   -7888.0645    -7754.187   -1122.9106    30842.264     102.3719 
   22930    1179.1886   -7885.8275   -7754.2872   -1185.4646    30832.529    102.34891 
   22940    1139.7356   -7881.6488   -7754.5096   -1299.4433    30820.217    102.31639 
   22950    1112.1406   -7878.8264   -7754.7655   -1409.2965    30805.092    102.28005 
   22960    1111.2226   -7878.9627   -7755.0041   -1258.4966    30786.955    102.23814 
   22970    1124.6891   -7880.6806   -7755.2198   -870.54709     30766.11     102.2035 
   22980    1129.8043   -7881.4733   -7755.4419    -537.8285    30743.293    102.18638 
   22990    1123.5286   -7881.0068   -7755.6755   -372.05457    30719.172    102.18065 
   23000    1123.2402   -7881.2239   -7755.9247    -458.5367    30694.071    102.18294 
   23010    1108.2668   -7879.8017   -7756.1729   -530.05802    30667.877    102.20466 
   23020    1109.8232   -7880.2144   -7756.4119   -394.33099    30640.449    102.24619 
   23030    1109.9772   -7880.4409   -7756.6213    9.5991277    30612.096    102.28349 
   23040    1131.1921   -7883.0086   -7756.8224    21.240121    30583.493    102.28046 
   23050    1147.7505   -7885.0891   -7757.0558    1.2790575    30554.779    102.22863 
   23060    1154.2969    -7886.146   -7757.3825   -94.031954    30525.887    102.16226 
   23070    1160.7744   -7887.3184   -7757.8323   -104.19812     30496.67    102.13057 
   23080    1175.5615   -7889.6019   -7758.4662   -312.14977    30467.024     102.1507 
   23090    1156.3864   -7888.3128   -7759.3162   -393.76707    30436.596    102.20953 
   23100    1141.0695   -7887.6518   -7760.3637   -471.61674    30405.194    102.28059 
   23110    1129.5838   -7887.5729   -7761.5661   -448.28826    30372.676    102.35815 
   23120    1104.0604   -7885.9835   -7762.8239   -321.20402    30339.116    102.43701 
   23130    1085.1355   -7885.0787   -7764.0302   -463.20452    30304.699    102.49537 
   23140    1068.0351   -7884.2345   -7765.0936   -686.65708    30269.166    102.54241 
   23150    1070.9636   -7885.4277   -7765.9601   -811.16872    30232.105    102.59731 
   23160     1085.412   -7887.7256   -7766.6462   -606.60994    30193.323    102.64662 
   23170    1075.5162   -7887.1263   -7767.1508   -328.29528    30153.189    102.67966 
   23180    1079.6303   -7887.9275   -7767.4932   -58.877331    30112.258    102.69318 
   23190    1101.3344   -7890.5617   -7767.7062    320.53045    30071.124    102.68144 
   23200    1112.5663    -7891.944   -7767.8355    667.32291    30030.547    102.65716 
   23210    1103.9231   -7891.0607   -7767.9165    902.86963    29991.201    102.64657 
   23220    1085.6764   -7889.0502   -7767.9414    1052.2463    29953.569    102.66879 
   23230    1072.3914   -7887.5024   -7767.8755    1310.4828    29918.018     102.7215 
   23240    1081.0476   -7888.3037   -7767.7112    1542.7961    29885.038    102.78158 
   23250    1090.1891   -7889.0739   -7767.4617    1633.1259    29855.072    102.83598 
   23260    1116.7519   -7891.7372   -7767.1618    1424.4645    29828.263    102.88422 
   23270     1141.952   -7894.2503   -7766.8638    1368.9657    29804.287    102.93138 
   23280    1130.5144   -7892.7136    -7766.603    1679.6481    29783.066    102.97137 
   23290    1125.9105   -7891.9752   -7766.3781    1759.3041    29765.081    103.00249 
   23300     1122.703   -7891.4082    -7766.169    1657.1014    29750.513    103.04339 
   23310    1104.9943   -7889.2184   -7765.9546    1440.3939    29739.184    103.10393 
   23320     1112.989   -7889.8761   -7765.7205    897.01871    29730.625    103.18067 
   23330    1121.9482   -7890.6099   -7765.4549    697.82047    29723.903    103.27741 
   23340    1146.9703   -7893.1396   -7765.1934    706.21322    29718.567    103.39947 
   23350    1167.4604   -7895.2124   -7764.9805    821.54281     29714.64    103.54403 
   23360    1163.2232   -7894.6207   -7764.8614    936.26346    29712.334    103.70047 
   23370    1148.6287   -7892.9726   -7764.8413    1113.1057    29711.891    103.86523 
   23380    1108.3894   -7888.5042   -7764.8617    1230.4498    29713.633    104.04281 
   23390    1100.3903   -7887.6205   -7764.8703    968.78427    29717.742    104.22133 
   23400    1067.6892   -7883.9069   -7764.8046    889.82947    29723.838    104.38145 
   23410    1063.7889   -7883.2985   -7764.6313     605.8381    29731.679    104.51294 
   23420    1072.2006   -7883.9206    -7764.315    245.93528     29740.75    104.62487 
   23430    1061.2164   -7882.2244   -7763.8441     297.6344    29750.442    104.73909 
   23440    1070.5688   -7882.6166    -7763.193    542.94636    29760.836    104.87551 
   23450    1099.8632   -7885.0314     -7762.34     670.2204    29772.349    105.03243 
   23460     1111.637   -7885.3156   -7761.3108    683.98561    29785.258    105.20027 
   23470    1119.5709   -7885.0573   -7760.1675    662.09883    29799.625    105.37399 
   23480    1142.4472   -7886.4055   -7758.9638    656.36321    29815.418    105.54673 
   23490    1164.5282   -7887.6885   -7757.7837    446.85923    29832.581     105.7102 
   23500     1158.208   -7885.9431   -7756.7432    466.82863     29850.81    105.85914 
   23510    1155.7746   -7884.8188   -7755.8904    521.94542    29870.107    105.98305 
   23520    1167.3399   -7885.4526   -7755.2341    508.29605    29890.594    106.08019 
   23530     1159.299    -7884.097   -7754.7755    358.29109    29912.241    106.16668 
   23540    1146.3532   -7882.3654    -7754.488    79.424085    29934.756    106.26674 
   23550     1142.058   -7881.7073    -7754.309   -126.07663    29957.627    106.37978 
   23560    1143.5887   -7881.7774   -7754.2083   -100.06356    29980.461    106.50264 
   23570    1150.2049   -7882.4676   -7754.1606   -83.395292    30003.273    106.64876 
   23580    1169.2719   -7884.6052   -7754.1712   -214.37433    30026.076    106.82435 
   23590    1171.2225   -7884.9193   -7754.2677   -294.46329    30048.637    107.01321 
   23600    1147.4202   -7882.4401   -7754.4436   -314.43162    30070.783    107.17647 
   23610    1136.9537   -7881.4778   -7754.6489    -587.7385    30092.403    107.29631 
   23620    1132.1721   -7881.1405    -7754.845   -685.84059     30113.03    107.39355 
   23630    1121.9368    -7880.184   -7755.0303   -622.12605    30132.418    107.50794 
   23640    1115.3415   -7879.6134   -7755.1954   -375.03001      30150.7    107.65126 
   23650      1114.49   -7879.6555   -7755.3325   -137.62127    30168.338    107.80633 
   23660    1121.3922   -7880.5338   -7755.4409   -176.28874    30185.746    107.94942 
   23670    1129.8924   -7881.5889   -7755.5477   -254.36822    30202.901    108.04778 
   23680    1135.1485   -7882.2894   -7755.6619   -386.58315    30219.637    108.09747 
   23690    1129.3961   -7881.7753   -7755.7895   -449.95673    30235.702    108.13365 
   23700     1123.956   -7881.3113   -7755.9323   -333.19955    30250.979    108.19355 
   23710    1102.0448   -7878.9854   -7756.0507   -122.03346    30265.693    108.27527 
   23720    1113.6857    -7880.366   -7756.1327   -143.53013    30280.206    108.34562 
   23730    1127.1427   -7881.9244     -7756.19   -172.75736     30294.52    108.40037 
   23740    1144.1876    -7883.893   -7756.2571   -118.56675    30308.602    108.45375 
   23750    1177.3738   -7887.7299   -7756.3921   -271.98928    30322.475    108.50897 
   23760    1190.0907   -7889.4116   -7756.6551   -645.18647    30335.835    108.58085 
   23770    1190.4572   -7889.8998   -7757.1025    -1057.614    30347.939    108.65013 
   23780    1160.1702   -7887.1317    -7757.713   -1217.0516    30358.017    108.70358 
   23790    1150.0482   -7886.7361   -7758.4465   -1509.8486    30365.628    108.74682 
   23800    1138.1871   -7886.2296   -7759.2632   -1438.8636    30370.241    108.79866 
   23810    1127.4242   -7885.8905   -7760.1246   -1141.4946    30371.955    108.87355 
   23820    1119.5113   -7885.8732     -7760.99   -871.53632    30371.328    108.96361 
   23830    1116.9082   -7886.4247   -7761.8319    -898.1406    30368.855    109.05786 
   23840    1102.6039   -7885.6174   -7762.6203   -1209.8086    30364.457    109.14531 
   23850    1095.8192   -7885.5589   -7763.3187   -1435.4869    30357.553    109.21973 
   23860    1104.6086   -7887.1411   -7763.9203   -1674.7557    30347.641     109.2794 
   23870    1112.1876   -7888.5181   -7764.4519   -1933.1392    30334.184    109.31205 
   23880    1088.4821    -7886.323   -7764.9012   -1799.7212     30316.74    109.30981 
   23890    1076.7869   -7885.3625   -7765.2453   -1772.4704    30295.424    109.28329 
   23900    1055.3703   -7883.1831   -7765.4549   -1445.8716    30270.349    109.24725 
   23910    1038.4467   -7881.3399   -7765.4996   -799.96876    30242.162    109.21236 
   23920    1064.2503   -7884.0937    -7765.375   -536.29723    30212.032    109.17469 
   23930    1085.3599   -7886.1936   -7765.1201    -191.3159    30180.595    109.13221 
   23940    1101.8342   -7887.6991   -7764.7878    291.23714     30148.54    109.08792 
   23950    1116.2134   -7888.9314   -7764.4161    738.48546     30116.83    109.03987 
   23960    1111.5621   -7888.0378   -7764.0414    988.43036    30086.343    108.99148 
   23970    1120.0223   -7888.6114   -7763.6712    926.82696    30057.578    108.94564 
   23980    1139.1046   -7890.3981   -7763.3293    717.37744     30030.42     108.8959 
   23990    1121.3068   -7888.1174   -7763.0339    735.72217    30004.535    108.82791 
   24000    1108.9566   -7886.4749   -7762.7691    645.06001    29979.889    108.74547 
   24010    1112.8884    -7886.646   -7762.5016    610.44242    29956.327    108.68784 
   24020    1112.3004   -7886.3091   -7762.2304     854.7779    29933.823     108.6856 
   24030    1121.8607   -7887.1077   -7761.9625     837.1777    29912.767    108.72235 
   24040    1141.1595   -7889.0117   -7761.7137    415.76429     29893.11    108.77665 
   24050    1147.9349   -7889.5706   -7761.5168    76.388102    29874.107    108.84529 
   24060    1168.1081   -7891.7087   -7761.4044   -120.80444    29855.061    108.90759 
   24070    1160.8592   -7890.8839   -7761.3883    225.88823    29835.665    108.94503 
   24080    1130.1232   -7887.5026   -7761.4357    655.72738    29816.521    108.96604 
   24090    1137.3188    -7888.375   -7761.5054    510.82299    29798.342    108.97534 
   24100    1141.3005   -7888.9008    -7761.587    308.91734    29780.964    108.98561 
   24110    1123.3634   -7887.0033   -7761.6904    280.45562    29764.011    109.01702 
   24120    1084.9963   -7882.7909   -7761.7579    572.11608    29747.467    109.06718 
   24130    1089.2292   -7883.2547   -7761.7495    802.84201    29731.828    109.11288 
   24140    1122.2905   -7886.8666   -7761.6734    945.94603    29717.574       109.15 
   24150    1139.4761   -7888.7057   -7761.5954     946.8075    29704.968    109.18546 
   24160    1120.9428   -7886.5892   -7761.5463    840.20014    29694.047    109.21407 
   24170      1108.04   -7885.1005    -7761.497    611.72908    29684.604    109.22488 
   24180    1125.6227   -7886.9963   -7761.4314    455.36689     29676.23    109.21888 
   24190    1122.6029    -7886.588     -7761.36    736.19452    29668.716     109.2012 
   24200    1124.1498   -7886.6979   -7761.2973    999.68143    29662.519    109.17999 
   24210    1121.2899   -7886.3171   -7761.2355    1325.5099    29658.214    109.16965 
   24220    1107.5999   -7884.7259   -7761.1715    1648.8259    29656.453    109.16309 
   24230    1093.0734   -7883.0073   -7761.0733    1893.6357    29657.924    109.13911 
   24240    1101.4961   -7883.8075    -7760.934    1847.6125     29663.13    109.11152 
   24250    1097.0122   -7883.1221   -7760.7487    1858.7806    29672.155    109.12192 
   24260    1094.1477   -7882.5837   -7760.5298    1682.7209    29685.034    109.18528 
   24270     1101.285   -7883.1178   -7760.2678    1417.1247     29701.53    109.28856 
   24280    1106.4018    -7883.398   -7759.9772    1267.7995    29721.228    109.40783 
   24290      1095.51   -7881.8674   -7759.6616    1374.7201    29743.955    109.51643 
   24300    1130.2898   -7885.4172   -7759.3317    1056.8164    29769.871    109.58869 
   24310    1146.9686   -7886.9602   -7759.0142    772.33271    29798.535    109.63681 
   24320    1141.2098   -7886.0692   -7758.7655    753.03469    29829.481    109.69258 
   24330    1128.4925   -7884.4533   -7758.5683    817.36882    29862.701    109.78882 
   24340    1136.6598   -7885.2082   -7758.4121    953.55101     29898.39    109.94201 
   24350    1145.9742   -7886.1338   -7758.2986    999.08754    29936.865    110.12315 
   24360    1143.7818   -7885.8276    -7758.237    825.27345     29978.27    110.29964 
   24370    1135.6723   -7884.9044   -7758.2184    488.36956     30022.33     110.4488 
   24380     1122.443   -7883.4257   -7758.2155     221.7077     30068.48    110.56285 
   24390    1121.7632    -7883.339   -7758.2046    58.482946    30116.216    110.63317 
   24400    1133.7975   -7884.6694   -7758.1925    13.165728    30165.233    110.66407 
   24410    1131.6896   -7884.4382   -7758.1965   0.14575237    30215.431    110.69181 
   24420     1121.272   -7883.2952   -7758.2157   0.29086597    30266.794    110.74401 
   24430     1127.505   -7884.0002   -7758.2253   -134.46215    30319.296    110.83231 
   24440    1146.9368   -7886.1819   -7758.2394   -520.36647    30372.629    110.96033 
   24450    1140.6027   -7885.5034   -7758.2675   -1056.7802        30426    111.10137 
   24460    1130.4984    -7884.417   -7758.3082   -1641.8232    30478.276    111.23067 
   24470    1122.9293   -7883.5954    -7758.331   -2366.4429    30528.129    111.33338 
   24480     1109.771   -7882.1271   -7758.3305   -2545.4844    30574.111    111.41335 
   24490    1088.8879   -7879.7597   -7758.2926   -2291.6914    30615.713    111.49033 
   24500    1096.3058   -7880.4925    -7758.198   -2409.1636    30653.174    111.58455 
   24510     1101.742   -7880.9431   -7758.0421   -2611.4735    30686.234    111.70974 
   24520    1105.6593   -7881.1947   -7757.8567   -2539.6653    30714.416    111.86045 
   24530     1108.999   -7881.3692   -7757.6587   -2222.7065    30737.769     112.0208 
   24540    1122.6054   -7882.6934   -7757.4651   -2132.7199    30756.764    112.16636 
   24550    1112.3861    -7881.369   -7757.2807   -1973.3723    30771.577    112.28357 
   24560    1103.7513   -7880.2315   -7757.1064   -1563.9477    30782.503    112.36875 
   24570    1110.0474   -7880.7443   -7756.9169   -1320.7399    30790.259      112.419 
   24580     1114.019   -7880.9916   -7756.7211   -1282.0555      30795.3    112.43491 
   24590    1122.3613   -7881.7299   -7756.5288   -1203.7363    30797.716    112.41951 
   24600    1137.1477   -7883.2104   -7756.3599   -1077.9984    30797.622     112.3913 
   24610    1129.1136   -7882.1836   -7756.2293   -1002.3835    30795.213    112.37495 
   24620    1118.4875   -7880.8955   -7756.1266    -978.8601    30790.623     112.3868 
   24630     1108.488   -7879.6786   -7756.0251   -1110.5408    30783.831     112.4365 
   24640    1102.0305   -7878.8309   -7755.8977   -1153.0333    30774.575    112.50962 
   24650    1119.7569   -7880.6617   -7755.7512   -1280.2903    30762.642    112.58146 
   24660    1126.0409   -7881.2142   -7755.6027    -1137.171    30747.811    112.63471 
   24670    1132.5226   -7881.8056    -7755.471   -802.36118    30730.301    112.65917 
   24680    1152.1224   -7883.8912   -7755.3702   -575.02899    30710.713    112.65375 
   24690    1150.5442    -7883.675   -7755.3301   -246.89085    30689.541    112.62895 
   24700    1125.6066   -7880.8931     -7755.33    52.232345     30667.42    112.59953 
   24710    1134.3013   -7881.8779   -7755.3449   -69.130205    30644.883    112.56777 
   24720    1144.1784   -7883.0162   -7755.3813   -299.37794    30621.719    112.53254 
   24730    1135.4394   -7882.1135   -7755.4535   -359.03771     30597.49    112.50445 
   24740    1134.0165   -7882.0559   -7755.5547   -512.65666    30571.994     112.4967 
   24750     1116.489   -7880.2087   -7755.6627   -666.52071    30544.907    112.50184 
   24760    1103.2041    -7878.824   -7755.7599   -770.48816    30515.867    112.49864 
   24770    1092.2861   -7877.6522    -7755.806    -793.8575    30484.645    112.47284 
   24780     1104.282   -7878.9766   -7755.7923   -893.36758    30451.124    112.41727 
   24790    1120.6597   -7880.7433    -7755.732   -892.19318    30415.096    112.34464 
   24800    1131.8356   -7881.9173   -7755.6594   -545.01532    30376.578    112.27682 
   24810     1134.495    -7882.145   -7755.5904   -198.28088    30336.196    112.21781 
   24820    1128.5631   -7881.4206   -7755.5276   -84.271269    30294.635    112.17732 
   24830    1139.2903   -7882.5691   -7755.4795   -50.124996    30252.127    112.16847 
   24840    1144.8257   -7883.1513   -7755.4443    305.69659    30208.834    112.17105 
   24850    1167.1495   -7885.6555   -7755.4582    521.62073    30165.384    112.16168 
   24860    1170.3878   -7886.1186   -7755.5601    907.92215    30122.322    112.14357 
   24870    1165.3957   -7885.7889   -7755.7873     1336.449    30080.427    112.12139 
   24880    1164.0937   -7886.0165   -7756.1601    1564.7013     30040.57    112.09302 
   24890    1173.3699   -7887.6305   -7756.7393    1584.7657    30003.237    112.06571 
   24900    1164.8405    -7887.534   -7757.5943    1538.5752     29968.53    112.04755 
   24910    1136.5449   -7885.5045   -7758.7212    1405.6736    29936.413    112.03788 
   24920    1119.2086   -7884.9128   -7760.0634    1159.0911    29906.634    112.03046 
   24930    1104.9011   -7884.7544    -7761.501    1050.2626     29878.79    112.01928 
   24940    1110.3459   -7886.7866   -7762.9258    867.38821    29852.617    111.99181 
   24950    1094.3215    -7886.294   -7764.2208    632.05442    29827.785    111.96041 
   24960    1078.8198    -7885.638   -7765.2941     366.7339    29803.853    111.93674 
   24970    1071.6871   -7885.6638   -7766.1155     294.8541    29780.336    111.91294 
   24980     1068.283   -7885.8538   -7766.6852    488.80215    29757.129    111.90091 
   24990    1093.4722   -7889.0467   -7767.0683    532.18612    29734.516    111.91531 
   25000    1107.4279   -7890.8651   -7767.3299    668.02933    29712.662    111.94218 
Loop time of 15833.8 on 16 procs for 20000 steps with 864 atoms

Performance: 0.109 ns/day, 219.915 hours/ns, 1.263 timesteps/s
98.0% CPU use with 16 MPI tasks x 1 OpenMP threads

MPI task timing breakdown:
Section |  min time  |  avg time  |  max time  |%varavg| %total
---------------------------------------------------------------
Pair    | 14499      | 14927      | 15412      | 218.6 | 94.27
Bond    | 0.0023918  | 0.00803    | 0.014149   |   4.4 |  0.00
Neigh   | 0.21222    | 0.22509    | 0.23812    |   1.5 |  0.00
Comm    | 369.46     | 777.94     | 1182.9     | 863.4 |  4.91
Output  | 1.2262     | 1.2519     | 1.6296     |   8.7 |  0.01
Modify  | 50.674     | 127.3      | 209.45     | 478.5 |  0.80
Other   |            | 0.1044     |            |       |  0.00

Nlocal:        54.0000 ave          63 max          44 min
Histogram: 1 0 1 2 3 4 2 1 0 2
Nghost:        407.938 ave         424 max         387 min
Histogram: 1 2 0 2 1 1 4 1 1 3
Neighs:         0.00000 ave           0 max           0 min
Histogram: 16 0 0 0 0 0 0 0 0 0
FullNghs:      1529.75 ave        1891 max        1133 min
Histogram: 1 0 2 1 3 3 3 1 0 2

Total # of neighbors = 24476
Ave neighs/atom = 28.328704
Ave special neighs/atom = 0.0000000
Neighbor list builds = 2000
Dangerous builds = 2000
unfix   3
                
Total wall time: 5:30:21
