LAMMPS (29 Sep 2021 - Update 3)
OMP_NUM_THREADS environment is not set. Defaulting to 1 thread. (src/comm.cpp:98)
  using 1 OpenMP thread(s) per MPI task
units	metal
atom_style	full

read_data	mixed.data
Reading data file ...
  orthogonal box = (0.0000000 0.0000000 0.0000000) to (15.866041 15.852264 77.123517)
  2 by 1 by 8 MPI processor grid
  reading atoms ...
  864 atoms
Finding 1-2 1-3 1-4 neighbors ...
  special bond factors lj:    0        0        0       
  special bond factors coul:  0        0        0       
     0 = max # of 1-2 neighbors
     0 = max # of 1-3 neighbors
     0 = max # of 1-4 neighbors
     1 = max # of special neighbors
  special bonds CPU = 0.001 seconds
  read_data CPU = 0.023 seconds

pair_style	quip
pair_coeff	* * /ocean/projects/cts180021p/wuziqi/clease/mint-PD/PhaseDiagram-Clease/Liquid/GAP_potential/gap_LiKCl.xml "Potential xml_label=GAP_2021_9_27_0_1_17_37_618" 17 19 3

neighbor	0.3 bin
neigh_modify	delay 10

timestep	0.001
compute	msd all msd
thermo_style	custom step temp pe etotal press vol c_msd[4]
thermo	10
dump	1 all custom 10 xyz-mix.dump type id x y z
dump	2 all custom 10 force-mix.dump type id fx fy fz

fix     1 all nve
run     2000
Neighbor list info ...
  update every 1 steps, delay 10 steps, check yes
  max neighbors/atom: 2000, page size: 100000
  master list distance cutoff = 6.22
  ghost atom cutoff = 6.22
  binsize = 3.11, bins = 6 6 25
  1 neighbor lists, perpetual/occasional/extra = 1 0 0
  (1) pair quip, perpetual
      attributes: full, newton on
      pair build: full/bin
      stencil: full/bin/3d
      bin: standard
Per MPI rank memory allocation (min/avg/max) = 8.889 | 8.906 | 8.916 Mbytes
Step Temp PotEng TotEng Press Volume c_msd[4] 
       0            0   -8878.9247   -8878.9247   -11708.833    19397.542            0 
      10    108.80145    -8891.078    -8878.941   -13519.947    19397.542 0.00037756483 
      20    255.99871   -8907.5101   -8878.9531   -15433.074    19397.542  0.004636157 
      30    288.56988   -8911.1358   -8878.9454   -14361.122    19397.542  0.015943357 
      40    289.10053   -8911.1934   -8878.9438   -12512.136    19397.542  0.032214776 
      50    304.26419   -8912.8839   -8878.9428   -12190.839    19397.542  0.050010352 
      60    330.67215   -8915.8353   -8878.9484    -12512.07    19397.542  0.067008738 
      70    319.75479    -8914.613   -8878.9439   -12021.554    19397.542  0.084636553 
      80     311.7171   -8913.7131   -8878.9406   -11242.174    19397.542   0.10335882 
      90    344.97025   -8917.4272   -8878.9452   -11377.847    19397.542   0.12285636 
     100    369.47631   -8920.1625   -8878.9469   -11460.202    19397.542   0.14373353 
     110    369.44402   -8920.1551   -8878.9431   -10737.559    19397.542   0.16547428 
     120    381.04496   -8921.4513   -8878.9452   -10101.733    19397.542   0.18697263 
     130    387.01967   -8922.1174   -8878.9447    -9853.945    19397.542   0.20927079 
     140    390.46305   -8922.5002   -8878.9434   -10154.629    19397.542   0.23274757 
     150    401.17379   -8923.6966   -8878.9451   -10935.233    19397.542   0.25686229 
     160    405.60936   -8924.1923    -8878.946   -11533.497    19397.542   0.28181117 
     170    403.00983   -8923.9035   -8878.9472   -11313.905    19397.542   0.30705714 
     180    385.93942   -8921.9971   -8878.9449   -10395.352    19397.542   0.33328028 
     190    384.55592   -8921.8429   -8878.9451   -9702.4152    19397.542    0.3615061 
     200    397.89654   -8923.3338   -8878.9478   -9508.3306    19397.542   0.39138176 
     210    403.74057   -8923.9838    -8878.946   -9854.3562    19397.542   0.41959204 
     220    419.25516   -8925.7147   -8878.9462   -11120.155    19397.542   0.44190424 
     230    437.64496   -8927.7678   -8878.9478   -12741.979    19397.542   0.46059951 
     240    436.22365   -8927.6096   -8878.9482   -13773.271    19397.542   0.48016288 
     250     417.4692   -8925.5154   -8878.9461   -14188.084    19397.542   0.50051511 
     260    403.07006   -8923.9093   -8878.9463   -14452.366    19397.542   0.51954432 
     270    390.78955   -8922.5388   -8878.9456   -14869.677    19397.542   0.53842732 
     280    390.91941   -8922.5534   -8878.9458   -15753.944    19397.542   0.55789535 
     290    394.53071   -8922.9579   -8878.9474   -16866.473    19397.542   0.57907365 
     300    385.46639   -8921.9447   -8878.9454   -17556.881    19397.542   0.60332818 
     310    388.07639   -8922.2367   -8878.9462   -18102.563    19397.542   0.62988844 
     320    395.22438   -8923.0346   -8878.9467   -18476.923    19397.542   0.65693198 
     330     392.7193   -8922.7554    -8878.947   -18634.964    19397.542   0.68294096 
     340    387.36548    -8922.158   -8878.9468   -18928.114    19397.542    0.7064488 
     350    383.70376     -8921.75   -8878.9472   -19255.038    19397.542   0.72809194 
     360    380.16279   -8921.3526   -8878.9449   -19764.905    19397.542   0.74756432 
     370    391.53302   -8922.6238   -8878.9477   -20433.416    19397.542   0.76345228 
     380    397.18733   -8923.2529   -8878.9461   -20848.612    19397.542   0.77799013 
     390    399.66038   -8923.5327     -8878.95   -20962.623    19397.542    0.7926845 
     400    376.74168   -8920.9703   -8878.9442   -20594.318    19397.542   0.80792627 
     410    384.01385   -8921.7861   -8878.9488   -20827.442    19397.542   0.82090067 
     420    385.42711   -8921.9432   -8878.9482    -21282.02    19397.542   0.83289421 
     430    375.82197   -8920.8694   -8878.9459   -21749.833    19397.542   0.84474346 
     440    377.40301   -8921.0478   -8878.9479   -22280.425    19397.542   0.85654263 
     450    373.39276   -8920.5987   -8878.9462   -22358.315    19397.542   0.87121917 
     460    380.55104   -8921.3982   -8878.9472   -22127.174    19397.542   0.88923864 
     470    389.08947   -8922.3531   -8878.9496   -21563.629    19397.542   0.90990069 
     480    377.88025   -8921.0989   -8878.9458   -20903.426    19397.542   0.93174236 
     490    381.74982   -8921.5319   -8878.9472   -20620.986    19397.542   0.94962563 
     500    394.14575   -8922.9156   -8878.9481   -20486.731    19397.542   0.96309083 
     510    397.04898   -8923.2389   -8878.9475   -19997.235    19397.542   0.97658553 
     520    399.82595   -8923.5491    -8878.948   -19535.484    19397.542   0.99241283 
     530    404.27704   -8924.0446   -8878.9469    -19115.46    19397.542    1.0084992 
     540     411.3451   -8924.8362     -8878.95   -18661.849    19397.542    1.0226069 
     550    394.09812   -8922.9082    -8878.946   -17821.103    19397.542    1.0374953 
     560    386.81962   -8922.0987   -8878.9484   -17144.624    19397.542    1.0531551 
     570    383.04436   -8921.6747   -8878.9456   -16711.306    19397.542    1.0690946 
     580    397.22268   -8923.2587   -8878.9479   -16702.646    19397.542    1.0866029 
     590    408.28446   -8924.4929   -8878.9481   -16623.668    19397.542    1.1074158 
     600    405.74477   -8924.2095   -8878.9481   -16314.107    19397.542    1.1302748 
     610    396.02325   -8923.1251   -8878.9481    -15628.66    19397.542    1.1519665 
     620     395.3341   -8923.0495   -8878.9494   -15051.831    19397.542    1.1694303 
     630    394.27036   -8922.9318   -8878.9503   -14512.907    19397.542    1.1828305 
     640    383.62649   -8921.7417   -8878.9476   -14067.198    19397.542    1.1945401 
     650    385.14193   -8921.9112    -8878.948   -13839.463    19397.542    1.2068311 
     660     395.4713   -8923.0651   -8878.9497   -13755.797    19397.542    1.2218962 
     670     396.9724   -8923.2312   -8878.9483   -13681.042    19397.542    1.2411479 
     680    400.76426   -8923.6562   -8878.9504   -13529.754    19397.542    1.2649597 
     690    395.59922   -8923.0782   -8878.9485   -13202.541    19397.542    1.2892968 
     700    393.08673   -8922.7984    -8878.949    -12863.36    19397.542    1.3108518 
     710    392.46287   -8922.7295   -8878.9497   -12776.215    19397.542    1.3306314 
     720    392.69983   -8922.7538   -8878.9476   -12960.731    19397.542    1.3493343 
     730    407.70626    -8924.431   -8878.9507   -13617.908    19397.542    1.3652761 
     740    418.60831   -8925.6458   -8878.9494   -14182.857    19397.542    1.3758719 
     750    427.35697   -8926.6222   -8878.9499   -14411.802    19397.542    1.3817369 
     760    426.23067   -8926.4956    -8878.949   -14240.457    19397.542    1.3874968 
     770    425.68986   -8926.4355   -8878.9492   -14121.142    19397.542    1.3956033 
     780    424.34662   -8926.2861   -8878.9496   -14199.692    19397.542    1.4059418 
     790    416.51178   -8925.4118   -8878.9493   -14348.579    19397.542    1.4172819 
     800    406.85203   -8924.3329   -8878.9479   -14603.708    19397.542    1.4293586 
     810     409.3926   -8924.6176   -8878.9492   -14954.594    19397.542    1.4437899 
     820    411.52943   -8924.8561   -8878.9494   -15227.004    19397.542     1.461671 
     830    414.76526   -8925.2161   -8878.9484   -15348.177    19397.542    1.4822988 
     840    425.47297   -8926.4126   -8878.9505   -15497.059    19397.542    1.5061095 
     850    424.10961   -8926.2589   -8878.9489    -15461.05    19397.542    1.5339208 
     860    425.84903   -8926.4531    -8878.949   -15668.017    19397.542    1.5638872 
     870    428.28778   -8926.7265   -8878.9503   -15975.954    19397.542    1.5941429 
     880    422.32484   -8926.0597   -8878.9487   -16050.391    19397.542    1.6254163 
     890    420.59441   -8925.8681   -8878.9502   -16210.368    19397.542    1.6579317 
     900    412.78354   -8924.9958   -8878.9492   -16186.118    19397.542    1.6917804 
     910    408.88335   -8924.5603   -8878.9488   -16398.021    19397.542    1.7253326 
     920    415.25495   -8925.2723     -8878.95   -16866.947    19397.542    1.7566903 
     930    417.79568   -8925.5555   -8878.9498    -17314.63    19397.542    1.7866576 
     940    414.15774   -8925.1502   -8878.9503   -17816.895    19397.542    1.8175362 
     950    410.14766   -8924.7024   -8878.9498   -18397.528    19397.542     1.850555 
     960    412.13206   -8924.9218   -8878.9478   -18864.984    19397.542    1.8837942 
     970    427.90234   -8926.6835   -8878.9503   -19165.223    19397.542    1.9147148 
     980    431.11936    -8927.043    -8878.951    -19021.79    19397.542    1.9457246 
     990    415.64991   -8925.3145   -8878.9482   -18606.767    19397.542    1.9812421 
    1000    413.92707   -8925.1233   -8878.9491   -18513.829    19397.542    2.0201072 
    1010    417.45395   -8925.5177     -8878.95   -18558.895    19397.542    2.0574524 
    1020    414.66605   -8925.2045   -8878.9479    -18540.13    19397.542    2.0909232 
    1030    425.32279   -8926.3944    -8878.949   -18804.281    19397.542    2.1200334 
    1040    437.39791    -8927.743   -8878.9506    -19174.44    19397.542    2.1461906 
    1050    432.04437    -8927.144   -8878.9488   -19430.964    19397.542    2.1724444 
    1060    423.10855   -8926.1471   -8878.9487    -19670.97    19397.542     2.200914 
    1070    416.30819    -8925.389   -8878.9492   -19752.208    19397.542     2.232564 
    1080    410.19009   -8924.7058   -8878.9485   -19471.789    19397.542    2.2656179 
    1090    411.43188   -8924.8454   -8878.9496   -18927.842    19397.542    2.2963807 
    1100    413.58688   -8925.0849   -8878.9486   -18540.027    19397.542    2.3238349 
    1110    425.71996   -8926.4384   -8878.9486   -18620.545    19397.542    2.3474636 
    1120    443.01807   -8928.3709   -8878.9516   -18883.908    19397.542    2.3679172 
    1130    437.42575   -8927.7454   -8878.9499   -18767.479    19397.542    2.3882255 
    1140    422.48256   -8926.0773   -8878.9487   -18476.767    19397.542    2.4089666 
    1150    414.07643   -8925.1393   -8878.9485   -18282.798    19397.542    2.4284943 
    1160    416.01416   -8925.3558   -8878.9488   -18291.885    19397.542     2.446853 
    1170    419.66714   -8925.7642   -8878.9497   -18446.717    19397.542    2.4644412 
    1180    424.21945   -8926.2706   -8878.9483    -18449.36    19397.542    2.4806419 
    1190    440.19598   -8928.0557   -8878.9512   -18343.062    19397.542    2.4945267 
    1200    440.38662   -8928.0752   -8878.9494   -17908.359    19397.542     2.507228 
    1210    440.40752   -8928.0774   -8878.9493   -17509.071    19397.542    2.5196997 
    1220    445.29341   -8928.6232   -8878.9501   -17433.008    19397.542    2.5321836 
    1230    444.31811   -8928.5138   -8878.9494   -17404.254    19397.542    2.5456285 
    1240    444.21916   -8928.5028   -8878.9495   -17567.287    19397.542    2.5617678 
    1250    447.95301   -8928.9197   -8878.9499   -17998.888    19397.542    2.5810013 
    1260    447.05056     -8928.82   -8878.9509   -18113.089    19397.542    2.6027835 
    1270    433.76409   -8927.3363   -8878.9493   -17647.746    19397.542    2.6267411 
    1280    426.49744   -8926.5249   -8878.9485   -17215.404    19397.542    2.6522665 
    1290    438.76938   -8927.8949   -8878.9495   -17215.004    19397.542     2.679609 
    1300     454.8554   -8929.6913   -8878.9515   -17412.029    19397.542    2.7096074 
    1310    451.74789   -8929.3435   -8878.9504   -17515.094    19397.542    2.7419599 
    1320    440.03726   -8928.0361   -8878.9493    -17582.78    19397.542    2.7732724 
    1330    433.51813    -8927.309   -8878.9494   -17627.787    19397.542    2.7991894 
    1340    430.66307   -8926.9918   -8878.9507   -17406.648    19397.542    2.8192899 
    1350    422.06307   -8926.0311   -8878.9493    -17030.68    19397.542    2.8369839 
    1360    423.68793   -8926.2128   -8878.9498   -16872.793    19397.542    2.8564726 
    1370    432.23825   -8927.1671   -8878.9502   -16941.721    19397.542    2.8798412 
    1380    440.61409   -8928.1014   -8878.9502   -17160.411    19397.542     2.904214 
    1390    442.38617   -8928.3005   -8878.9516   -17288.698    19397.542    2.9262872 
    1400    432.82497   -8927.2303    -8878.948   -17111.965    19397.542    2.9462931 
    1410    443.20721   -8928.3906   -8878.9502   -17379.272    19397.542    2.9656964 
    1420     452.8574   -8929.4692   -8878.9523   -17581.285    19397.542    2.9866189 
    1430    440.33742   -8928.0699   -8878.9496    -17078.18    19397.542    3.0107644 
    1440    434.09539   -8927.3728   -8878.9488   -16559.852    19397.542    3.0372306 
    1450    446.59797     -8928.77   -8878.9513   -16458.202    19397.542    3.0634597 
    1460    455.16552   -8929.7248   -8878.9504   -16509.198    19397.542    3.0883146 
    1470     460.5176    -8930.323   -8878.9516   -16639.411    19397.542    3.1117695 
    1480    455.78137    -8929.792   -8878.9489   -16643.605    19397.542    3.1332037 
    1490    461.66937   -8930.4506   -8878.9507   -16632.215    19397.542     3.152331 
    1500    464.06114   -8930.7172   -8878.9504   -16316.323    19397.542    3.1724877 
    1510    464.69685   -8930.7871   -8878.9495    -16148.36    19397.542    3.1960897 
    1520    471.22077   -8931.5167   -8878.9514   -16208.841    19397.542    3.2225013 
    1530    471.47122   -8931.5429   -8878.9496   -16597.639    19397.542    3.2496574 
    1540    479.04999   -8932.3903   -8878.9516   -17340.131    19397.542    3.2743864 
    1550    475.60674   -8932.0055   -8878.9508   -17872.304    19397.542    3.2971604 
    1560    465.76065   -8930.9064   -8878.9501   -17822.552    19397.542    3.3221892 
    1570    460.06152    -8930.271   -8878.9505    -17442.47    19397.542    3.3512444 
    1580    459.40082   -8930.1971   -8878.9502   -16941.542    19397.542    3.3813068 
    1590    460.93829   -8930.3707   -8878.9523   -16350.345    19397.542    3.4083736 
    1600     448.2201   -8928.9504   -8878.9508   -15603.607    19397.542    3.4316634 
    1610     443.9941   -8928.4772    -8878.949    -15275.86    19397.542    3.4534934 
    1620    463.51034   -8930.6582    -8878.953   -15593.563    19397.542    3.4766509 
    1630    474.66564   -8931.9011   -8878.9514   -16126.405    19397.542    3.5034224 
    1640    481.75389   -8932.6918   -8878.9514   -16542.721    19397.542    3.5333548 
    1650    479.37897   -8932.4264    -8878.951   -16541.998    19397.542    3.5648125 
    1660    474.97776   -8931.9337   -8878.9492   -16284.173    19397.542    3.5952514 
    1670    481.99089    -8932.719   -8878.9522   -15990.017    19397.542    3.6221631 
    1680      474.213   -8931.8498   -8878.9506   -15457.654    19397.542    3.6454728 
    1690    462.13083    -8930.502   -8878.9506   -14731.806    19397.542     3.665115 
    1700    458.63731   -8930.1109   -8878.9492   -14389.905    19397.542    3.6801149 
    1710    473.55465   -8931.7771   -8878.9513   -14547.389    19397.542    3.6915037 
    1720    483.59001    -8932.897   -8878.9518   -15013.331    19397.542    3.7021408 
    1730    481.36556   -8932.6472   -8878.9501   -15645.926    19397.542    3.7142289 
    1740    484.05437   -8932.9483   -8878.9513   -16474.749    19397.542    3.7288904 
    1750    482.16869   -8932.7383   -8878.9516   -16722.219    19397.542     3.747119 
    1760    470.26243   -8931.4082   -8878.9497   -16475.495    19397.542    3.7689551 
    1770    472.75321   -8931.6852   -8878.9489   -16480.419    19397.542    3.7930019 
    1780    495.80424   -8934.2609   -8878.9532   -16801.632    19397.542     3.817904 
    1790    498.29189   -8934.5359   -8878.9506   -17030.699    19397.542    3.8432118 
    1800    497.22115   -8934.4163   -8878.9505   -17233.599    19397.542    3.8677962 
    1810    498.13201   -8934.5195   -8878.9521   -17294.852    19397.542    3.8916583 
    1820    485.17576   -8933.0725   -8878.9504   -16971.976    19397.542    3.9157232 
    1830    479.44537   -8932.4337   -8878.9509   -16627.564    19397.542    3.9391486 
    1840    478.88134   -8932.3712   -8878.9513   -16398.764    19397.542    3.9621449 
    1850     478.6415   -8932.3435   -8878.9503   -16406.049    19397.542    3.9857213 
    1860     486.1211   -8933.1789   -8878.9514   -16705.544    19397.542    4.0086822 
    1870    492.79459   -8933.9238   -8878.9519   -17221.514    19397.542    4.0297149 
    1880    491.36379   -8933.7648   -8878.9525   -18037.772    19397.542    4.0499732 
    1890    475.70955   -8932.0166   -8878.9505   -18910.363    19397.542    4.0709101 
    1900    464.92588   -8930.8141   -8878.9509   -19819.272    19397.542    4.0929306 
    1910    455.59431   -8929.7727   -8878.9505   -20229.987    19397.542    4.1160109 
    1920    452.87672   -8929.4684   -8878.9493   -20242.611    19397.542    4.1384657 
    1930    467.97161   -8931.1539   -8878.9509   -20369.825    19397.542    4.1581839 
    1940    485.34862   -8933.0926   -8878.9512   -20514.477    19397.542    4.1756159 
    1950    495.78252   -8934.2578   -8878.9525   -20428.878    19397.542    4.1936772 
    1960    500.11778   -8934.7389     -8878.95   -20591.437    19397.542    4.2145461 
    1970    511.99695   -8936.0681    -8878.954   -21344.221    19397.542    4.2363696 
    1980    499.23942   -8934.6421   -8878.9512   -21654.428    19397.542    4.2540635 
    1990    487.56603   -8933.3391   -8878.9504    -21588.86    19397.542    4.2657075 
    2000    485.14508   -8933.0707    -8878.952   -21134.343    19397.542    4.2770463 
Loop time of 1326.97 on 16 procs for 2000 steps with 864 atoms

Performance: 0.130 ns/day, 184.302 hours/ns, 1.507 timesteps/s
97.7% CPU use with 16 MPI tasks x 1 OpenMP threads

MPI task timing breakdown:
Section |  min time  |  avg time  |  max time  |%varavg| %total
---------------------------------------------------------------
Pair    | 265.84     | 663.02     | 1326.1     |1147.3 | 49.96
Bond    | 0.00016665 | 0.00044537 | 0.00091934 |   0.0 |  0.00
Neigh   | 0.014105   | 0.029852   | 0.063168   |   7.9 |  0.00
Comm    | 0.66703    | 576.86     | 941.73     |1178.7 | 43.47
Output  | 0.12923    | 27.759     | 56.644     | 419.4 |  2.09
Modify  | 0.0078998  | 0.0091467  | 0.010494   |   0.8 |  0.00
Other   |            | 59.3       |            |       |  4.47

Nlocal:        54.0000 ave          90 max          29 min
Histogram: 3 3 0 2 3 1 0 2 0 2
Nghost:        493.750 ave         643 max         369 min
Histogram: 3 1 0 3 2 2 1 2 0 2
Neighs:         0.00000 ave           0 max           0 min
Histogram: 16 0 0 0 0 0 0 0 0 0
FullNghs:      2706.00 ave        5944 max         890 min
Histogram: 6 0 2 1 3 0 2 0 0 2

Total # of neighbors = 43296
Ave neighs/atom = 50.111111
Ave special neighs/atom = 0.0000000
Neighbor list builds = 200
Dangerous builds = 200
unfix   1

velocity    all create 1087.5 1312343 dist gaussian
fix     2 all npt temp 1087.5 1087.5 $(100.0*dt) aniso 0.0 1.01325 $(1000.0*dt)
fix     2 all npt temp 1087.5 1087.5 0.10000000000000000555 aniso 0.0 1.01325 $(1000.0*dt)
fix     2 all npt temp 1087.5 1087.5 0.10000000000000000555 aniso 0.0 1.01325 1
run     3000
Per MPI rank memory allocation (min/avg/max) = 8.894 | 8.909 | 8.920 Mbytes
Step Temp PotEng TotEng Press Volume c_msd[4] 
    2000       1087.5   -8933.0707   -8811.7584   -17434.356    19397.542    4.2770463 
    2010     927.1703    -8915.241   -8811.8138   -13608.145    19390.225     4.307482 
    2020    715.42096   -8891.5315   -8811.7252    -8049.045    19371.218    4.3384509 
    2030    734.51029   -8893.1666   -8811.2309   -7573.8012     19344.84    4.3555057 
    2040    780.85743   -8897.3704   -8810.2646    -8226.311     19311.92    4.3585863 
    2050     798.9653    -8898.244   -8809.1182   -7757.4568    19272.138    4.3538885 
    2060    811.82551   -8898.6176   -8808.0573   -6468.5386    19226.043    4.3443096 
    2070    825.55249   -8899.2248   -8807.1332   -5140.9831    19174.902     4.332682 
    2080    832.87557   -8899.1588   -8806.2503   -3557.7396    19120.155     4.320771 
    2090    821.03507   -8896.8683   -8805.2806   -1312.0774    19063.492    4.3071958 
    2100    817.44575   -8895.2785   -8804.0912    1294.4196    19007.076     4.290543 
    2110    829.92622     -8895.18   -8802.6005    3775.2879    18953.307    4.2707365 
    2120    867.00095   -8897.5418   -8800.8266    5921.6447    18904.375    4.2493137 
    2130    886.38701   -8897.7349   -8798.8571    8068.0557    18862.061    4.2297291 
    2140    871.30377   -8894.0333   -8796.8381    9917.0244     18827.93    4.2123099 
    2150     882.4171   -8893.2805   -8794.8455    10198.544    18803.103    4.1953607 
    2160    912.97187   -8894.7098   -8792.8664    9277.1673    18787.415    4.1788569 
    2170     933.9311   -8895.1117   -8790.9303    8632.3856    18779.842    4.1635016 
    2180    920.91025   -8891.8102   -8789.0813    8260.0081    18779.504     4.150524 
    2190    883.14677   -8885.8425   -8787.3262    7650.4099    18785.753    4.1411418 
    2200     915.2781   -8887.6733   -8785.5726    5596.9105    18797.731    4.1367691 
    2210    944.05467   -8889.0645   -8783.7537    4168.8588    18813.733    4.1366838 
    2220    926.54952   -8885.3439   -8781.9859    4145.6745    18832.526    4.1398727 
    2230    943.03869   -8885.4783   -8780.2809    3746.9515    18853.844    4.1470155 
    2240    935.60868   -8882.9488   -8778.5803     3780.319     18877.39    4.1602924 
    2250    944.29726   -8882.2307    -8776.893    3262.8012     18903.03     4.174934 
    2260    945.90476   -8880.6834   -8775.1663     2755.029    18930.329    4.1843595 
    2270    950.09008   -8879.4152   -8773.4312    2559.2017    18958.872    4.1906637 
    2280    985.85821   -8881.6317   -8771.6577    1916.0633     18988.41    4.1977396 
    2290    990.79762   -8880.3965   -8769.8716    1566.3565    19018.471    4.2092774 
    2300    990.90928   -8878.6655   -8768.1281    956.83798    19048.693    4.2246494 
    2310     983.4933   -8876.1135   -8766.4034    104.97155    19078.617    4.2395662 
    2320    997.16805   -8875.9027   -8764.6671    -1186.133    19107.549    4.2480766 
    2330     1020.961   -8876.8012   -8762.9115   -1918.3787    19134.561    4.2493437 
    2340    1029.7444   -8876.0552   -8761.1857   -1917.3857    19159.159    4.2471858 
    2350    1063.6848   -8878.1637   -8759.5081    -2661.108    19181.318    4.2420476 
    2360    1057.5582   -8875.8606   -8757.8884   -3014.4821    19200.607    4.2369359 
    2370    1018.5208    -8870.001   -8756.3834   -2701.4499    19216.842    4.2332155 
    2380    1027.3362   -8869.5184   -8754.9175   -2939.1284    19230.282    4.2291688 
    2390    999.71799   -8864.9698   -8753.4497   -2652.9143    19240.939     4.224782 
    2400    989.78662   -8862.4064   -8751.9942   -2800.7776    19249.043    4.2208616 
    2410    1038.4899   -8866.3066   -8750.4614   -3448.0362    19254.523    4.2204603 
    2420    1063.0709   -8867.4836   -8748.8964   -3007.8601    19257.029    4.2244263 
    2430    1076.8784   -8867.5093   -8747.3818   -2431.6027    19256.945    4.2311147 
    2440    1096.4091   -8868.2356   -8745.9295   -2800.3672    19254.752    4.2384651 
    2450    1108.3509   -8868.2083   -8744.5701   -3665.9752    19250.211    4.2458294 
    2460    1113.3546   -8867.5229   -8743.3265   -3589.8779     19242.76    4.2568608 
    2470    1116.3442   -8866.7327   -8742.2028    -2857.674     19232.49    4.2736209 
    2480    1118.4929   -8865.9701   -8741.2006   -2211.9483    19220.004     4.293182 
    2490    1107.4098   -8863.8375   -8740.3042   -1151.6534    19205.963    4.3095046 
    2500    1103.9697    -8862.631   -8739.4815   -747.53337    19191.172    4.3176619 
    2510    1119.9257   -8863.6278   -8738.6984   -608.25408     19176.06    4.3223276 
    2520    1145.0108   -8865.7155   -8737.9878   -735.35901    19160.705    4.3273928 
    2530    1123.8467    -8862.759   -8737.3922    270.08426    19145.122    4.3336152 
    2540    1084.9419   -8857.9045   -8736.8776    1845.5251    19130.123    4.3412739 
    2550    1104.1298    -8859.545   -8736.3777    2042.7203    19116.833    4.3524511 
    2560    1161.2961   -8865.4631   -8735.9188    737.12605    19105.372    4.3683313 
    2570    1190.2067   -8868.3985   -8735.6291   -43.730096    19094.748    4.3896196 
    2580    1155.4301   -8864.4639    -8735.574    734.93241    19084.383    4.4152697 
    2590    1154.9923   -8864.5389   -8735.6977    149.84618     19074.69     4.437878 
    2600    1200.9869   -8870.0008   -8736.0289   -1638.5195    19065.172    4.4553842 
    2610    1170.7393   -8867.2123   -8736.6146   -1344.5287    19054.602    4.4734238 
    2620    1128.4112   -8863.2476   -8737.3716   -282.42912    19043.132    4.4924804 
    2630    1135.3204    -8864.869   -8738.2223   -182.44457    19031.525    4.5141229 
    2640    1145.1381   -8866.9103   -8739.1684    220.92424     19019.98    4.5371411 
    2650    1161.3451   -8869.7763   -8740.2265    666.25937    19008.797    4.5565852 
    2660    1159.8451   -8870.7973   -8741.4149    1424.9347    18998.341    4.5764347 
    2670    1109.0071   -8866.3522   -8742.6408    2907.8236    18989.278    4.5991152 
    2680    1095.7762   -8866.0769   -8743.8415    3837.1277    18982.696    4.6249081 
    2690    1086.9359   -8866.2692   -8745.0198    5171.4654    18979.426     4.652325 
    2700    1064.1737   -8864.8342    -8746.124     6031.441    18980.458    4.6723838 
    2710    1099.7793   -8869.8601   -8747.1781    5541.9113    18986.377     4.676887 
    2720    1123.7346   -8873.5865   -8748.2323    4481.9766    18996.794    4.6707693 
    2730    1126.0177   -8874.9347   -8749.3257    3001.5375    19010.793    4.6619446 
    2740    1108.9044   -8874.1536   -8750.4537    1663.9337     19027.15    4.6538801 
    2750    1065.5878   -8870.4021   -8751.5341    882.44521     19044.76    4.6490022 
    2760    1055.0745   -8870.2011    -8752.506   -253.47112    19062.907    4.6472425 
    2770    1079.7662   -8873.8445    -8753.395   -1982.4702      19080.6    4.6463251 
    2780     1083.892    -8875.141   -8754.2312   -3021.0361    19096.498    4.6443301 
    2790    1081.6375   -8875.6913    -8755.033   -3889.0497    19109.691    4.6373326 
    2800    1078.6458    -8876.132   -8755.8074   -3969.0397    19119.545    4.6255284 
    2810    1078.7809   -8876.8937    -8756.554   -3559.8938    19126.002    4.6147778 
    2820     1080.938    -8877.836   -8757.2558   -3124.1722    19129.401    4.6105873 
    2830    1091.0149   -8879.6282   -8757.9238   -2828.5603     19130.13    4.6159376 
    2840    1106.2156   -8881.9996   -8758.5995   -2734.8734    19128.453    4.6340612 
    2850    1110.2995   -8883.1834   -8759.3278   -2106.7998    19124.533    4.6668702 
    2860    1087.7467   -8881.4235   -8760.0837   -864.30186    19118.944    4.7085396 
    2870    1085.5484   -8881.9096   -8760.8151   -659.37228     19112.62    4.7459156 
    2880    1122.3044   -8886.7663   -8761.5715   -1891.3038      19105.7    4.7723435 
    2890    1137.5096   -8889.3123   -8762.4214   -2762.3227    19097.313    4.7956173 
    2900    1112.0844   -8887.4198   -8763.3651   -2766.0369    19086.781    4.8259028 
    2910    1098.3349   -8886.8465   -8764.3256   -2063.1015    19074.121    4.8661497 
    2920    1091.6002   -8887.0448   -8765.2751   -1285.6006    19059.894    4.9143303 
    2930    1074.3147   -8886.0054    -8766.164    -565.3528     19044.78    4.9636983 
    2940     1088.412   -8888.4185   -8767.0045   -285.38086    19029.352    5.0058206 
    2950    1094.1507   -8889.8708   -8767.8166   -414.42247    19013.835    5.0373537 
    2960    1077.6738   -8888.8194   -8768.6033   -563.91941    18998.164    5.0640031 
    2970    1079.0752   -8889.7211   -8769.3486   -1323.7477    18982.184    5.0947961 
    2980    1103.0474   -8893.1506    -8770.104   -2320.4972    18965.282    5.1349216 
    2990    1117.9375   -8895.6152   -8770.9076    -2479.012    18946.734    5.1813996 
    3000      1116.79   -8896.3471   -8771.7675   -2250.2563    18926.429    5.2283186 
    3010    1119.7734   -8897.5948   -8772.6824   -2715.8516    18904.473    5.2708839 
    3020    1119.6191   -8898.5532    -8773.658   -3329.7508    18880.582     5.306904 
    3030    1116.0372   -8899.1809   -8774.6853   -3829.4718    18854.326    5.3372912 
    3040    1122.7012   -8901.0014   -8775.7624   -4506.6113    18825.336    5.3677739 
    3050    1125.3173   -8902.4407   -8776.9098   -4883.7005    18793.158    5.4019101 
    3060    1110.2738   -8901.9318   -8778.0791   -4534.2399    18757.616    5.4375195 
    3070    1127.1435   -8905.0147   -8779.2801   -4252.4662    18719.025    5.4690831 
    3080    1143.9787   -8908.1135    -8780.501   -3542.1156    18677.799    5.5022481 
    3090    1181.8758   -8913.6681   -8781.8281   -3453.9863    18634.552    5.5419951 
    3100     1171.947   -8914.0473   -8783.3148   -3677.1335    18589.513     5.585314 
    3110    1136.7467   -8911.6563   -8784.8505   -3914.7613    18542.676    5.6290132 
    3120    1144.8259   -8914.0883   -8786.3812   -5073.1246    18493.919     5.671037 
    3130     1187.463   -8920.4378   -8787.9745   -5346.8361    18442.629    5.7111442 
    3140    1165.7659   -8919.6541   -8789.6111    -3439.137     18388.93    5.7517641 
    3150    1154.8056   -8920.0098   -8791.1895   -1335.8868    18334.372    5.7983144 
    3160    1167.7385    -8922.976    -8792.713    174.51188    18280.674    5.8552242 
    3170    1174.4966   -8925.2152   -8794.1983    1824.2618    18229.132    5.9179703 
    3180    1157.1583   -8924.7095   -8795.6268    3546.7202    18180.989    5.9729615 
    3190    1172.1193   -8927.7647    -8797.013    3640.5933     18137.33    6.0130404 
    3200    1203.4789   -8932.7287   -8798.4789    2332.0976    18098.105    6.0450367 
    3210    1190.6568    -8932.866   -8800.0465    1885.5885    18062.336    6.0747282 
    3220    1183.0041   -8933.6132   -8801.6474    1413.4178    18029.464    6.1012833 
    3230    1197.5395   -8936.9003    -8803.313   -26.396866    17998.938    6.1235483 
    3240    1170.6609   -8935.5993   -8805.0104   -120.97748    17969.782    6.1439624 
    3250    1150.5771    -8934.982   -8806.6334    617.55591    17941.822    6.1636057 
    3260    1192.4843   -8941.2529   -8808.2295   -356.00222    17915.362     6.181317 
    3270    1231.0376    -8947.297   -8809.9729   -1496.8972    17889.735    6.2031961 
    3280    1184.4361   -8943.9268   -8811.8012   -1054.5746    17864.193    6.2352664 
    3290    1191.6458   -8946.5408   -8813.6109    -1574.143    17838.847     6.274486 
    3300    1205.2112   -8949.9363   -8815.4932   -2514.2798    17813.365     6.319524 
    3310    1153.2347   -8945.9878   -8817.3427   -2400.9712    17787.189    6.3680785 
    3320    1177.9327    -8950.509   -8819.1088   -2770.1558    17760.313    6.4143149 
    3330    1192.8875   -8953.9535   -8820.8851   -2731.2284    17732.583    6.4563219 
    3340    1159.7034   -8951.9922   -8822.6256   -1077.3986    17704.141    6.4990051 
    3350    1152.5201   -8952.8059   -8824.2405    999.66415    17676.135    6.5453692 
    3360    1179.9837   -8957.4573   -8825.8284    1202.9763    17649.815    6.5928489 
    3370    1183.2918   -8959.4587   -8827.4607     1918.484    17625.454    6.6410138 
    3380    1157.5084   -8958.1962   -8829.0744    2819.8604    17603.418    6.6919194 
    3390    1139.8283   -8957.7687   -8830.6192    3483.2864    17584.201    6.7445497 
    3400    1159.7144   -8961.4877   -8832.1199    3381.8969    17568.099     6.794261 
    3410    1195.0851   -8966.9993   -8833.6858    2777.4889    17554.952    6.8341428 
    3420     1191.532   -8968.2841   -8835.3669    2022.7253    17544.237    6.8677726 
    3430    1171.5321   -8967.7989   -8837.1127    1658.8504    17535.346     6.902757 
    3440    1152.8523   -8967.4136   -8838.8112    1082.5585    17527.881    6.9364927 
    3450    1177.3033   -8971.8129   -8840.4829    1049.6538    17521.451    6.9665676 
    3460     1204.272   -8976.5532   -8842.2148    2366.7803    17516.065    6.9945552 
    3470    1158.8954   -8973.2216   -8843.9451    4694.0039    17512.591      7.02501 
    3480    1122.8766   -8970.8537   -8845.5952    5446.2651     17512.36    7.0571711 
    3490    1098.8854   -8969.6602   -8847.0779    5184.1331    17515.905    7.0908771 
    3500    1119.1864   -8973.3056   -8848.4586    3322.8771    17522.864    7.1245559 
    3510    1150.2541   -8978.1189   -8849.8063    923.16724    17531.923     7.155532 
    3520    1189.5856   -8983.9219   -8851.2218   -1283.2404    17541.396    7.1837862 
    3530    1161.3305   -8982.2883   -8852.7401   -1980.2397    17549.799    7.2069514 
    3540    1123.9246   -8979.6177   -8854.2422   -1792.8356    17556.654    7.2222922 
    3550    1140.2216   -8982.8963   -8855.7028   -2816.9801    17561.988    7.2348545 
    3560    1133.3005   -8983.5868   -8857.1655   -3268.8417    17565.253     7.249549 
    3570    1092.5279   -8980.4203   -8858.5471   -3925.1987    17566.102    7.2665958 
    3580    1105.0212   -8983.1009   -8859.8342   -5000.2939    17564.155     7.286053 
    3590    1104.8992   -8984.3196   -8861.0664   -4613.0168    17558.843    7.3073976 
    3600    1102.2984   -8985.2208   -8862.2578   -2792.4606    17550.491    7.3268354 
    3610    1092.7086   -8985.2786   -8863.3853   -1284.9537    17540.335    7.3422442 
    3620    1116.8959   -8989.0738   -8864.4824    -1000.257    17529.414    7.3554657 
    3630    1098.5657   -8988.1207    -8865.574   -420.16636    17518.053    7.3712401 
    3640     1098.853   -8989.1949   -8866.6162    21.887595    17506.621      7.39367 
    3650    1125.7283   -8993.2338   -8867.6571     -194.336    17495.403    7.4198284 
    3660    1115.2274   -8993.1309   -8868.7256    348.74272     17484.34    7.4442456 
    3670    1092.3033   -8991.6322   -8869.7841    919.79409    17473.746    7.4651285 
    3680    1112.8541   -8994.9669   -8870.8264    608.01182     17463.95    7.4828437 
    3690     1142.384   -8999.3711   -8871.9364   -63.009107    17454.751    7.4977753 
    3700    1119.8925   -8998.0288   -8873.1031    394.12772    17445.782    7.5086954 
    3710    1117.2507   -8998.9288   -8874.2979    521.18373    17437.199    7.5142227 
    3720    1067.2002   -8994.4726   -8875.4249    966.54521     17429.18    7.5179143 
    3730    1079.2268   -8996.8456   -8876.4562    229.20161    17421.875    7.5184697 
    3740    1076.7488   -8997.5167   -8877.4037    711.24619    17414.936    7.5149254 
    3750    1047.4171   -8995.0677   -8878.2267    1810.0744    17408.674    7.5029444 
    3760    1089.5172   -9000.4965   -8878.9592    881.62571    17403.617    7.4822647 
    3770    1095.5365   -9001.8783   -8879.6696    2057.5281    17399.426     7.461696 
    3780    1062.2542   -8998.8428   -8880.3468    4116.8885    17396.783    7.4440166 
    3790    1082.4302   -9001.7111   -8880.9644    4456.0324    17396.945    7.4253347 
    3800    1115.1088   -9005.9749   -8881.5828    3129.6973     17400.11    7.4113347 
    3810    1135.2233   -9008.9258     -8882.29    1660.0773     17405.38    7.4094893 
    3820    1107.6506   -9006.6494   -8883.0893    1283.8559    17411.782    7.4146684 
    3830    1064.6872   -9002.6379   -8883.8704    1019.5168    17418.987    7.4172484 
    3840    1084.1968   -9005.5526   -8884.6088    -18.89081    17426.739    7.4121946 
    3850    1095.0125   -9007.4713    -8885.321    246.73885    17434.454    7.4073452 
    3860    1101.8569   -9008.9675   -8886.0537    1435.1368    17442.314    7.4100125 
    3870    1090.3285   -9008.4414   -8886.8136     1732.798    17451.023    7.4238359 
    3880    1059.8812   -9005.7699   -8887.5385    1509.6787    17460.807    7.4452135 
    3890    1069.5545   -9007.4944    -8888.184    669.81384    17471.498    7.4686339 
    3900    1095.1405   -9010.9475    -8888.783   -858.51274     17482.48    7.4901965 
    3910    1088.8855   -9010.8313   -8889.3645   -1436.9366    17492.821    7.5079369 
    3920    1086.7181   -9011.1702   -8889.9451   -2643.0367     17501.97    7.5194649 
    3930    1066.1547   -9009.4227   -8890.4915   -3222.3205    17509.195     7.529594 
    3940    1099.5489   -9013.6811   -8891.0248   -3445.1107    17514.082    7.5413068 
    3950     1100.682   -9014.3716   -8891.5888    -2749.114    17516.563    7.5533575 
    3960    1063.4119    -9010.787   -8892.1618   -1164.0031    17517.137    7.5662407 
    3970    1061.7381   -9011.1197   -8892.6812    70.749884    17516.872    7.5800888 
    3980    1087.9536   -9014.5217   -8893.1588    233.25147    17516.596    7.5964855 
    3990    1048.6657   -9010.5831   -8893.6029    439.38032    17516.499    7.6135528 
    4000    1012.6305   -9006.8921   -8893.9316    367.51838    17516.704    7.6260839 
    4010     1079.255   -9014.5483   -8894.1557   -710.75005    17517.103    7.6310039 
    4020    1090.4201   -9015.9853   -8894.3473   -706.68929    17517.076    7.6371656 
    4030    1046.8646   -9011.3113    -8894.532    667.41264    17516.647    7.6490429 
    4040    1034.3057   -9010.0191   -8894.6407    1556.5921     17516.65     7.664027 
    4050    1080.9973   -9015.2509    -8894.664    1036.7193    17517.651    7.6804973 
    4060    1104.2107   -9017.8463   -8894.6699    689.75187    17519.379    7.6983469 
    4070     1071.198   -9014.1778   -8894.6841    1336.4903     17521.63    7.7147187 
    4080    1087.8073   -9016.0319   -8894.6854    1213.2277    17524.746     7.726903 
    4090    1101.2102   -9017.5106    -8894.669    1641.8382    17528.751     7.733753 
    4100    1089.0564   -9016.1569   -8894.6711    2835.0473    17533.928     7.739209 
    4110    1074.4291   -9014.5301   -8894.6759    3395.5743    17541.039    7.7465891 
    4120    1094.2404   -9016.7385   -8894.6743    2409.5029    17550.411    7.7545989 
    4130    1106.0357   -9018.0632   -8894.6832    1661.0143    17561.443    7.7666958 
    4140    1091.4371   -9016.4768   -8894.7253    1615.9819    17573.631    7.7842988 
    4150    1099.1864   -9017.4125   -8894.7966    225.84695    17586.775    7.7997169 
    4160    1070.9878   -9014.3375   -8894.8672   -1715.2416    17599.952    7.8127036 
    4170    1049.3262   -9011.9464   -8894.8925   -3437.3521    17611.837    7.8258398 
    4180    1082.7721   -9015.6291   -8894.8443   -4306.6433    17621.258    7.8387275 
    4190    1101.6509   -9017.6576   -8894.7667   -4527.8276     17627.59    7.8490287 
    4200    1136.4732   -9021.5135   -8894.7382   -5361.7829     17630.59     7.857104 
    4210    1135.1097    -9021.453   -8894.8298   -5173.2962     17629.81    7.8617648 
    4220    1083.0786   -9015.8328   -8895.0137   -3861.8293    17625.431     7.863935 
    4230    1125.8385   -9020.8485   -8895.2595   -3957.7587    17618.205    7.8671887 
    4240    1151.1611   -9024.0244   -8895.6107   -3827.4453    17608.226     7.875895 
    4250    1140.6437   -9023.3523   -8896.1118   -2935.6074    17595.639    7.8929998 
    4260    1157.8926   -9025.9391   -8896.7744   -1505.0735    17581.055    7.9154509 
    4270    1132.2115   -9023.8578   -8897.5579    1047.1341    17565.583    7.9434449 
    4280    1128.3757   -9024.3042   -8898.4322    2772.1605    17550.917    7.9746038 
    4290    1121.5922   -9024.4714   -8899.3561    3590.5431    17538.286    8.0032505 
    4300    1099.7068   -9022.9974   -8900.3234    3479.1997    17528.206    8.0269594 
    4310     1066.667   -9020.2144   -8901.2261    3153.8782    17520.652    8.0437892 
    4320    1112.0175   -9026.1379   -8902.0906    2926.2271    17515.372    8.0571879 
    4330    1098.5642   -9025.4642   -8902.9177    4154.9209    17512.279    8.0767376 
    4340    1096.0997   -9025.9621   -8903.6905    5056.6831    17512.117    8.1016924 
    4350    1085.9199   -9025.5564   -8904.4204     4626.413    17515.435     8.127686 
    4360    1061.1318   -9023.4413   -8905.0705    3637.4017    17521.989    8.1498595 
    4370    1105.8497   -9029.0303   -8905.6711    1109.3904    17530.967    8.1639295 
    4380    1097.6681   -9028.6734   -8906.2268     -369.041    17540.732    8.1734382 
    4390      1077.13    -9026.902   -8906.7465   -232.73094    17550.281    8.1803894 
    4400    1092.7095   -9029.1323   -8907.2389   -161.66476    17559.612    8.1843525 
    4410    1093.5673   -9029.6964   -8907.7074    -271.8677    17568.776    8.1866187 
    4420     1117.707    -9032.857   -8908.1751   -1597.4606    17577.613    8.1887163 
    4430     1107.462   -9032.2072   -8908.6682   -2832.7733    17585.271    8.1948919 
    4440    1073.9572    -9028.956   -8909.1545    -3823.795    17590.878    8.2112527 
    4450    1093.3553   -9031.5881   -8909.6227   -5779.0405    17593.639    8.2372808 
    4460    1094.8599   -9032.2408   -8910.1075   -6398.7682    17592.362    8.2679962 
    4470    1086.1713   -9031.7653   -8910.6012   -6284.4359      17586.6    8.3003399 
    4480    1097.2888   -9033.5027   -8911.0985   -5660.6481    17576.456    8.3322424 
    4490    1083.9696   -9032.5227   -8911.6043   -4710.7696    17562.373    8.3648307 
    4500    1069.7513   -9031.4213   -8912.0889   -3393.1821    17545.089    8.3977125 
    4510    1063.3302   -9031.1242   -8912.5081   -2845.9456    17525.499    8.4289837 
    4520    1055.3572   -9030.5851   -8912.8584   -1869.2862    17504.129    8.4577729 
    4530    1066.1622    -9032.067    -8913.135   -1378.9205    17481.602    8.4832468 
    4540    1096.0318   -9035.6503   -8913.3863   -953.07074     17458.31    8.5130813 
    4550    1104.7253   -9036.8611   -8913.6273    715.99507    17434.669    8.5519214 
    4560    1127.5518   -9039.6897   -8913.9096    2143.9133    17411.756    8.5958836 
    4570    1118.2753    -9039.017   -8914.2717    3157.7184    17390.566    8.6418758 
    4580    1077.7934   -9034.9216   -8914.6921    4465.2815    17371.808    8.6859978 
    4590    1082.4646    -9035.867   -8915.1164    4755.8698    17356.255    8.7221487 
    4600    1138.7475   -9042.6466   -8915.6176    4368.0866    17344.115    8.7504714 
    4610    1132.1067   -9042.5414   -8916.2532    4726.9955    17335.156    8.7793265 
    4620    1128.1357   -9042.8655   -8917.0202    4916.4518    17329.541    8.8101428 
    4630    1118.9486   -9042.6997   -8917.8793    5097.8641    17327.411    8.8383694 
    4640    1105.1595   -9042.0556   -8918.7734    4993.9961    17328.819     8.859224 
    4650    1089.6639   -9041.2084   -8919.6548    4450.5585    17333.634    8.8689884 
    4660    1044.5712   -9036.9701   -8920.4466    4219.9209    17341.494    8.8685457 
    4670    1067.4821    -9040.189   -8921.1097    2890.4626    17352.131    8.8620299 
    4680    1094.5159   -9043.7729    -8921.678    743.67322    17364.618    8.8548399 
    4690    1086.8541   -9043.4195   -8922.1793   -701.40538    17377.548    8.8488423 
    4700    1093.7677    -9044.612   -8922.6006   -2464.8087    17389.824    8.8492469 
    4710    1119.0954   -9047.8154   -8922.9786   -3813.8707    17400.275    8.8674751 
    4720    1105.3021   -9046.6661    -8923.368   -3492.3693    17408.071    8.9062852 
    4730    1073.8849   -9043.5276   -8923.7341   -3092.7238    17413.351    8.9569232 
    4740    1096.6176   -9046.3832   -8924.0539   -4496.3947    17416.278    9.0083166 
    4750    1066.4023   -9043.2629   -8924.3041   -4713.9238    17416.138    9.0545568 
    4760    1052.8451   -9041.9332   -8924.4867   -3691.4469    17412.801    9.0928973 
    4770    1080.0657   -9045.0745   -8924.5915   -3205.3102    17406.922    9.1318231 
    4780    1106.1223   -9048.0649   -8924.6753   -3732.3469    17398.824    9.1769481 
    4790    1127.1711    -9050.559   -8924.8214   -4087.9065    17388.239    9.2280557 
    4800    1088.3925   -9046.4175   -8925.0056   -2948.0054     17375.05    9.2829274 
    4810    1067.9449   -9044.2868    -8925.156   -1409.3795    17360.028    9.3387156 
    4820    1094.5646   -9047.3624    -8925.262   -397.40482    17344.183    9.3891763 
    4830    1094.6679   -9047.4537   -8925.3418    1553.6401    17328.366     9.434308 
    4840    1093.1082   -9047.3654   -8925.4275    2123.4523    17313.741    9.4816356 
    4850     1099.562   -9048.1882   -8925.5304    1262.0084    17300.697    9.5335724 
    4860    1099.4933   -9048.3215   -8925.6713     666.9321    17288.725    9.5883463 
    4870    1066.0557   -9044.7325   -8925.8124    975.34693    17277.431    9.6431559 
    4880    1080.0225   -9046.4008   -8925.9226    667.89997    17266.921    9.6958279 
    4890    1080.5942   -9046.5597   -8926.0178    769.56273    17257.011    9.7446871 
    4900    1028.4863   -9040.7854   -8926.0563    1768.9376    17247.802     9.791092 
    4910    1062.3737   -9044.5269   -8926.0175    819.25206    17239.793    9.8335396 
    4920     1107.132   -9049.4259   -8925.9236   -677.39873    17232.435    9.8726598 
    4930    1101.0544   -9048.6865   -8925.8623   -896.00416    17224.795    9.9106521 
    4940    1094.7696   -9047.9664   -8925.8432   -668.08541    17216.637    9.9438844 
    4950    1081.7403   -9046.4984   -8925.8286    508.56998    17208.171    9.9682005 
    4960     1075.152   -9045.7149   -8925.7801    2660.9417    17200.215    9.9878924 
    4970    1094.4617   -9047.7861   -8925.6972    4988.6234     17194.17    10.007206 
    4980    1083.1442   -9046.4232   -8925.5968     6764.341    17191.552    10.020261 
    4990    1087.5982   -9046.8323   -8925.5091     6624.433    17193.439    10.020589 
    5000      1101.77   -9048.3387   -8925.4346    5648.6083    17199.786    10.016397 
Loop time of 1935.12 on 16 procs for 3000 steps with 864 atoms

Performance: 0.134 ns/day, 179.178 hours/ns, 1.550 timesteps/s
97.5% CPU use with 16 MPI tasks x 1 OpenMP threads

MPI task timing breakdown:
Section |  min time  |  avg time  |  max time  |%varavg| %total
---------------------------------------------------------------
Pair    | 409.28     | 1088.2     | 1917.6     |1559.7 | 56.24
Bond    | 0.00023103 | 0.00055185 | 0.0011125  |   0.0 |  0.00
Neigh   | 0.021267   | 0.053908   | 0.099553   |  11.2 |  0.00
Comm    | 5.2485     | 598.56     | 1396       |1742.0 | 30.93
Output  | 0.1848     | 0.18722    | 0.22225    |   2.1 |  0.01
Modify  | 2.3704     | 248.05     | 638.52     |1437.1 | 12.82
Other   |            | 0.01248    |            |       |  0.00

Nlocal:        54.0000 ave          84 max          28 min
Histogram: 5 1 0 1 1 0 3 1 2 2
Nghost:        543.500 ave         741 max         362 min
Histogram: 4 0 1 2 1 2 2 0 2 2
Neighs:         0.00000 ave           0 max           0 min
Histogram: 16 0 0 0 0 0 0 0 0 0
FullNghs:      3042.62 ave        5931 max         719 min
Histogram: 5 1 0 2 0 2 1 2 0 3

Total # of neighbors = 48682
Ave neighs/atom = 56.344907
Ave special neighs/atom = 0.0000000
Neighbor list builds = 300
Dangerous builds = 300
unfix   2

fix     3 all npt temp 1087.5 1087.5 $(100.0*dt) aniso 1.01325 1.01325 $(1000.0*dt)
fix     3 all npt temp 1087.5 1087.5 0.10000000000000000555 aniso 1.01325 1.01325 $(1000.0*dt)
fix     3 all npt temp 1087.5 1087.5 0.10000000000000000555 aniso 1.01325 1.01325 1
run     20000
Per MPI rank memory allocation (min/avg/max) = 8.895 | 8.912 | 8.921 Mbytes
Step Temp PotEng TotEng Press Volume c_msd[4] 
    5000      1101.77   -9048.3387   -8925.4346    5648.6083    17199.786    10.016397 
    5010    1106.3552   -9048.8783   -8925.4628    4638.0378    17201.617    10.031824 
    5020     1093.146   -9047.4668   -8925.5247    2874.2658    17206.594    10.040188 
    5030    1103.9906   -9048.7618   -8925.6099    179.88446    17213.488    10.038419 
    5040     1123.242   -9051.0295   -8925.7302   -1160.7853    17220.615     10.03076 
    5050    1121.1439   -9050.9978   -8925.9325   -1074.0878     17227.04    10.026896 
    5060     1091.221   -9047.9468   -8926.2194   -83.195358    17232.807    10.035012 
    5070    1073.8095   -9046.3212   -8926.5362    92.048344    17238.495    10.053467 
    5080    1084.6047   -9047.8387   -8926.8494   -1109.7785    17244.197    10.070078 
    5090    1092.0316    -9048.993   -8927.1752   -3111.2651    17249.121    10.072911 
    5100     1121.339   -9052.6512   -8927.5642   -3798.3778    17252.021    10.064527 
    5110    1119.7183   -9052.9814   -8928.0752   -1894.9678    17252.466    10.053974 
    5120    1081.2906   -9049.3085   -8928.6889    939.01923    17251.664    10.045232 
    5130    1078.6793   -9049.6847   -8929.3564    1857.8852    17251.386    10.035129 
    5140    1091.4367   -9051.8625   -8930.1111    1134.3454    17252.269    10.023481 
    5150     1058.019   -9048.9386    -8930.915    724.13748    17253.966    10.010321 
    5160    1072.4171   -9051.3793   -8931.7496   -614.69483    17256.097    9.9976122 
    5170    1093.4592   -9054.6073   -8932.6303   -1152.9506    17257.871    9.9903828 
    5180    1087.9033   -9054.9252    -8933.568   -164.62334    17258.966    9.9895661 
    5190      1086.66   -9055.7314   -8934.5129   -138.76241      17259.9     9.992499 
    5200    1105.6301   -9058.8046   -8935.4699   -1581.1701    17260.651    9.9981298 
    5210    1077.2286   -9056.5725    -8936.406   -2002.9908    17260.409    10.007741 
    5220    1064.6115   -9056.0042   -8937.2452   -2468.9796    17258.793    10.025616 
    5230    1062.9159   -9056.5162   -8937.9463   -2374.1701    17255.542    10.049911 
    5240    1073.0761    -9058.239   -8938.5357   -1933.9928    17250.645    10.074269 
    5250    1060.8045   -9057.3459   -8939.0115   -1261.3473    17244.411    10.099411 
    5260    1037.0843   -9055.0395   -8939.3512   -1314.5181    17237.254    10.124138 
    5270     1013.919   -9052.6285   -8939.5244   -1450.6738    17229.193     10.14643 
    5280    1030.4948   -9054.4969   -8939.5437    -672.7951    17220.197    10.165274 
    5290    1071.2499   -9058.9682   -8939.4686   -450.21164    17210.658    10.186269 
    5300    1080.1126   -9059.8588   -8939.3706    327.16354    17200.847    10.215627 
    5310       1056.8   -9057.1377     -8939.25     1512.336    17191.288    10.246565 
    5320    1069.6045    -9058.416      -8939.1    1318.3293    17182.629    10.274546 
    5330    1075.4113   -9058.8844   -8938.9206    1126.7381    17174.866    10.300382 
    5340    1080.2902   -9059.2543   -8938.7463    1671.3308    17167.903    10.324842 
    5350    1067.7817   -9057.6745   -8938.5619    2594.8702    17162.085    10.350516 
    5360    1075.5762   -9058.3605   -8938.3783    2514.6875    17157.944    10.380489 
    5370    1062.7074   -9056.7091   -8938.1625    2552.3741    17155.535    10.407915 
    5380    1090.1165   -9059.5385   -8937.9344      1653.51    17154.776    10.424101 
    5390    1090.2179   -9059.3309   -8937.7154    1530.7657    17155.185    10.431538 
    5400    1047.7455   -9054.3829   -8937.5053    2652.0238    17156.708    10.438735 
    5410    1038.3572   -9053.0834   -8937.2531    2855.2536     17159.98    10.449331 
    5420    1056.2494   -9054.7444   -8936.9182     991.4613    17165.076    10.469141 
    5430    1079.4679   -9056.9366   -8936.5203   -905.38534      17170.9    10.498134 
    5440    1080.5662    -9056.638   -8936.0992   -2377.6486    17176.158    10.526355 
    5450    1096.4426   -9057.9946   -8935.6848   -3169.0615    17179.857    10.545953 
    5460     1106.591   -9058.7579   -8935.3161   -2926.3632    17181.457    10.560998 
    5470    1084.4955   -9055.9716   -8934.9945   -770.22203    17181.213    10.575645 
    5480    1107.2586   -9058.2191   -8934.7028    15.682301    17180.341    10.589709 
    5490    1131.7519   -9060.7038   -8934.4552    249.09607    17179.432    10.606407 
    5500    1129.6263   -9060.3078   -8934.2963    2083.6969    17178.795    10.629619 
    5510     1128.178   -9060.0753   -8934.2254    3390.7042     17179.54    10.661933 
    5520    1123.0147   -9059.5265   -8934.2525    4089.4403    17182.609    10.701743 
    5530    1096.1298   -9056.6287   -8934.3537    3069.2278    17188.419    10.744658 
    5540     1107.475   -9058.0304   -8934.4899    15.541456    17196.298    10.791483 
    5550    1118.3082   -9059.4097   -8934.6607   -2955.3612    17204.272    10.839037 
    5560    1130.4801   -9061.0187    -8934.912   -4380.3522    17210.379    10.880166 
    5570    1153.3309   -9063.9777    -8935.322   -4455.6895    17213.589    10.911729 
    5580    1101.4232   -9058.7437   -8935.8783   -2539.5538    17213.914    10.937224 
    5590    1069.2835   -9055.7711   -8936.4909   -1575.2444    17212.449    10.968559 
    5600    1107.1861   -9060.6185   -8937.1103   -2119.1252     17209.81    11.018188 
    5610    1160.0335   -9067.2473   -8937.8438   -3382.6378    17205.642    11.084336 
    5620    1116.6571   -9063.3238    -8938.759   -3218.6508    17199.224    11.158559 
    5630    1075.6484   -9059.7387   -8939.7485   -1928.5854    17190.599    11.234447 
    5640    1085.9431   -9061.8697   -8940.7311    833.47167    17180.688    11.308455 
    5650    1101.5665   -9064.5697   -8941.6883    2949.4725    17171.244    11.380624 
    5660    1113.1623   -9066.8365   -8942.6615    2871.0515     17163.61    11.449581 
    5670    1125.7473   -9069.2035   -8943.6247    1896.2517    17157.834    11.509181 
    5680    1122.6881   -9069.7963   -8944.5588     1914.529    17153.374    11.558803 
    5690    1067.3319   -9064.4071   -8945.3447    3928.3558    17150.348    11.607502 
    5700    1081.6255   -9066.5861   -8945.9291    3391.0337    17149.836    11.663042 
    5710    1138.3321   -9073.3824   -8946.3997    827.71296    17151.511    11.727242 
    5720    1123.5792   -9072.1695   -8946.8326    518.46088    17153.928    11.792729 
    5730    1084.9195   -9068.2392   -8947.2148    60.945054    17156.683    11.850113 
    5740    1055.9464   -9065.2863   -8947.4939   -1324.3429    17159.457    11.900699 
    5750    1056.9596   -9065.5698   -8947.6644   -2280.3371    17161.407    11.943086 
    5760    1076.1442   -9067.8139   -8947.7684   -2632.3529    17161.862    11.976141 
    5770    1085.4316   -9068.9315     -8947.85   -2412.0947    17160.587    12.002388 
    5780    1089.8887   -9069.5205   -8947.9418   -2347.3006    17157.658    12.022424 
    5790    1053.8837   -9065.5876   -8948.0253   -2511.9993    17153.076    12.043135 
    5800    1052.5197   -9065.4679   -8948.0578   -3015.7275    17146.725    12.064707 
    5810    1082.2362   -9068.7472   -8948.0221   -4300.8399    17138.182    12.082005 
    5820    1089.6937   -9069.5177   -8947.9607   -3731.5912    17126.756    12.092456 
    5830    1080.6867   -9068.4421   -8947.8899   -2019.5561    17112.757     12.09759 
    5840    1072.2897    -9067.405   -8947.7894   -1.6955568    17097.281    12.097217 
    5850    1066.5118   -9066.5779   -8947.6069    1980.0999    17081.687    12.090263 
    5860    1127.7956   -9073.1907   -8947.3834    2373.5229    17067.208    12.078579 
    5870    1137.2331   -9074.0553   -8947.1952    3186.6995    17054.274    12.066702 
    5880    1120.9554   -9072.1611   -8947.1168    4378.4967    17043.454    12.055551 
    5890     1134.199   -9073.6797   -8947.1581    3932.8712    17035.405    12.044582 
    5900     1111.031    -9071.226   -8947.2888    3375.7553    17029.963    12.035784 
    5910    1107.3721   -9071.0032   -8947.4742    2919.6951    17026.762    12.030297 
    5920     1117.518   -9072.3795   -8947.7187    3270.2292    17025.554    12.030481 
    5930     1101.935   -9070.9581   -8948.0356    3607.7344    17026.544    12.034415 
    5940     1117.915   -9073.1465   -8948.4414    2634.4566     17029.89    12.031535 
    5950    1103.0051   -9071.9626   -8948.9207    1098.5076    17035.006    12.023878 
    5960    1115.9233   -9073.9598   -8949.4768    -609.1899    17040.886    12.022068 
    5970    1149.4558   -9078.3797   -8950.1562   -1911.1434    17046.428    12.030007 
    5980    1136.7103    -9077.799   -8950.9973   -1290.9384    17050.835    12.045441 
    5990    1087.2045    -9073.205   -8951.9257    978.31987    17054.509    12.064564 
    6000    1070.6165   -9072.2353   -8952.8064    1562.7397     17058.77    12.082888 
    6010    1127.5917   -9079.4548   -8953.6702    -752.6207    17063.931    12.101553 
    6020    1118.0351    -9079.275   -8954.5565   -1551.9382     17068.75    12.129053 
    6030    1088.0718   -9076.7826   -8955.4066   -660.00248    17072.652    12.165871 
    6040    1100.0841   -9078.9127   -8956.1966     882.4852    17076.169    12.203714 
    6050    1072.7861   -9076.5715   -8956.9006     2423.935    17080.337    12.232256 
    6060    1059.4994   -9075.6675   -8957.4788    906.08324    17085.983    12.249604 
    6070    1088.5314   -9079.3731   -8957.9457   -1252.0015    17092.272    12.263734 
    6080    1075.8272   -9078.3542   -8958.3441   -1982.7981    17097.867    12.280964 
    6090    1030.5977   -9073.6177   -8958.6529   -2057.7801    17102.225    12.301583 
    6100    1015.5863   -9072.1119   -8958.8217   -2492.7051    17105.211    12.325782 
    6110    1044.0891    -9075.309   -8958.8393    -3589.404    17106.495    12.354207 
    6120    1088.1713     -9080.17   -8958.7828   -3720.6156    17105.422    12.387731 
    6130    1086.3371   -9079.8866   -8958.7041   -1673.7928     17101.96    12.427202 
    6140    1100.4511   -9081.4003   -8958.6433    65.578586    17097.294    12.468242 
    6150    1092.6439   -9080.4993   -8958.6132    933.55149    17092.564    12.508265 
    6160    1058.8685   -9076.6943   -8958.5759    1874.7637    17088.421    12.553675 
    6170    1077.8294   -9078.7196   -8958.4861    1878.9569    17085.438    12.612169 
    6180    1124.3515   -9083.8113   -8958.3882    1217.4695    17083.652    12.686481 
    6190    1080.9196   -9078.9004   -8958.3222    1630.0812    17082.729    12.767951 
    6200    1074.2888   -9078.0934   -8958.2549    2118.6717    17082.924    12.841526 
    6210    1131.1537   -9084.3653   -8958.1834    1196.7481    17084.482    12.898348 
    6220    1124.2504   -9083.5994   -8958.1876    1547.9172    17086.975    12.938196 
    6230    1087.8128   -9079.6364   -8958.2893    2730.0869    17090.646    12.964784 
    6240    1094.6743   -9080.5472   -8958.4347    1675.0987    17096.099    12.984396 
    6250    1114.8502   -9082.9863   -8958.6231   -108.96933    17102.768    12.996452 
    6260    1105.4738   -9082.2055   -8958.8882   -1576.1375    17109.479    12.996321 
    6270    1079.5272   -9079.6191   -8959.1962   -1683.3579    17115.307    12.982624 
    6280    1089.6243   -9081.0852   -8959.5359   -728.68998    17120.133    12.956831 
    6290    1080.2076      -9080.4   -8959.9012    477.23017     17124.56     12.92328 
    6300    1078.4581    -9080.605   -8960.3014    1006.6229    17129.354    12.888214 
    6310    1105.5468   -9084.0728   -8960.7474    982.67737    17134.892    12.861953 
    6320    1114.5273   -9085.6382    -8961.311    824.20447    17141.178    12.844844 
    6330    1064.2571   -9080.6921   -8961.9726    1010.0944    17148.147    12.823649 
    6340    1056.6944   -9080.5267   -8962.6509    857.66102    17155.913    12.792816 
    6350    1076.3993    -9083.407    -8963.333   -470.46723    17164.309    12.758603 
    6360    1067.2556   -9083.1263   -8964.0723    -1701.755    17172.515    12.725834 
    6370    1049.3907   -9081.9062   -8964.8451   -2558.6794    17179.692    12.698444 
    6380    1044.3958    -9082.108   -8965.6041   -2864.4375    17185.237    12.680366 
    6390    1045.6198   -9082.9654   -8966.3249   -1914.3057     17188.96    12.674045 
    6400    1058.0523   -9085.0477   -8967.0204   -435.15735    17191.433    12.669919 
    6410    1075.7327   -9087.6965   -8967.6969    584.09344    17193.611    12.653779 
    6420    1080.2274   -9088.8852   -8968.3843    227.01996    17196.112    12.625189 
    6430    1050.3851   -9086.1862   -8969.0142   -56.573556    17198.844    12.595441 
    6440    1076.5799   -9089.6587   -8969.5646   -2259.6762    17201.412    12.569833 
    6450    1071.0684   -9089.5432   -8970.0639   -2509.7498    17202.564    12.555223 
    6460      1055.57   -9088.2591   -8970.5087   -644.82499    17202.126    12.555083 
    6470    1090.9966   -9092.6368   -8970.9345    954.88959     17201.23    12.563089 
    6480    1074.9705   -9091.2764   -8971.3619    2955.1665    17201.015    12.570928 
    6490    1071.2312   -9091.2806   -8971.7831    4481.7042    17202.768    12.569712 
    6500    1078.8267    -9092.531   -8972.1862    5932.4517    17207.622    12.557177 
    6510    1046.5133   -9089.3084   -8972.5682    6989.8121    17216.558     12.53762 
    6520    1030.7925   -9087.8629   -8972.8764    5831.6682    17230.215    12.516457 
    6530    1077.7728   -9093.3117   -8973.0846    2064.0613    17247.793    12.501267 
    6540    1076.9299   -9093.3527   -8973.2195   -55.168848    17267.015    12.504541 
    6550    1065.2143   -9092.1481   -8973.3218   -963.51037    17286.398     12.52751 
    6560     1080.668   -9093.9392   -8973.3891   -2358.2778    17305.199    12.559363 
    6570    1057.4078   -9091.3566   -8973.4012   -2107.4011    17322.591    12.588185 
    6580    1093.1341   -9095.3425   -8973.4017   -1618.4048    17338.622    12.605639 
    6590    1075.6034    -9093.366   -8973.3808   -174.39117    17353.706    12.613129 
    6600    1047.0985   -9090.1361   -8973.3307    496.76962    17368.684    12.615655 
    6610    1070.4486   -9092.6192    -8973.209   -204.35925    17383.971    12.616684 
    6620    1037.1104   -9088.6827   -8972.9915    131.59501    17399.268    12.620735 
    6630    1024.1668   -9086.8851   -8972.6377   -513.03957    17414.651      12.6211 
    6640    1057.4679   -9089.9999   -8972.0378    -1587.438     17429.71    12.613536 
    6650    1076.7964   -9091.2836   -8971.1653   -1081.5271    17443.836    12.605005 
    6660    1065.3812   -9088.8881   -8970.0432   -913.93453    17457.246    12.600363 
    6670    1081.3984   -9089.3223   -8968.6907   -1875.9871    17470.004    12.601589 
    6680    1078.3218   -9087.4581   -8967.1697   -2655.8934    17481.494     12.60931 
    6690    1086.2701    -9086.808    -8965.633   -3498.0416    17491.146    12.619553 
    6700     1103.538   -9087.3002   -8964.1989   -3374.2538    17498.439    12.628738 
    6710    1080.0877   -9083.4804    -8962.995    -1911.033    17503.454    12.638982 
    6720    1116.8234   -9086.6241   -8962.0408   -1997.9333    17507.035    12.658226 
    6730    1157.4581   -9090.4436   -8961.3274   -2867.3529    17509.153    12.689594 
    6740    1066.3527   -9079.7935   -8960.8403   -1285.7981    17509.437     12.72228 
    6750    1104.6088   -9083.6817   -8960.4609   -1508.5668    17508.672    12.740703 
    6760    1181.3996    -9091.934   -8960.1471   -2933.7497    17506.756     12.74331 
    6770    1172.8251   -9090.8806   -8960.0502   -2614.2982     17502.88    12.736583 
    6780    1098.4497   -9082.6514   -8960.1177   -710.03441    17497.251    12.725104 
    6790    1100.7762   -9083.0296   -8960.2364    -475.0506    17490.949    12.713077 
    6800    1115.5347   -9084.8092   -8960.3696   -998.23714    17484.229    12.704372 
    6810     1116.274   -9085.0699   -8960.5478   -877.21247    17476.824    12.699407 
    6820     1135.305   -9087.4551   -8960.8101   -94.483109    17468.823    12.693519 
    6830    1125.0873   -9086.6848   -8961.1796    1714.9327    17460.776    12.686969 
    6840    1086.8209    -9082.833   -8961.5965    3656.1514    17453.927    12.687845 
    6850    1111.7878   -9086.0459   -8962.0243    3571.3815    17449.489    12.701379 
    6860    1156.9298   -9091.5951   -8962.5378     2722.665    17447.508    12.724651 
    6870    1144.2292   -9090.8379   -8963.1974    1843.2726    17447.436    12.753859 
    6880    1133.2871   -9090.4237   -8964.0038    1422.5424    17448.695    12.786173 
    6890    1094.8808   -9087.0111   -8964.8755    1054.7995    17450.982    12.821968 
    6900    1071.5403   -9085.2584   -8965.7265    1117.2418     17454.06    12.858045 
    6910    1075.0422   -9086.4182   -8966.4956    1387.8257    17457.956    12.884312 
    6920    1087.9541   -9088.5616   -8967.1986    1587.7835    17462.867    12.897409 
    6930    1082.0975   -9088.5474   -8967.8378    1566.7847     17468.93    12.902747 
    6940    1082.7535   -9089.2065   -8968.4237    996.25171    17476.118    12.905443 
    6950    1050.9847   -9086.1541   -8968.9151    603.12451    17484.087    12.908144 
    6960    1066.3128    -9088.232   -8969.2832   -496.33327    17492.529    12.912286 
    6970    1133.7947   -9096.0832   -8969.6067   -3422.7683    17500.573    12.919009 
    6980    1126.0289   -9095.5975   -8969.9873   -5163.3421    17506.353    12.927928 
    6990     1095.172   -9092.6041    -8970.436   -5742.1399     17508.58    12.936927 
    7000    1090.4301   -9092.5458   -8970.9067   -5327.5241    17506.813    12.949209 
    7010    1090.4199   -9093.0048   -8971.3668   -4566.2203    17501.281    12.963685 
    7020    1094.6543   -9093.9327   -8971.8223    -4512.659    17492.396    12.972622 
    7030    1096.0738   -9094.5478   -8972.2792   -4244.1005     17480.22    12.977475 
    7040    1097.6723   -9095.1808   -8972.7338   -2521.8205    17465.011    12.983904 
    7050    1095.4989   -9095.3808   -8973.1762   -430.43514    17447.879    12.996842 
    7060    1079.0179   -9093.9452   -8973.5791    805.22769    17430.192    13.017523 
    7070    1110.0537   -9097.7918   -8973.9637    149.77186    17412.759    13.046971 
    7080    1132.3312   -9100.7285   -8974.4153    13.992306    17395.283    13.085855 
    7090    1057.9268   -9092.8943    -8974.881    2560.5444    17377.812     13.13066 
    7100     1049.862   -9092.3672   -8975.2536    4111.4618    17361.878    13.170748 
    7110    1088.0119   -9096.9324    -8975.563    4253.9123    17348.547    13.199249 
    7120    1083.4271   -9096.6979     -8975.84    4898.8958    17338.098    13.220008 
    7130    1121.7178    -9101.281   -8976.1517    4730.8618    17330.869     13.24117 
    7140    1094.4331   -9098.5756     -8976.49     5555.884    17326.942    13.271865 
    7150     1097.712   -9099.2996   -8976.8482     4769.122    17326.735    13.308977 
    7160    1102.6105   -9100.2278   -8977.2299    2856.5786    17329.779    13.349328 
    7170    1064.5171   -9096.3549   -8977.6064    1461.6858    17334.904    13.394424 
    7180    1080.6892   -9098.5062   -8977.9537   -404.35528    17341.102    13.440481 
    7190    1067.1853   -9097.2977   -8978.2516   -1454.5014    17347.172    13.484039 
    7200    1022.4434   -9092.5262   -8978.4711   -426.88633    17352.482    13.525077 
    7210    1029.6147   -9093.4015   -8978.5464   -1331.9105     17357.45    13.559969 
    7220    1080.2479   -9099.0036   -8978.5003   -3453.5424    17361.508     13.59134 
    7230    1101.6668   -9101.3176    -8978.425   -4111.1325    17363.316    13.621611 
    7240    1086.3132   -9099.5584   -8978.3785   -3202.9142     17362.34     13.64797 
    7250    1069.9165   -9097.6977   -8978.3469   -2257.9859    17359.098    13.669469 
    7260    1057.9886   -9096.3019   -8978.2817   -2367.4326     17354.15    13.689836 
    7270    1025.8228   -9092.5831    -8978.151   -1492.9417    17347.533    13.711159 
    7280    1024.0219   -9092.1145   -8977.8833    -695.1087    17339.752     13.73666 
    7290    1114.7494   -9101.8448   -8977.4928   -1297.8098    17331.231    13.765186 
    7300    1074.0595    -9096.856   -8977.0431   -145.26137    17321.741    13.798519 
    7310    1054.8458   -9094.2078   -8976.5382    126.51881    17311.909       13.836 
    7320    1124.2571   -9101.3026     -8975.89   -1542.0837    17301.826    13.872741 
    7330    1106.8448    -9098.585   -8975.1148    -1178.751    17290.588     13.91131 
    7340    1113.1741   -9098.4072   -8974.2309   -379.40208    17278.302    13.953012 
    7350    1127.2139    -9098.926   -8973.1836    242.76621    17265.466    13.996376 
    7360    1110.8931   -9095.9236   -8972.0018    1199.0767    17252.553    14.041409 
    7370    1107.6449   -9094.2459   -8970.6865    2025.6688    17240.185    14.092329 
    7380    1137.9084   -9096.1875   -8969.2521    2807.5583    17228.952    14.146582 
    7390    1121.5827   -9092.9423   -8967.8281    3338.6693    17219.387    14.192194 
    7400    1129.5523   -9092.5405   -8966.5373    3566.0444    17211.885    14.220725 
    7410    1153.9956   -9094.1631   -8965.4332    3582.0737    17206.653    14.235063 
    7420    1138.3526   -9091.5757   -8964.5908    3316.0289    17203.786    14.251094 
    7430    1179.3751   -9095.5783   -8964.0172    1411.8224    17203.017    14.281069 
    7440    1171.9851   -9094.4546   -8963.7179     1934.388    17203.382    14.323143 
    7450    1070.7026   -9083.0426   -8963.6041    3694.2431    17205.192    14.365711 
    7460    1156.4171    -9092.572    -8963.572    1641.8615    17209.338    14.394382 
    7470    1207.5758   -9098.3676   -8963.6607    237.93379    17214.807     14.40162 
    7480    1138.1352   -9090.9057    -8963.945    691.67962    17220.716    14.391253 
    7490    1107.1046   -9087.8122    -8964.313    398.36968    17227.229    14.372412 
    7500    1099.7969   -9087.3466   -8964.6626   -82.199824    17234.206    14.357935 
    7510    1134.2718   -9091.5373   -8965.0076   -715.21943     17241.31    14.356179 
    7520    1133.3829   -9091.8233   -8965.3928   -719.89647    17248.173    14.366049 
    7530    1142.7223   -9093.3076   -8965.8352   -1109.7701    17254.708    14.384005 
    7540    1207.8854   -9101.1528   -8966.4114   -2628.2058    17260.573    14.403595 
    7550    1171.5589   -9097.8572    -8967.168   -2147.5077    17264.927     14.42183 
    7560    1130.4921   -9094.1308   -8968.0227   -1795.9318    17267.865    14.438372 
    7570    1115.2223   -9093.2771   -8968.8724   -1427.3432    17269.664     14.44452 
    7580    1120.4041   -9094.6941   -8969.7114    -1936.561    17270.445    14.433142 
    7590     1109.221   -9094.2452   -8970.5099    -2260.348    17269.938    14.406835 
    7600     1124.455   -9096.7086   -8971.2739   -3188.7575    17267.785    14.373697 
    7610    1107.2502    -9095.528   -8972.0126   -2704.6382     17263.45    14.340634 
    7620    1068.7523   -9091.8688   -8972.6479   -2038.6901    17257.144    14.310988 
    7630    1132.8457   -9099.6257   -8973.2551   -3402.5162    17249.084    14.284937 
    7640    1111.5914   -9097.8989   -8973.8992   -2192.3926    17238.608    14.263085 
    7650    1071.2645   -9094.0077   -8974.5066    670.78481    17226.443    14.249573 
    7660    1127.9238   -9100.9075   -8975.0859    1503.8823    17214.282    14.240108 
    7670    1127.5288   -9101.4784   -8975.7009    2930.8084    17202.923    14.230032 
    7680    1110.7399   -9100.2296   -8976.3249    3413.8149    17193.268    14.216378 
    7690    1130.6413   -9103.0721   -8976.9474    3328.2306    17185.752     14.19603 
    7700    1102.9527   -9100.5848   -8977.5487    4382.9072    17180.482    14.167831 
    7710    1101.1712   -9100.9006   -8978.0633    4224.1408    17178.083    14.138302 
    7720    1126.0809    -9104.127    -8978.511    3072.7914    17178.489    14.118076 
    7730    1097.0616   -9101.3356   -8978.9567    3490.7734    17181.135    14.109211 
    7740    1087.5871   -9100.7414   -8979.4195    3591.0427    17186.178    14.105326 
    7750    1086.6923   -9101.0844   -8979.8622     2975.001    17193.687    14.098332 
    7760    1090.0885   -9101.8969   -8980.2959    2609.5567    17203.339    14.085305 
    7770    1086.6001    -9101.919   -8980.7072    2250.5309    17214.903    14.070886 
    7780    1131.4285   -9107.3435    -8981.131   -340.75209    17227.995    14.062965 
    7790    1134.7871   -9108.2069   -8981.6197   -2143.4366    17241.057    14.067788 
    7800    1109.2598   -9105.9327   -8982.1931   -2852.7663    17252.805    14.080509 
    7810    1098.3912   -9105.3337   -8982.8066   -2747.3643    17262.731    14.095553 
    7820    1088.3976   -9104.8507   -8983.4383   -1096.5135    17270.934    14.113762 
    7830    1047.3076   -9100.8559   -8984.0271     1596.524    17278.537    14.138738 
    7840    1061.0339   -9102.8895   -8984.5296    2011.6386    17287.163    14.175228 
    7850    1068.7534    -9104.154    -8984.933    1117.6729    17297.197    14.218815 
    7860     1058.784   -9103.3589     -8985.25    100.42914     17308.11    14.259451 
    7870    1089.2841     -9107.01   -8985.4987   -2077.5925    17319.094    14.290123 
    7880    1082.5109   -9106.4663   -8985.7105   -2221.5036    17328.875     14.31013 
    7890    1094.7066   -9108.0442    -8985.928   -1514.1734    17337.223     14.32147 
    7900    1104.1964     -9109.33   -8986.1552   -1506.4917    17344.528     14.33552 
    7910    1093.7663   -9108.4298   -8986.4185   -1178.5577    17350.865    14.360935 
    7920    1088.9479   -9108.1703   -8986.6966   -649.72991    17356.436    14.395764 
    7930     1094.829   -9109.1151   -8986.9853   -2.9403393    17361.602    14.427089 
    7940    1100.6606   -9110.0686   -8987.2882   -369.61832    17366.731    14.447478 
    7950    1099.0564   -9110.1868   -8987.5854   -1413.0237    17371.584    14.456636 
    7960    1088.9117   -9109.3373   -8987.8675   -1426.0265     17375.56    14.458506 
    7970    1089.9408   -9109.7562   -8988.1717    -1218.535    17378.542    14.459808 
    7980    1084.3589    -9109.456   -8988.4941   -622.35487     17380.69    14.467272 
    7990    1108.6937   -9112.5301   -8988.8536   -169.96602    17382.386    14.478968 
    8000    1087.7197   -9110.5575   -8989.2207    703.27895    17384.004    14.488999 
    8010    1087.6676   -9110.9144   -8989.5835   -225.18387    17385.989    14.494042 
    8020    1083.6807   -9110.8443   -8989.9581   -866.23101     17387.86     14.49507 
    8030    1066.7863   -9109.3801   -8990.3785    387.61814     17389.28    14.491061 
    8040     1088.745   -9112.3221   -8990.8709      1303.78    17390.948    14.483134 
    8050    1076.5995   -9111.5132   -8991.4169     2095.392    17393.538    14.475798 
    8060    1085.0782   -9113.0397   -8991.9976    2151.1152    17397.543    14.472619 
    8070    1077.1695   -9112.7914   -8992.6315    1720.3082     17402.99     14.47472 
    8080    1023.2923   -9107.4231   -8993.2733    1245.9154    17409.627    14.476498 
    8090     1055.492   -9111.6337    -8993.892   -437.66004    17417.019    14.468433 
    8100    1058.3466   -9112.5908   -8994.5306   -507.39305    17424.191    14.445346 
    8110    1004.7862    -9107.221   -8995.1356    239.22512     17431.03    14.410919 
    8120    1058.1695   -9113.7602   -8995.7198   -343.62534    17437.889    14.375405 
    8130    1053.8906   -9113.8581    -8996.295    269.74601    17444.566    14.345598 
    8140    1033.0506    -9112.066   -8996.8277     909.4709    17451.395    14.322332 
    8150    1086.6472   -9118.5986   -8997.3815    179.09307    17458.702    14.306596 
    8160    1043.7183   -9114.4292   -8998.0009     517.1365    17466.156    14.298427 
    8170    1014.8095   -9111.8244   -8998.6209     -50.7285    17473.839    14.290384 
    8180    1046.0325   -9115.8877   -8999.2012   -1300.9215    17481.369    14.274017 
    8190    1046.7082   -9116.5488   -8999.7869   -1028.1843    17488.025    14.251304 
    8200    1063.6433   -9119.0422   -9000.3911   -862.13705     17493.89    14.229868 
    8210    1066.9427   -9120.0465   -9001.0275    351.18643    17499.167    14.212688 
    8220    990.49876   -9112.0872   -9001.5955    2486.0251    17504.718    14.198623 
    8230    1031.3991   -9117.1065   -9002.0523    1214.4206    17511.722    14.187215 
    8240    1070.9011   -9121.9064   -9002.4458   -875.44732    17519.471    14.179987 
    8250    1022.2512   -9116.8275   -9002.7938   -869.16061    17526.663     14.17655 
    8260    1020.3946   -9116.8655   -9003.0389   -1336.3269    17533.103    14.174867 
    8270    1062.7575   -9121.7311   -9003.1789   -1935.4836     17538.52    14.170941 
    8280     1065.038   -9122.0655   -9003.2589   -1943.7885    17542.553    14.164333 
    8290    1073.6862    -9123.101   -9003.3297   -2338.6257    17545.108    14.159598 
    8300    1050.9678   -9120.6147   -9003.3777   -661.15276    17546.147    14.159569 
    8310    1031.9069   -9118.4778   -9003.3671    1889.4355    17546.773     14.16394 
    8320    1039.7905   -9119.2465   -9003.2563    3322.0773    17548.668    14.173504 
    8330    1063.6217   -9121.6775   -9003.0289    3050.8027    17552.811    14.188592 
    8340    1104.1646   -9125.9058   -9002.7346    1686.2509    17558.999    14.209927 
    8350    1061.2477   -9120.7946   -9002.4108    1647.9166    17566.406    14.238101 
    8360    1028.7798   -9116.7818   -9002.0199    2052.6254    17574.928    14.269979 
    8370    1034.6081   -9116.8506   -9001.4385    1541.6309    17584.763    14.299336 
    8380      1056.15   -9118.4647   -9000.6496    342.38157    17595.518    14.316852 
    8390    1073.6916   -9119.4834   -8999.7115     244.7306    17606.483    14.326073 
    8400     1060.641   -9117.0245   -8998.7084    938.16568    17617.575    14.334351 
    8410    1086.7627    -9118.924    -8997.694    1283.1028    17629.223    14.341655 
    8420    1111.8864   -9120.7276    -8996.695    1192.1757    17641.643    14.344451 
    8430    1076.0959   -9115.8457   -8995.8055    1845.3903    17654.857    14.344594 
    8440    1087.9042   -9116.3579   -8995.0006    1099.1845    17669.158    14.346885 
    8450    1099.2672   -9116.8523   -8994.2274   -147.00538     17684.06    14.352557 
    8460    1082.5339   -9114.2735   -8993.5152   -1722.0331    17698.661    14.360588 
    8470    1111.1982   -9116.8356   -8992.8798   -4269.9241     17711.76    14.370568 
[...]
   22890    1065.3682   -9166.4686   -9047.6251   -3045.3879    17449.177    31.206976 
   22900    1073.6815   -9167.1657   -9047.3949   -3006.0767    17440.852    31.227377 
   22910    1075.1118   -9167.0359   -9047.1056   -2432.5294    17430.304    31.245721 
   22920    1082.0236   -9167.4335   -9046.7322   -910.73346    17417.946    31.261274 
   22930      1084.03   -9167.1823   -9046.2571    870.72592    17404.789    31.278146 
   22940    1071.7599   -9165.2211   -9045.6647    2459.4474    17392.027    31.302675 
   22950    1069.6997   -9164.2466     -9044.92    3596.3078    17380.774    31.332055 
   22960    1079.6949   -9164.4231   -9043.9816    3751.5141    17371.811    31.348945 
   22970     1066.696   -9161.8481   -9042.8565    4613.6766    17365.387    31.338564 
   22980    1084.2483    -9162.526   -9041.5765    6245.2747    17362.132     31.30771 
   22990    1102.3348    -9163.155   -9040.1879    7314.4826     17363.17     31.27509 
   23000    1103.5856   -9161.9596    -9038.853    7395.7481    17369.323    31.247112 
   23010    1086.9463   -9158.9315    -9037.681    6568.7703    17380.758    31.222376 
   23020    1094.4301   -9158.7813    -9036.696    4437.7321    17396.948    31.195378 
   23030    1116.9121   -9160.4524   -9035.8591    1143.2739    17416.471    31.160764 
   23040     1094.442   -9157.2506   -9035.1639   -345.34783    17437.246    31.118277 
   23050    1084.4386   -9155.5815   -9034.6107   -821.26983    17458.171    31.073118 
   23060    1138.3074   -9161.1349    -9034.155   -3547.0641    17478.705    31.034481 
   23070    1133.7084   -9160.2824   -9033.8156   -6421.9587    17497.044    31.004288 
   23080     1098.173   -9156.1111   -9033.6083   -7399.9276    17511.219    30.978953 
   23090    1103.2749   -9156.5322   -9033.4603   -8452.4039    17520.302    30.956836 
   23100    1111.2742   -9157.3365   -9033.3722   -7257.5753    17523.639    30.941291 
   23110    1104.6396   -9156.5776   -9033.3534   -4725.8582    17521.927    30.933522 
   23120    1119.7817     -9158.31   -9033.3967   -2870.3791    17516.801    30.924661 
   23130    1095.0493   -9155.6347   -9033.4803   -1692.4366    17509.536    30.908822 
   23140    1111.8346   -9157.6381   -9033.6113    -1477.736    17500.926    30.887867 
   23150    1135.0532   -9160.4324   -9033.8155   -1527.6037    17491.142    30.876493 
   23160    1116.9228    -9158.708   -9034.1136   -427.22738    17480.203      30.8858 
   23170    1112.9875   -9158.6385   -9034.4831    1317.6223    17468.837    30.920621 
   23180    1112.5623   -9159.0092   -9034.9012    3712.7021    17458.308    30.981491 
   23190    1117.2014   -9159.9819   -9035.3564    5695.3076    17450.254    31.052572 
   23200    1151.8184    -9164.411   -9035.9239    6257.3998    17446.005    31.107289 
   23210     1109.646   -9160.3847    -9036.602    7458.1771    17446.212    31.133802 
   23220    1098.1031   -9159.8482   -9037.3531    6885.0537    17451.587    31.133617 
   23230    1093.8156   -9160.1662   -9038.1495    6393.7568    17461.948    31.121412 
   23240    1078.4982   -9159.2451    -9038.937    6098.2115    17477.016    31.104524 
   23250    1117.9856   -9164.4419   -9039.7289    4351.4395    17496.578    31.074942 
   23260    1114.7644   -9164.8852   -9040.5316    2332.9314    17519.545    31.033567 
   23270      1066.27   -9160.2089   -9041.2649    314.07707    17544.566    30.981704 
   23280    1081.2001   -9162.4636   -9041.8541   -3216.0532    17570.082    30.926547 
   23290    1076.8824   -9162.4495   -9042.3216   -5247.9811    17593.771     30.88591 
   23300    1078.8589   -9163.0627   -9042.7144   -6516.6519    17614.101    30.860057 
   23310    1093.1204   -9164.9912   -9043.0519    -8220.999     17630.01    30.847967 
   23320    1075.2605   -9163.3223   -9043.3754   -8935.2727    17640.246    30.853099 
   23330    1043.8237    -9160.107   -9043.6669   -8485.0211    17644.223    30.881098 
   23340    1050.7508    -9161.104   -9043.8912   -7803.3192    17642.127     30.91836 
   23350    1049.9834    -9161.164   -9044.0368   -7136.0667    17634.363    30.952211 
   23360    1070.3282   -9163.5228   -9044.1261   -6657.6073    17621.342    30.983202 
   23370    1093.3833   -9166.1543   -9044.1858   -5934.4715    17603.365    31.013462 
   23380    1091.4031    -9165.984   -9044.2364   -3824.9826    17580.994    31.051826 
   23390    1076.3123   -9164.3259   -9044.2617   -460.70372    17555.683    31.102168 
   23400    1051.3321   -9161.4665   -9044.1888    4071.5012    17529.858    31.156948 
   23410    1083.7963   -9164.9163   -9044.0172    7292.5037    17506.572    31.197934 
   23420     1109.377   -9167.5732   -9043.8205    8626.6036    17488.125    31.220459 
   23430    1106.2604   -9167.0993   -9043.6943    8909.1574    17475.547    31.229275 
   23440    1087.1319   -9164.9118   -9043.6406    9180.9182    17469.168    31.227921 
   23450    1097.2336   -9166.0458   -9043.6477    7841.9752    17469.103    31.211679 
   23460    1106.2166    -9167.096   -9043.6959    6358.6561    17474.622    31.189516 
   23470    1112.1258   -9167.8398   -9043.7805    4708.3332    17484.745     31.17023 
   23480     1140.118   -9171.1031   -9043.9213    1629.8974    17498.253    31.148366 
   23490    1137.7125   -9171.0764   -9044.1629   -1099.6181    17513.084     31.13069 
   23500     1057.653   -9162.4733   -9044.4905   -697.56533     17527.53    31.130375 
   23510    1028.7118   -9159.5308   -9044.7764    -468.7484    17541.646    31.149275 
   23520    1114.4162   -9169.3246   -9045.0098   -2625.5595    17555.439    31.172495 
   23530    1117.6729   -9169.9683   -9045.2902   -3707.3194    17567.612    31.188171 
   23540    1067.3291   -9164.7276   -9045.6654   -3694.9666     17577.36    31.194297 
   23550    1082.8874   -9166.8808   -9046.0831   -4912.5291    17584.506     31.18978 
   23560    1095.0577   -9168.7332   -9046.5779   -5604.6422    17588.261    31.180144 
   23570    1090.1989   -9168.8229   -9047.2096   -4385.4914    17588.136    31.180168 
   23580    1052.6685   -9165.4017    -9047.975   -1158.9112     17585.02    31.203436 
   23590    1020.1703   -9162.5901   -9048.7885    587.90063    17580.936    31.247586 
   23600    1041.4308   -9165.7988   -9049.6256    870.97081    17577.129    31.301388 
   23610    1042.9128    -9166.811   -9050.4725    777.29414    17573.893    31.352094 
   23620    1062.9192   -9169.9253   -9051.3551   -1095.9375     17571.05    31.390454 
   23630    1053.0854   -9169.7469   -9052.2736   -2071.5297     17567.44    31.412971 
   23640    1026.4924   -9167.6518    -9053.145   -1970.8432    17562.385    31.418571 
   23650    1054.3427    -9171.581   -9053.9675   -2995.5111    17555.765    31.410329 
   23660    1038.9775   -9170.6347   -9054.7352   -943.36077     17547.13    31.394633 
   23670    1033.4913   -9170.6761   -9055.3885    1790.7892    17537.715    31.369952 
   23680    1068.4973   -9175.1355   -9055.9431    3932.6106     17529.43     31.33834 
   23690    1030.2784   -9171.3341    -9056.405    5603.2673    17523.831    31.303954 
   23700    1005.2568   -9168.8762   -9056.7383    5515.3993    17522.084    31.262362 
   23710    1050.9652   -9174.1786   -9056.9418    3412.0947    17524.135    31.213487 
   23720    1049.3967   -9174.1102   -9057.0484     1980.577    17528.696    31.173345 
   23730    1012.5517   -9170.0067   -9057.0551    1205.7236    17534.764    31.157468 
   23740    1037.3656   -9172.6449   -9056.9253    95.452848    17541.767    31.167155 
   23750    1073.3292   -9176.4106   -9056.6791   -1115.6234    17548.913    31.195558 
   23760    1061.9979   -9174.8327   -9056.3652   -884.93899    17555.488    31.228744 
   23770    1047.0624   -9172.7972   -9055.9958   -636.69549    17561.505    31.254397 
   23780    1039.2717   -9171.4503    -9055.518   -490.34467    17567.139    31.267502 
   23790     1057.108    -9172.822      -9054.9   -1125.0566    17572.426    31.262513 
   23800    1060.0769   -9172.4126   -9054.1595   -1314.7638    17577.008    31.231906 
   23810    1066.5564   -9172.3064   -9053.3304   -947.47535    17580.749    31.183871 
   23820    1058.7954   -9170.5339   -9052.4237   -1042.4539    17583.824    31.137429 
   23830      1078.72   -9171.7915   -9051.4587   -1073.4479    17586.193    31.110007 
   23840     1062.983   -9169.0378   -9050.4605    132.44104     17587.92    31.109102 
   23850    1073.7781   -9169.2689   -9049.4873   -758.99942    17589.602    31.131933 
   23860    1120.9835   -9173.6171   -9048.5698   -1334.6595    17590.797    31.167063 
   23870    1081.4308   -9168.4519   -9047.8167    2067.3337    17591.336    31.188933 
   23880    1058.5179   -9165.3063    -9047.227    5268.3814    17593.371    31.183322 
   23890    1055.0028   -9164.4078   -9046.7206    5866.5945    17599.066    31.161625 
   23900    1062.2991   -9164.7864   -9046.2853    5088.1985    17608.983    31.132133 
   23910    1087.0478   -9167.1789    -9045.917    3946.9381    17622.705    31.106964 
   23920    1073.0844   -9165.3148   -9045.6106    3136.7172    17639.496     31.09631 
   23930     1079.445   -9165.7579   -9045.3441    1895.1062    17658.771    31.100992 
   23940    1102.5247   -9168.0849   -9045.0967   -829.50875    17679.579    31.111522 
   23950    1094.0961   -9166.9232   -9044.8752   -2290.2022    17700.172    31.121931 
   23960    1068.9915   -9163.9267    -9044.679   -3512.9306    17719.367    31.124843 
   23970    1066.7634   -9163.4579   -9044.4589   -4790.7391    17736.243    31.117719 
   23980    1080.2123   -9164.7165   -9044.2172   -5454.2699    17749.846    31.103896 
   23990    1071.9722   -9163.5502   -9043.9701   -5460.3431    17759.655    31.090021 
   24000    1081.6793   -9164.3874   -9043.7245   -5697.6078    17765.578    31.078797 
   24010    1077.7468   -9163.7091   -9043.4849   -5634.1625    17767.426     31.06716 
   24020    1063.1634   -9161.8353   -9043.2379    -5013.958    17765.199    31.053287 
   24030    1100.7726   -9165.7584   -9042.9656   -5001.5397    17759.248    31.041172 
   24040    1132.9809   -9169.1012   -9042.7155   -4535.3239    17749.607    31.034568 
   24050    1078.5982   -9162.8386   -9042.5194   -1768.5749     17736.72    31.032045 
   24060    1083.7026   -9163.2064   -9042.3178    287.20472    17722.361    31.028057 
   24070    1128.5798   -9167.9882   -9042.0934    1761.1992    17708.039    31.031708 
   24080    1125.0884   -9167.4228   -9041.9175    4087.0064    17694.938    31.050225 
   24090    1121.1618    -9166.888   -9041.8207    5947.4064    17684.644     31.08414 
   24100     1133.938   -9168.3072   -9041.8147    7950.2966    17678.604    31.135299 
   24110    1149.0779   -9170.1235   -9041.9421    8792.0449    17678.194    31.191067 
   24120    1151.7608   -9170.7625   -9042.2819    8499.6395    17684.097    31.229213 
   24130    1087.3421    -9164.057   -9042.7624    8010.0052     17696.25    31.231056 
   24140    1114.8511   -9167.7037   -9043.3404    5930.3526    17714.228    31.194231 
   24150    1096.2795   -9166.2661   -9043.9745    4070.6381    17736.744    31.144876 
   24160    1055.8198   -9162.3893    -9044.611    2559.1353    17762.478    31.115001 
   24170    1084.1513   -9166.1438   -9045.2051    67.527403    17790.253    31.118907 
   24180    1074.0341   -9165.5724   -9045.7622   -1350.1052    17818.432    31.147217 
   24190    1084.5842   -9167.2723   -9046.2853   -3527.2778    17845.792    31.183447 
   24200    1125.4428   -9172.3835   -9046.8386   -5494.8715    17870.764    31.221087 
   24210    1055.6867   -9165.1926   -9047.4292   -4586.2944    17892.083    31.254677 
   24220     1052.036   -9165.3443   -9047.9881   -4725.0229    17910.057    31.279861 
   24230    1086.2074   -9169.6809   -9048.5128   -5508.3977    17924.591    31.309609 
   24240    1047.8507   -9165.9011   -9049.0118   -4417.1185    17935.282    31.346639 
   24250    1047.2497   -9166.2782    -9049.456   -4209.5728    17942.678    31.375397 
   24260    1068.0323   -9168.9817   -9049.8411   -4906.8869    17946.909    31.384554 
   24270    1067.9455   -9169.3248   -9050.1939   -4571.2288    17947.571    31.378234 
   24280    1074.6234   -9170.3945   -9050.5186   -3685.9752    17944.854    31.364974 
   24290    1076.2993   -9170.8926   -9050.8298   -2346.5053      17939.4    31.348265 
   24300    1068.8736   -9170.3431   -9051.1087    -774.7594    17932.193    31.327802 
   24310    1043.5769   -9167.7534   -9051.3408    845.03028    17924.381    31.305927 
   24320    1040.6116   -9167.5808   -9051.4991    1729.0081    17917.106    31.278872 
   24330    1067.2867   -9170.6573   -9051.5998     1762.282    17911.017    31.247979 
   24340    1055.9081   -9169.4279   -9051.6398    2910.3348    17906.305    31.211073 
   24350    1030.2675   -9166.5154   -9051.5875    4229.6111    17903.727    31.175546 
   24360    1030.2476    -9166.287   -9051.3613    4550.6911    17904.222    31.167046 
   24370    1088.6641   -9172.4051    -9050.963    4098.0569    17908.023    31.190555 
   24380    1044.0968   -9166.8987   -9050.4281    5332.3404    17915.026    31.232609 
   24390    1048.4336   -9166.7074    -9049.753    4000.4566    17925.828    31.271098 
   24400    1084.4866    -9169.797   -9048.8209    1215.8814    17939.593    31.290921 
   24410    1078.7944   -9167.9895   -9047.6484   -1192.2947    17954.347    31.296425 
   24420    1092.3997   -9168.1644   -9046.3056   -2094.8555    17968.389    31.304312 
   24430     1130.841    -9171.026    -9044.879   -2041.1203    17980.981    31.318125 
   24440    1110.5999   -9167.4321    -9043.543   -580.87773    17992.199     31.34115 
   24450    1107.7867   -9165.9761   -9042.4008    202.56764    18002.978    31.368902 
   24460    1140.5059   -9168.6587   -9041.4335   -1092.7719    18013.779    31.393991 
   24470    1100.5738   -9163.4573   -9040.6866   -1129.9139    18023.894    31.415005 
   24480    1041.8013   -9156.3233   -9040.1088    144.44134    18033.312    31.438601 
   24490    1098.2152   -9162.0953   -9039.5877   -631.42297    18042.712    31.473586 
   24500    1117.3469   -9163.7475   -9039.1057   -1237.0384    18051.711    31.531444 
   24510    1086.6929   -9159.9325   -9038.7102   -1113.4518     18059.87    31.605263 
   24520    1118.0803   -9163.0821   -9038.3586   -2577.8407    18067.125    31.674912 
   24530    1130.7785    -9164.215   -9038.0749     -4881.88    18072.401    31.734686 
   24540    1133.4604   -9164.3675   -9037.9283    -6076.913     18074.07    31.782386 
   24550    1136.5095   -9164.7145   -9037.9352   -5217.7029    18071.279    31.815814 
   24560    1078.6206   -9158.3502   -9038.0285   -1335.8626    18064.775    31.834787 
   24570    1084.9186   -9159.1492   -9038.1249    1873.7632    18057.208    31.833784 
   24580     1117.237   -9162.8508   -9038.2214    3501.1734    18050.949    31.816575 
   24590    1131.7032   -9164.6232     -9038.38    3762.9271    18047.241    31.787484 
   24600    1155.6775   -9167.5868   -9038.6692    3648.9668    18046.337     31.75191 
   24610    1133.7941   -9165.5692   -9039.0927    4222.0834    18048.242    31.725734 
   24620     1132.887   -9166.0283    -9039.653    4323.9278    18053.302    31.719319 
   24630    1088.5732   -9161.7213   -9040.2893    5062.2427    18061.704    31.723627 
   24640     1079.055    -9161.307   -9040.9368    3900.4447     18073.82    31.722462 
   24650     1114.185    -9165.875    -9041.586    1570.4941    18088.857    31.718395 
   24660    1111.4733   -9166.2413   -9042.2548   -384.78825    18105.144    31.722685 
   24670    1106.3034    -9166.356   -9042.9462   -2263.9155     18121.14    31.735655 
   24680    1100.4477   -9166.3902   -9043.6336   -2856.0227    18135.523    31.755098 
   24690    1065.0575   -9163.0697    -9044.261   -3136.2509    18147.762    31.775529 
   24700    1047.4594   -9161.6271   -9044.7814   -3969.8433    18157.576    31.799923 
   24710    1067.5865   -9164.2989    -9045.208   -3710.5942    18164.433    31.826826 
   24720    1054.2492   -9163.1326   -9045.5295   -1679.0884    18168.597    31.848104 
   24730    1080.3426   -9166.2942   -9045.7804   -310.17874    18171.462    31.860917 
   24740    1091.1919    -9167.699   -9045.9749   -426.50267    18173.987    31.856975 
   24750    1059.0527   -9164.2801   -9046.1412   -492.69316    18176.191    31.838558 
   24760    1048.8349   -9163.2439   -9046.2448   -1131.2116    18177.987    31.813832 
   24770    1094.4626   -9168.4222   -9046.3332   -2916.4076    18178.839    31.788175 
   24780    1068.5997   -9165.6215   -9046.4176   -3107.7385     18177.63    31.774567 
   24790    1068.7941   -9165.7191   -9046.4935   -2938.3855    18174.061    31.780845 
   24800    1080.8378   -9167.1134   -9046.5443   -2040.2414    18168.311    31.800137 
   24810    1044.7036   -9163.0807   -9046.5424    207.36282    18161.141    31.827727 
   24820    1059.6379   -9164.6667   -9046.4625    2052.3814    18154.116    31.858061 
   24830    1079.3327   -9166.7121   -9046.3109    2991.0746    18148.597    31.885691 
   24840     1048.592   -9163.0831   -9046.1111    4623.0569     18145.45    31.907467 
   24850    1079.9843   -9166.3482   -9045.8743    5871.0989    18145.782    31.922942 
   24860    1103.6432   -9168.7502   -9045.6371    6447.7669    18150.524    31.938847 
   24870    1084.7391   -9166.4516   -9045.4473    6590.1194    18160.159    31.961828 
   24880    1113.2775   -9169.4746   -9045.2868    5824.9568    18174.754    31.988087 
   24890    1102.2776      -9168.1   -9045.1393    4301.2618    18193.745    32.006006 
   24900    1081.8303   -9165.6812   -9045.0014    2524.6557    18216.035    32.010599 
   24910    1116.7153   -9169.4135   -9044.8423   -376.38855    18240.167    32.003451 
   24920    1102.8615   -9167.6943   -9044.6684    -2547.347    18264.066    31.997127 
   24930     1095.424   -9166.7051    -9044.509   -3879.7706    18286.029    32.003206 
   24940    1097.8542   -9166.8009   -9044.3336   -4416.9649    18305.016    32.017539 
   24950    1071.4681   -9163.6527   -9044.1288   -4826.8085    18320.553     32.03058 
   24960    1067.7245   -9162.9702    -9043.864   -6081.1212    18332.238     32.03706 
   24970    1043.9112   -9159.9214   -9043.4715   -7370.7892    18339.176    32.031504 
   24980    1087.6043   -9164.2456   -9042.9217   -8868.3028    18340.348     32.01314 
   24990    1133.7972    -9168.669   -9042.1922   -8283.4896    18334.782    31.987714 
   25000    1070.8775   -9160.7989   -9041.3409   -3687.8543    18323.148     31.96049 
Loop time of 12580.1 on 16 procs for 20000 steps with 864 atoms

Performance: 0.137 ns/day, 174.723 hours/ns, 1.590 timesteps/s
97.3% CPU use with 16 MPI tasks x 1 OpenMP threads

MPI task timing breakdown:
Section |  min time  |  avg time  |  max time  |%varavg| %total
---------------------------------------------------------------
Pair    | 1560.1     | 7429.8     | 12184      |4805.7 | 59.06
Bond    | 0.0018785  | 0.0038969  | 0.0070579  |   2.5 |  0.00
Neigh   | 0.092402   | 0.37515    | 0.6379     |  34.1 |  0.00
Comm    | 113.96     | 4461       | 9767.7     |5379.9 | 35.46
Output  | 1.2884     | 1.3075     | 1.5821     |   6.2 |  0.01
Modify  | 157.5      | 687.55     | 2201.1     |3101.0 |  5.47
Other   |            | 0.08058    |            |       |  0.00

Nlocal:        54.0000 ave          86 max           7 min
Histogram: 2 0 3 1 0 1 0 3 3 3
Nghost:        535.625 ave         838 max         284 min
Histogram: 2 2 2 0 2 3 3 0 0 2
Neighs:         0.00000 ave           0 max           0 min
Histogram: 16 0 0 0 0 0 0 0 0 0
FullNghs:      3088.25 ave        5837 max         138 min
Histogram: 5 1 0 0 0 2 2 0 3 3

Total # of neighbors = 49412
Ave neighs/atom = 57.189815
Ave special neighs/atom = 0.0000000
Neighbor list builds = 2000
Dangerous builds = 2000
unfix   3
                
Total wall time: 4:24:09
