LAMMPS (29 Sep 2021 - Update 3)
OMP_NUM_THREADS environment is not set. Defaulting to 1 thread. (src/comm.cpp:98)
  using 1 OpenMP thread(s) per MPI task
Reading data file ...
  orthogonal box = (0.0000000 0.0000000 0.0000000) to (15.969932 15.719106 81.083077)
  2 by 1 by 8 MPI processor grid
  reading atoms ...
  864 atoms
Finding 1-2 1-3 1-4 neighbors ...
  special bond factors lj:    0        0        0       
  special bond factors coul:  0        0        0       
     0 = max # of 1-2 neighbors
     0 = max # of 1-3 neighbors
     0 = max # of 1-4 neighbors
     1 = max # of special neighbors
  special bonds CPU = 0.001 seconds
  read_data CPU = 0.009 seconds
Neighbor list info ...
  update every 1 steps, delay 10 steps, check yes
  max neighbors/atom: 2000, page size: 100000
  master list distance cutoff = 6.22
  ghost atom cutoff = 6.22
  binsize = 3.11, bins = 6 6 27
  1 neighbor lists, perpetual/occasional/extra = 1 0 0
  (1) pair quip, perpetual
      attributes: full, newton on
      pair build: full/bin
      stencil: full/bin/3d
      bin: standard
Setting up Verlet run ...
  Unit style    : metal
  Current step  : 0
  Time step     : 0.001
Per MPI rank memory allocation (min/avg/max) = 8.888 | 8.903 | 8.913 Mbytes
Step Temp PotEng TotEng Press Volume c_msd[4] 
       0            0   -6930.8241   -6930.8241   -4495.9065    20354.533            0 
      10    65.904237   -6938.1841   -6930.8324   -5379.5912    20354.533 0.0005000384 
      20    168.73131   -6949.6632    -6930.841   -6364.5261    20354.533 0.0061479459 
      30    200.57733   -6953.2127    -6930.838   -5696.6671    20354.533  0.020662009 
      40    199.55606   -6953.0935   -6930.8327   -4580.1506    20354.533   0.03833664 
      50    226.88579   -6956.1474   -6930.8379   -4419.7801    20354.533  0.051806208 
      60    238.47957   -6957.4392   -6930.8365   -4645.7272    20354.533  0.061424452 
      70    236.06355   -6957.1692   -6930.8359    -4807.043    20354.533  0.069853138 
      80    232.99362   -6956.8259   -6930.8351    -5036.908    20354.533  0.079308594 
      90    234.23747   -6956.9654   -6930.8358   -5260.6038    20354.533  0.090830495 
     100    232.00556   -6956.7159   -6930.8353   -5208.0306    20354.533   0.10432197 
     110    232.79067   -6956.8033   -6930.8352   -5031.3164    20354.533   0.11840709 
     120    238.30149    -6957.419   -6930.8361   -4942.2097    20354.533   0.13201584 
     130    238.74514   -6957.4687   -6930.8363   -4988.8033    20354.533   0.14538478 
     140    232.54984   -6956.7771   -6930.8358   -4942.4536    20354.533   0.15867927 
     150    225.40044   -6955.9792   -6930.8355   -4787.8719    20354.533   0.17110203 
     160    224.38726   -6955.8659   -6930.8352   -4620.0724    20354.533    0.1817825 
     170    231.86358   -6956.7009   -6930.8362   -4442.3359    20354.533   0.19072597 
     180    237.58036   -6957.3391   -6930.8366   -4192.2572    20354.533   0.19889867 
     190    235.69365   -6957.1279    -6930.836   -3927.7806    20354.533   0.20710191 
     200    234.44619   -6956.9885   -6930.8356   -3773.8119    20354.533   0.21513007 
     210    236.73114   -6957.2437    -6930.836   -3777.5502    20354.533   0.22305549 
     220    238.14425   -6957.4012   -6930.8359   -3899.9101    20354.533    0.2315521 
     230     238.4388   -6957.4341   -6930.8359   -4006.5782    20354.533   0.24098695 
     240    239.23886    -6957.523   -6930.8356   -3984.7528    20354.533   0.25141959 
     250     242.0724   -6957.8401   -6930.8366   -3793.3442    20354.533   0.26265129 
     260       239.05   -6957.5024    -6930.836   -3540.3897    20354.533   0.27417391 
     270    235.84511    -6957.145   -6930.8361   -3272.6541    20354.533   0.28493922 
     280    231.62838   -6956.6748   -6930.8363   -2948.2435    20354.533   0.29437431 
     290    226.51317   -6956.1028    -6930.835   -2633.8875    20354.533   0.30220439 
     300    232.88912   -6956.8151    -6930.836   -2478.1682    20354.533   0.30835486 
     310    239.65399   -6957.5709   -6930.8371   -2317.7128    20354.533   0.31386348 
     320    236.98534   -6957.2718   -6930.8357   -2020.1819    20354.533   0.31985126 
     330    235.73864   -6957.1329   -6930.8359   -1957.4113    20354.533   0.32664959 
     340    236.09186   -6957.1723   -6930.8359   -2003.6376    20354.533   0.33435107 
     350    237.19352   -6957.2955   -6930.8363   -2145.8328    20354.533   0.34289663 
     360     235.6501   -6957.1226   -6930.8355   -2186.0282    20354.533   0.35153924 
     370      237.245   -6957.3009   -6930.8359   -2246.4379    20354.533   0.35886165 
     380     239.0727   -6957.5047   -6930.8358   -2396.5837    20354.533   0.36451066 
     390    241.64207   -6957.7913   -6930.8358   -2701.0958    20354.533   0.36907283 
     400    244.68963   -6958.1321   -6930.8366    -3058.184    20354.533   0.37340775 
     410    240.84575   -6957.7024   -6930.8357   -3233.9135    20354.533   0.37836011 
     420    237.91038    -6957.375   -6930.8357   -3296.1667    20354.533    0.3837999 
     430    237.53548   -6957.3335    -6930.836     -3297.92    20354.533   0.38923076 
     440    236.65311   -6957.2351   -6930.8361   -3132.9159    20354.533   0.39408345 
     450    236.54722   -6957.2227   -6930.8355   -2838.3736    20354.533   0.39819744 
     460    240.22636   -6957.6339   -6930.8363   -2750.9298    20354.533   0.40204023 
     470    240.52465   -6957.6669    -6930.836   -2995.4918    20354.533   0.40599969 
     480    237.66852   -6957.3482   -6930.8359   -3342.9489    20354.533   0.40967234 
     490     233.8587   -6956.9231   -6930.8358   -3484.3142    20354.533   0.41268728 
     500    232.08796   -6956.7258   -6930.8361   -3205.4816    20354.533   0.41521326 
     510    230.70203   -6956.5715   -6930.8364   -2716.5526    20354.533   0.41731564 
     520    228.05602   -6956.2759   -6930.8359   -2363.5724    20354.533   0.41870774 
     530    227.97164    -6956.267   -6930.8365   -2215.6832    20354.533   0.41939371 
     540    224.82248   -6955.9152   -6930.8359   -2142.5726    20354.533   0.41965215 
     550    224.12424   -6955.8368   -6930.8354   -2230.4398    20354.533   0.41896539 
     560    230.14975   -6956.5094   -6930.8358   -2549.6413    20354.533   0.41694428 
     570    236.18881   -6957.1833   -6930.8361   -2919.3179    20354.533   0.41431605 
     580    239.11248   -6957.5092   -6930.8358   -3311.7801    20354.533   0.41218239 
     590    240.41038    -6957.654   -6930.8359   -3417.9605    20354.533   0.41128732 
     600     241.9108   -6957.8213   -6930.8358   -3319.9933    20354.533   0.41181297 
     610    244.71998   -6958.1355   -6930.8366   -3218.6172    20354.533   0.41378595 
     620     241.0794   -6957.7291   -6930.8363   -3147.9995    20354.533   0.41727735 
     630    235.50013   -6957.1059   -6930.8355   -3135.0665    20354.533   0.42154918 
     640    235.11112   -6957.0634   -6930.8364   -3257.6948    20354.533   0.42544554 
     650    231.17765   -6956.6238   -6930.8356   -3363.2824    20354.533   0.42831027 
     660    230.96587      -6956.6   -6930.8354    -3278.616    20354.533   0.42962018 
     670    236.71051   -6957.2418   -6930.8364   -3057.6575    20354.533   0.43008462 
     680    237.89077   -6957.3735   -6930.8365   -2729.6334    20354.533   0.43147958 
     690    233.77068   -6956.9134    -6930.836   -2455.8007    20354.533   0.43467882 
     700    232.73214   -6956.7972   -6930.8356   -2458.1317    20354.533   0.43896836 
     710     238.6713   -6957.4612    -6930.837     -2772.14    20354.533   0.44306523 
     720    238.40713   -6957.4307    -6930.836    -2807.083    20354.533   0.44626276 
     730     240.4682   -6957.6606    -6930.836   -2649.5036    20354.533   0.44805059 
     740    245.36669   -6958.2082   -6930.8372   -2598.8991    20354.533   0.44927166 
     750    241.62154   -6957.7892    -6930.836   -2531.0184    20354.533   0.45180545 
     760    240.83361   -6957.7015   -6930.8361   -2663.8574    20354.533   0.45609454 
     770    242.81641   -6957.9232   -6930.8366   -2904.7405    20354.533   0.46149917 
     780    240.55873   -6957.6716   -6930.8369   -3011.4883    20354.533   0.46731331 
     790    234.48344    -6956.992    -6930.835   -2984.9723    20354.533   0.47270083 
     800    241.36903   -6957.7616   -6930.8365   -3043.6074    20354.533   0.47702973 
     810    248.02611   -6958.5044   -6930.8367   -3212.7271    20354.533   0.48113406 
     820    247.07524   -6958.3983   -6930.8367   -3298.0857    20354.533   0.48604281 
     830    241.62282   -6957.7892   -6930.8358   -3451.0521    20354.533   0.49200069 
     840    241.09937   -6957.7309   -6930.8359   -3767.5583    20354.533    0.4980224 
     850    243.86884   -6958.0407   -6930.8367   -3969.0277    20354.533   0.50315689 
     860    240.67295   -6957.6839   -6930.8364   -3878.9651    20354.533   0.50749313 
     870    234.88256   -6957.0377   -6930.8362   -3705.4216    20354.533   0.51123394 
     880     230.9712   -6956.6008   -6930.8356   -3732.8653    20354.533   0.51418617 
     890    234.71187   -6957.0191   -6930.8366   -3903.3458    20354.533   0.51649556 
     900    236.69755   -6957.2408   -6930.8368   -4096.5729    20354.533   0.51925856 
     910    234.14135   -6956.9543   -6930.8355   -4214.9524    20354.533   0.52270274 
     920     239.2214   -6957.5215    -6930.836    -4371.806    20354.533    0.5260843 
     930    246.23434   -6958.3046   -6930.8368   -4388.3174    20354.533   0.52947161 
     940    244.93011   -6958.1585   -6930.8361    -4140.633    20354.533    0.5331014 
     950    244.54566   -6958.1146   -6930.8351   -3874.4856    20354.533   0.53608506 
     960     253.5944   -6959.1267   -6930.8378   -3771.8165    20354.533   0.53803089 
     970     248.3829   -6958.5442   -6930.8367   -3524.3442    20354.533   0.53986141 
     980    238.35135   -6957.4243   -6930.8358   -3260.4338    20354.533   0.54101785 
     990    236.50322   -6957.2181   -6930.8358   -3175.8957    20354.533   0.54134372 
    1000    241.19481   -6957.7423   -6930.8367   -3304.4267    20354.533   0.54225539 
    1010    241.95562   -6957.8272   -6930.8367   -3391.2596    20354.533   0.54502288 
    1020    240.16869   -6957.6269   -6930.8357   -3447.0496    20354.533   0.54930268 
    1030    245.53617   -6958.2267   -6930.8368   -3456.4918    20354.533   0.55419445 
    1040    247.77076    -6958.476   -6930.8368   -3298.5887    20354.533   0.55950896 
    1050     244.2442   -6958.0816   -6930.8358   -3136.4369    20354.533   0.56417367 
    1060    244.98518   -6958.1647   -6930.8363    -3248.508    20354.533   0.56688242 
    1070    245.91228   -6958.2687   -6930.8368   -3519.1406    20354.533   0.56812185 
    1080    243.86214    -6958.039   -6930.8358   -3692.2455    20354.533   0.56934968 
    1090    246.84293   -6958.3726   -6930.8369   -3906.5524    20354.533   0.57178329 
    1100      244.881   -6958.1533   -6930.8365   -4089.2355    20354.533   0.57651628 
    1110    240.43499   -6957.6569    -6930.836   -4077.0823    20354.533    0.5832495 
    1120    237.92872   -6957.3775   -6930.8362   -4003.4461    20354.533   0.59023617 
    1130    236.51172   -6957.2189   -6930.8357   -4042.4172    20354.533   0.59550452 
    1140    238.96444   -6957.4936   -6930.8368   -4040.0227    20354.533   0.59831056 
    1150    235.78148   -6957.1379   -6930.8361   -3879.2914    20354.533   0.59921996 
    1160    234.20341   -6956.9615   -6930.8358   -3837.8249    20354.533    0.5985221 
    1170    240.41902   -6957.6544   -6930.8353    -3935.141    20354.533   0.59722217 
    1180    255.54411   -6959.3435   -6930.8372     -4092.55    20354.533   0.59743217 
    1190    258.99242   -6959.7285   -6930.8375   -4046.2257    20354.533    0.6011544 
    1200    248.88394   -6958.5986   -6930.8352   -3714.2841    20354.533   0.60762836 
    1210    248.47025   -6958.5542    -6930.837   -3470.6197    20354.533   0.61448368 
    1220    244.95446   -6958.1613   -6930.8363   -3177.7538    20354.533   0.62050251 
    1230     241.8534   -6957.8153   -6930.8362   -3046.6572    20354.533   0.62473384 
    1240    239.93171   -6957.6017    -6930.837   -2953.8402    20354.533   0.62763822 
    1250    233.26136   -6956.8559   -6930.8352   -2777.3686    20354.533   0.63038166 
    1260    237.93988   -6957.3787   -6930.8361   -2775.1391    20354.533    0.6330371 
    1270    246.35675   -6958.3182   -6930.8368   -2888.4422    20354.533   0.63643977 
    1280    248.45813   -6958.5525   -6930.8366   -2920.0425    20354.533   0.64183599 
    1290    245.47675   -6958.2198   -6930.8365   -2685.1116    20354.533   0.64908358 
    1300    241.63357   -6957.7906    -6930.836   -2354.7632    20354.533   0.65669456 
    1310    242.43427   -6957.8804   -6930.8365   -2080.8148    20354.533   0.66291632 
    1320    245.28186   -6958.1979   -6930.8364   -1915.3295    20354.533    0.6669735 
    1330    248.60459   -6958.5691   -6930.8369   -2012.6907    20354.533   0.66938419 
    1340    247.35187   -6958.4291   -6930.8367   -2148.5782    20354.533   0.67162517 
    1350    244.12194   -6958.0683   -6930.8361   -1975.6824    20354.533   0.67460298 
    1360    246.17117   -6958.2975   -6930.8367   -1695.7314    20354.533   0.67795806 
    1370    247.81913   -6958.4815   -6930.8369   -1406.6961    20354.533   0.68155459 
    1380    246.54204   -6958.3387   -6930.8366   -1365.9532    20354.533   0.68550067 
    1390    245.37096   -6958.2083   -6930.8368   -1609.7263    20354.533   0.68946972 
    1400    243.36629   -6957.9841   -6930.8362   -2040.6718    20354.533   0.69316197 
    1410    243.94371   -6958.0489   -6930.8367    -2492.182    20354.533   0.69632692 
    1420    241.91407   -6957.8222   -6930.8364   -2641.5513    20354.533   0.69908731 
    1430    240.29252    -6957.641   -6930.8361   -2738.6597    20354.533   0.70169952 
    1440    243.00906   -6957.9446   -6930.8366   -2920.7186    20354.533   0.70454594 
    1450    244.25454   -6958.0838   -6930.8369   -3048.4377    20354.533   0.70795341 
    1460    242.09952    -6957.843   -6930.8364   -2976.5792    20354.533   0.71130224 
    1470    243.45842   -6957.9943   -6930.8362   -3081.8274    20354.533    0.7132231 
    1480    250.70065   -6958.8033   -6930.8373   -3338.8349    20354.533   0.71370178 
    1490    252.18388   -6958.9685    -6930.837   -3376.1382    20354.533    0.7144344 
    1500    251.43885   -6958.8853   -6930.8369   -3315.8008    20354.533   0.71637247 
    1510    251.24938    -6958.864   -6930.8368   -3301.7557    20354.533   0.71942223 
    1520    249.70733   -6958.6922    -6930.837   -3282.0336    20354.533   0.72323431 
    1530    244.44696   -6958.1054    -6930.837   -3302.2244    20354.533   0.72763008 
    1540    236.75683   -6957.2464   -6930.8358   -3274.9713    20354.533    0.7323608 
    1550    237.57971   -6957.3389   -6930.8365   -3428.4116    20354.533   0.73683196 
    1560    241.15015   -6957.7371   -6930.8364   -3593.4236    20354.533   0.74115804 
    1570    245.97302   -6958.2754   -6930.8368   -3733.6516    20354.533   0.74547586 
    1580    248.38573   -6958.5448    -6930.837   -3697.1233    20354.533   0.74963233 
    1590    246.86432   -6958.3746   -6930.8366   -3466.8015    20354.533   0.75351214 
    1600     247.7118   -6958.4687    -6930.836   -3388.9239    20354.533   0.75677589 
    1610    253.82537   -6959.1519   -6930.8373    -3531.034    20354.533   0.75955216 
    1620    251.92871   -6958.9401   -6930.8371   -3648.0728    20354.533   0.76294914 
    1630    244.66821   -6958.1291    -6930.836   -3657.5504    20354.533   0.76703359 
    1640    244.28177   -6958.0866   -6930.8366   -3671.0399    20354.533   0.77099433 
    1650    244.83575   -6958.1483   -6930.8365   -3788.3144    20354.533   0.77508445 
    1660    246.40424   -6958.3232   -6930.8364    -3813.853    20354.533   0.77989624 
    1670     250.2724    -6958.755   -6930.8367   -3565.9239    20354.533   0.78529205 
    1680    252.16532   -6958.9666   -6930.8372   -3320.4462    20354.533   0.79034429 
    1690    248.06278   -6958.5083   -6930.8366    -3241.467    20354.533   0.79410211 
    1700    246.18953   -6958.2989   -6930.8361   -3435.3007    20354.533   0.79613512 
    1710    251.37963   -6958.8788   -6930.8371   -3765.1983    20354.533   0.79697816 
    1720    252.49637   -6959.0036   -6930.8373   -4015.6546    20354.533   0.79809077 
    1730    246.19105   -6958.2991   -6930.8361   -4012.8085    20354.533   0.80001418 
    1740    244.72061   -6958.1349   -6930.8359   -3836.2711    20354.533   0.80174398 
    1750    250.77886   -6958.8116   -6930.8368   -3664.5304    20354.533   0.80300604 
    1760    253.23106   -6959.0851   -6930.8368   -3574.9487    20354.533   0.80474848 
    1770     250.9182   -6958.8268   -6930.8365   -3643.0638    20354.533   0.80759401 
    1780    248.19059    -6958.522   -6930.8359    -3925.933    20354.533   0.81194222 
    1790    251.50586   -6958.8923   -6930.8365   -4358.7518    20354.533   0.81788965 
    1800    254.74644   -6959.2547   -6930.8373   -4555.0094    20354.533   0.82537267 
    1810    250.83969   -6958.8178   -6930.8362   -4276.5786    20354.533   0.83331392 
    1820     251.8855   -6958.9345   -6930.8362   -4012.9598    20354.533   0.83972246 
    1830      255.594   -6959.3496   -6930.8377   -3901.3718    20354.533   0.84445553 
    1840    246.70995   -6958.3569   -6930.8361   -3626.6691    20354.533   0.84851616 
    1850    241.86654   -6957.8157   -6930.8351   -3456.7016    20354.533   0.85180041 
    1860    250.43531   -6958.7737   -6930.8372    -3514.864    20354.533    0.8548436 
    1870    251.67809   -6958.9117   -6930.8366    -3317.435    20354.533   0.85904271 
    1880    249.74232   -6958.6953   -6930.8361   -2814.4162    20354.533   0.86408884 
    1890    251.03758   -6958.8407    -6930.837   -2598.2462    20354.533   0.86903478 
    1900    247.47063   -6958.4421   -6930.8364   -2762.2368    20354.533   0.87371783 
    1910    246.41436   -6958.3238   -6930.8359   -3170.3298    20354.533   0.87809892 
    1920    252.32808   -6958.9847   -6930.8371   -3481.0709    20354.533    0.8826292 
    1930    251.70282   -6958.9148    -6930.837   -3522.0143    20354.533   0.88826081 
    1940    246.41342   -6958.3234   -6930.8356   -3409.4835    20354.533   0.89502972 
    1950     251.5574   -6958.8983   -6930.8367   -3383.3627    20354.533   0.90192896 
    1960    256.70331    -6959.473   -6930.8374   -3284.7665    20354.533   0.90797257 
    1970    251.99325   -6958.9465   -6930.8363   -3170.8424    20354.533   0.91214044 
    1980    249.36931   -6958.6536    -6930.836    -3268.664    20354.533   0.91382089 
    1990    253.19383   -6959.0808   -6930.8367   -3484.4565    20354.533   0.91429439 
    2000    255.75062   -6959.3664    -6930.837   -3645.8324    20354.533   0.91593526 
Loop time of 1469.92 on 16 procs for 2000 steps with 864 atoms

Performance: 0.118 ns/day, 204.155 hours/ns, 1.361 timesteps/s
97.5% CPU use with 16 MPI tasks x 1 OpenMP threads

MPI task timing breakdown:
Section |  min time  |  avg time  |  max time  |%varavg| %total
---------------------------------------------------------------
Pair    | 680.69     | 1184.6     | 1459.5     | 592.1 | 80.59
Bond    | 0.00014591 | 0.00039171 | 0.00097418 |   0.0 |  0.00
Neigh   | 0.017905   | 0.027891   | 0.036386   |   3.5 |  0.00
Comm    | 10.22      | 266.68     | 745.2      |1202.6 | 18.14
Output  | 0.13246    | 9.3315     | 21.962     | 277.5 |  0.63
Modify  | 0.0093009  | 0.010575   | 0.012091   |   0.8 |  0.00
Other   |            | 9.229      |            |       |  0.63

Nlocal:        54.0000 ave          71 max          39 min
Histogram: 3 2 1 1 0 4 1 0 3 1
Nghost:        497.125 ave         591 max         387 min
Histogram: 1 2 1 1 1 3 2 1 2 2
Neighs:         0.00000 ave           0 max           0 min
Histogram: 16 0 0 0 0 0 0 0 0 0
FullNghs:      2382.00 ave        3956 max        1259 min
Histogram: 3 2 2 0 2 3 1 1 1 1

Total # of neighbors = 38112
Ave neighs/atom = 44.111111
Ave special neighs/atom = 0.0000000
Neighbor list builds = 199
Dangerous builds = 198
Setting up Verlet run ...
  Unit style    : metal
  Current step  : 2000
  Time step     : 0.001
Per MPI rank memory allocation (min/avg/max) = 8.897 | 8.905 | 8.914 Mbytes
Step Temp PotEng TotEng Press Volume c_msd[4] 
    2000          975   -6959.3664   -6850.6037    564.46609    20354.533   0.91593526 
    2010    853.51242   -6945.7763   -6850.5657     3026.708    20355.083   0.93085996 
    2020    672.12943    -6925.311   -6850.3339    6404.9361    20358.954    0.9579117 
    2030    613.73779   -6918.2326   -6849.7692    7127.5819    20369.416   0.98093707 
    2040    592.68896   -6914.9164   -6848.8011    6588.9823    20387.419   0.99880633 
    2050    571.18547   -6911.3322   -6847.6156    5858.3056    20412.511    1.0156843 
    2060    564.08696   -6909.4096   -6846.4848    5011.9132    20443.944    1.0330475 
    2070    600.31349   -6912.4265   -6845.4606    4205.4868    20480.848    1.0513111 
    2080    615.86143   -6913.1258   -6844.4256    4057.6883     20522.44    1.0728786 
    2090    595.47823   -6909.7663   -6843.3398    4004.5054    20568.487    1.0969551 
    2100    609.14257   -6910.0781   -6842.1273    2935.9086     20618.78    1.1191022 
    2110    631.11109   -6911.1069   -6840.7055    1606.4402    20672.176     1.138912 
    2120    624.33579   -6908.8188   -6839.1732     661.4244    20727.201    1.1582072 
    2130    624.30625   -6907.2306   -6837.5883   -288.86453    20782.663    1.1776549 
    2140     626.2103    -6905.797   -6835.9423   -900.61436    20837.449     1.198641 
    2150     621.4017   -6903.5771   -6834.2588   -1142.6984    20890.771    1.2212128 
    2160    617.52387   -6901.4334   -6832.5477    -1317.141    20942.225    1.2442293 
    2170    627.96953   -6900.8468   -6830.7958   -1275.0863    20991.586    1.2676818 
    2180    647.27414   -6901.1843   -6828.9799   -1167.0892    21038.815    1.2930908 
    2190    666.06806   -6901.4189    -6827.118   -1073.3887    21083.982    1.3219765 
    2200     682.1468   -6901.3063   -6825.2118   -1122.1642     21127.14    1.3541113 
    2210    677.12988   -6898.8439   -6823.3091   -1149.3428    21168.241    1.3873987 
    2220    674.86337   -6896.6885   -6821.4064   -1640.8025    21207.173    1.4182113 
    2230    686.39143   -6896.0321   -6819.4641   -2412.0902     21243.39    1.4451126 
    2240    702.02116   -6895.7812   -6817.4697   -2988.4941    21276.086    1.4688103 
    2250    714.26654    -6895.114   -6815.4365   -3215.3732    21304.628    1.4891302 
    2260    724.82496   -6894.2424   -6813.3871   -2660.0852    21328.868    1.5066429 
    2270    729.13786   -6892.6671   -6811.3306   -1440.6171    21349.525    1.5237525 
    2280    723.84535   -6890.0436   -6809.2975   -351.16269    21368.005     1.542756 
    2290    719.98096   -6887.6029    -6807.288    -82.64713    21385.549    1.5629387 
    2300    733.93032   -6887.1257   -6805.2547    -773.4401    21402.461     1.581047 
    2310    751.33347   -6886.9851   -6803.1727   -1644.3247    21418.025    1.5961465 
    2320     747.4834   -6884.4677   -6801.0848   -1801.3382    21431.358    1.6087158 
    2330    756.54634   -6883.4118    -6799.018   -1617.3382    21442.303    1.6182078 
    2340    785.03894   -6884.4789   -6796.9066   -1640.8987     21451.06    1.6279726 
    2350    800.19019   -6884.0326   -6794.7701   -1461.9806    21457.696     1.643151 
    2360    794.53441   -6881.2916   -6792.6601   -1187.4763    21462.463    1.6638099 
    2370    784.04229   -6878.0414   -6790.5803    -752.2092    21465.743    1.6850653 
    2380    795.31274   -6877.2132   -6788.4949   -432.99474    21468.053    1.7012099 
    2390     821.9811   -6878.0573   -6786.3641    -368.1348    21469.769    1.7133938 
    2400    816.01313   -6875.2629   -6784.2355    5.5811816    21471.051    1.7273634 
    2410    831.83562    -6874.929   -6782.1365    277.20569    21472.303    1.7442562 
    2420    864.04176   -6876.3928   -6780.0076    304.84123    21473.832    1.7656638 
    2430    877.23719   -6875.7518   -6777.8947    505.37983    21475.716    1.7931101 
    2440    870.25342   -6872.9291    -6775.851    884.53596    21478.173     1.822685 
    2450    878.16539   -6871.8197    -6773.859    1057.9346    21481.596    1.8481414 
    2460    878.83881   -6869.9192   -6771.8834    1216.0694    21486.198    1.8671674 
    2470    896.39666    -6869.923   -6769.9286    1037.3107    21492.084    1.8811498 
    2480    898.94538   -6868.2604   -6767.9817    916.36616    21499.099    1.8949241 
    2490    899.72427   -6866.4449   -6766.0793    325.62106    21506.996    1.9126736 
    2500    896.65363   -6864.2227   -6764.1996   -282.15434    21515.126    1.9377766 
    2510    899.45453   -6862.6773   -6762.3418   -295.57619    21522.842    1.9689335 
    2520    912.45848     -6862.27   -6760.4839   -128.86661    21530.088     2.002729 
    2530    932.06766   -6862.6116    -6758.638     1.363996    21537.034    2.0372339 
    2540    922.57951   -6859.7501   -6756.8349    369.16723    21543.892    2.0713725 
    2550    929.01546   -6858.7202   -6755.0872    547.95089    21551.057    2.1025275 
    2560    939.72987   -6858.1818   -6753.3535    685.61454    21558.743    2.1333392 
    2570    936.13453   -6856.0932    -6751.666    1288.9894    21567.174    2.1649573 
    2580    947.30511    -6855.693   -6750.0197    1479.9351    21576.963    2.1954422 
    2590    970.03163   -6856.6027   -6748.3942    1035.5708      21588.3    2.2243277 
    2600    985.84239   -6856.7894   -6746.8172    829.26875    21600.734    2.2535143 
    2610    1000.9563   -6856.9933   -6745.3351    901.98845    21614.032     2.283586 
    2620    1006.5397   -6856.2403   -6743.9592    618.05332    21628.178    2.3147956 
    2630     970.9551    -6851.024   -6742.7125    784.07855    21642.915    2.3506154 
    2640    972.31376   -6850.0068   -6741.5438    932.34782    21658.392    2.3898639 
    2650    991.97311   -6851.0451    -6740.389    687.45183    21674.746    2.4304746 
    2660    973.80496   -6847.9159   -6739.2865    852.46843    21691.801    2.4727696 
    2670    982.45674   -6847.8308   -6738.2362    746.35404    21709.651    2.5142608 
    2680    995.48289   -6848.2542   -6737.2066    494.50553    21728.186    2.5573241 
    2690     995.6169   -6847.2978   -6736.2352    611.26405    21747.171    2.6035145 
    2700    997.23033   -6846.5752   -6735.3326    559.76525    21766.681    2.6517626 
    2710     1001.334   -6846.1895   -6734.4892    391.62894    21786.657    2.7015297 
    2720    1000.8831   -6845.3641   -6733.7141    477.46679     21806.94    2.7529007 
    2730    996.14144    -6844.129   -6733.0079    908.25435    21827.636    2.8045797 
    2740    980.88126   -6841.7923   -6732.3735    1791.5812    21849.279    2.8548665 
    2750    975.38479   -6840.5809   -6731.7752    2297.9407    21872.887    2.9048995 
    2760    999.65902   -6842.7045    -6731.191    1727.5348    21898.979    2.9547621 
    2770    1008.3122    -6843.112   -6730.6333    1306.0505    21926.995    3.0035551 
    2780    1032.6968   -6845.3481   -6730.1492    808.62193    21956.369    3.0481228 
    2790    1040.9698      -6845.9   -6729.7782    668.66849    21986.517    3.0897639 
    2800    1015.4204   -6842.8328   -6729.5611    982.13795      22017.3    3.1320497 
    2810    1018.5825   -6843.0853   -6729.4609    358.56252    22048.914    3.1757726 
    2820    996.04827   -6840.5385   -6729.4278   -391.95267    22080.679    3.2239161 
    2830    985.44227   -6839.3624   -6729.4348   -1147.3348     22111.65    3.2735439 
    2840    985.48472   -6839.3879   -6729.4556   -1375.4738    22140.952    3.3191197 
    2850      995.464   -6840.5528   -6729.5073   -1665.0461    22168.232    3.3615724 
    2860    1001.7381   -6841.3449   -6729.5995   -1947.9606    22193.172    3.4074995 
    2870    999.23546   -6841.2085   -6729.7423   -2049.3607    22215.454    3.4570199 
    2880    1008.3402    -6842.435   -6729.9531   -2498.4257    22234.898    3.5056016 
    2890    1001.1951   -6841.9198   -6730.2349   -2834.8914    22251.022    3.5545285 
    2900    989.25626    -6840.933     -6730.58   -2839.6114    22263.444      3.60883 
    2910    978.71195   -6840.1409   -6730.9641   -2697.1524    22272.174    3.6725552 
    2920    957.30382   -6838.1388   -6731.3501   -2596.7427    22277.394    3.7412593 
    2930    963.07876   -6839.1424   -6731.7095   -2817.0657     22279.23    3.8072488 
    2940    970.20185   -6840.2813   -6732.0538   -2676.0081    22277.512    3.8670888 
    2950    961.35985   -6839.6235   -6732.3824   -2185.4135    22272.455    3.9173708 
    2960    972.98689   -6841.2381      -6732.7   -2368.6468    22264.589    3.9596179 
    2970    971.45433    -6841.382   -6733.0148   -2653.1398     22253.76     4.001352 
    2980    975.59418   -6842.1569   -6733.3279   -2399.4297    22239.705    4.0431264 
    2990    983.51865   -6843.3666   -6733.6536   -1771.1295    22222.742    4.0813757 
    3000    960.18356   -6841.0793   -6733.9694   -991.66512    22203.674    4.1152809 
    3010    952.48354   -6840.5067   -6734.2557   -459.82757    22183.462     4.145996 
    3020    965.41458   -6842.1832   -6734.4898    220.71574    22162.859    4.1763422 
    3030    992.11082   -6845.3784   -6734.7069    735.99096     22142.66    4.2102918 
    3040    989.24439   -6845.2941   -6734.9424     1188.191     22123.53    4.2498445 
    3050    983.96884   -6844.9729   -6735.2097    1553.1039    22106.032    4.2943897 
    3060    966.21824   -6843.2734   -6735.4903     1606.175    22090.563    4.3415635 
    3070    958.53991   -6842.6792   -6735.7526    1276.0624    22077.167    4.3887319 
    3080    966.02606   -6843.7533   -6735.9917    586.97989    22065.403    4.4335729 
    3090    960.25471   -6843.3307   -6736.2129    273.89943    22054.488    4.4748046 
    3100    937.90139     -6841.01   -6736.3857    522.34097    22044.052    4.5109678 
    3110    957.64696   -6843.3293   -6736.5024    520.91216    22034.286    4.5420383 
    3120     962.4191   -6843.9343    -6736.575    399.50654     22025.22    4.5727408 
    3130    940.40323   -6841.5139   -6736.6105    339.17613    22016.701    4.6054385 
    3140    933.99622   -6840.7695   -6736.5808    363.59743    22008.661    4.6390641 
    3150    925.76707   -6839.7326   -6736.4619    201.06418    22001.089    4.6723225 
    3160    927.27498   -6839.6815   -6736.2426    235.10663    21993.828    4.7025578 
    3170     935.9897   -6840.3314   -6735.9203    460.41932    21986.904    4.7295509 
    3180    936.65219   -6839.9921   -6735.5071    969.55084    21980.623    4.7554687 
    3190    949.90327   -6840.9739   -6735.0107    986.38442    21975.501    4.7850417 
    3200    996.87709   -6845.6631     -6734.46    808.92081    21971.592    4.8252503 
    3210    1004.5175    -6845.984   -6733.9286    1062.4193    21968.766    4.8806249 
    3220    976.63806   -6842.4073   -6733.4619      982.322    21967.241    4.9466086 
    3230    971.60543   -6841.4083   -6733.0242    696.60278    21966.921     5.015806 
    3240    970.42198   -6840.8304   -6732.5784     1023.931    21967.546    5.0881431 
    3250    950.71274   -6838.1708   -6732.1173    1926.9575    21969.511    5.1621814 
    3260    939.44946   -6836.4195   -6731.6225    2618.6905    21973.854    5.2328734 
    3270    948.98847     -6836.93   -6731.0689    2475.0193    21981.366    5.2917197 
    3280    961.36503   -6837.6966   -6730.4549    1917.4588    21991.928    5.3394707 
    3290    951.28242   -6835.9264   -6729.8094    2013.0188    22004.983    5.3845976 
    3300    943.85219   -6834.4243   -6729.1362    2091.5633     22020.56    5.4309106 
    3310    951.25044   -6834.5219   -6728.4085    1907.7405    22038.741    5.4817412 
    3320    963.98402   -6835.1607   -6727.6269    1852.5181    22059.358    5.5410712 
    3330    997.76683   -6838.1275   -6726.8251    1540.1944    22082.292    5.6078861 
    3340    1012.5589   -6839.0066   -6726.0541    1622.2574    22107.269      5.67619 
    3350    1009.7294   -6838.0226   -6725.3858    1628.0668    22134.324     5.740441 
    3360    994.64533   -6835.7611    -6724.807    1190.5387    22163.429    5.8022137 
    3370    991.97993   -6834.9406   -6724.2838    434.56729    22194.039     5.863372 
    3380    996.61161   -6834.9595    -6723.786   -31.967795    22225.284    5.9259548 
    3390    1005.4146   -6835.4868   -6723.3313   -201.16518    22256.541    5.9916935 
    3400    1001.1372   -6834.6153    -6722.937    7.4684608    22287.592    6.0584625 
    3410    989.56734   -6832.9999   -6722.6122    339.76482    22318.662    6.1226848 
    3420    997.26349   -6833.5719   -6722.3257    170.02764    22350.103    6.1839257 
    3430    1015.8289   -6835.3882   -6722.0709   -321.61828    22381.702    6.2484593 
    3440    1024.8121   -6836.2208   -6721.9015   -743.13673     22412.84    6.3157354 
    3450    1005.9521   -6834.0401   -6721.8246   -702.91449    22443.021    6.3816907 
    3460    1024.9366   -6836.1746   -6721.8414   -1084.8619    22472.152    6.4486496 
    3470    1029.7351   -6836.8345    -6721.966     -1345.43    22499.807    6.5205761 
    3480    995.93702   -6833.3005   -6722.2022   -1330.3402    22525.671    6.5949366 
    3490    985.03136   -6832.3692   -6722.4875   -1991.9943    22549.628    6.6647244 
    3500    994.55927   -6833.7422   -6722.7976   -2662.0859    22570.897    6.7279491 
    3510    1001.8459    -6834.912   -6723.1546   -2629.7818    22588.706    6.7909615 
    3520    1016.5494   -6836.9924   -6723.5948   -2684.2868    22602.985    6.8568096 
    3530    1005.6647   -6836.3087   -6724.1253   -2699.7978    22613.718    6.9187583 
    3540    994.49957    -6835.666   -6724.7281    -2518.709    22620.889      6.97527 
    3550    987.66732   -6835.5558     -6725.38   -2003.4124    22624.776    7.0291722 
    3560    977.79049   -6835.1152   -6726.0412    -1963.744    22625.964    7.0750562 
    3570    969.54317   -6834.8512   -6726.6972   -2268.8122    22624.526    7.1080824 
    3580    961.11429   -6834.5411   -6727.3273     -2553.12    22620.121    7.1289315 
    3590    946.86867   -6833.5523   -6727.9277   -2636.1384    22612.409    7.1486295 
    3600    929.14729   -6832.0986   -6728.4509   -2363.5728    22601.327    7.1806189 
    3610      949.266   -6834.7831   -6728.8911   -2235.5223    22587.183    7.2285976 
    3620    961.29994   -6836.5081   -6729.2737   -1955.4358    22570.197    7.2846544 
    3630    970.04193    -6837.849   -6729.6394   -1741.1154    22550.688    7.3356975 
    3640    971.05477   -6838.3189   -6729.9963   -1366.4051    22529.013    7.3754542 
    3650    972.36593   -6838.8094   -6730.3405   -1066.5092    22505.647    7.4035489 
    3660     989.3954   -6841.0665   -6730.6979   -1116.0258    22480.955    7.4248333 
    3670    960.37327   -6838.1851    -6731.054   -951.45881    22454.968    7.4489933 
    3680    956.82692   -6838.1273   -6731.3918   -1149.8146    22427.808    7.4814598 
    3690    953.90267   -6838.0951   -6731.6858   -801.94129    22399.381    7.5176233 
    3700    947.21022   -6837.5807    -6731.918   -131.18526    22370.127    7.5462984 
    3710    964.87905   -6839.7317    -6732.098    96.191882    22340.831    7.5612563 
    3720    952.08539   -6838.4416    -6732.235     491.1017     22311.86    7.5666523 
    3730    934.88581   -6836.5927   -6732.3048    957.03875    22283.722    7.5695287 
    3740    972.28925   -6840.7743   -6732.3139    831.70457    22256.949      7.57355 
    3750    979.46981   -6841.5676   -6732.3062    578.06181    22231.413    7.5823415 
    3760    960.21565   -6839.4221   -6732.3086    737.22568    22206.833     7.597437 
    3770    958.06716   -6839.1575   -6732.2837    807.55495    22183.353    7.6163371 
    3780    958.28063    -6839.113   -6732.2153    731.56571    22161.054    7.6355386 
    3790     965.3898   -6839.8062   -6732.1155    635.21582    22139.838     7.655096 
    3800    980.31313   -6841.3524    -6731.997    866.25336    22119.614    7.6763669 
    3810    985.91504   -6841.8578   -6731.8775    1474.0318    22100.677    7.7000548 
    3820    983.30785   -6841.4712   -6731.7817    1624.7947    22083.646    7.7251815 
    3830    965.57689   -6839.4028   -6731.6912    2113.0166    22068.826     7.751376 
    3840    967.24927    -6839.494   -6731.5959     2408.158    22056.716    7.7769834 
    3850    950.60348   -6837.5123    -6731.471    2485.1636    22047.681    7.8046589 
    3860    954.01914   -6837.7366   -6731.3144    1955.2389    22041.745    7.8399269 
    3870    968.91036   -6839.1985   -6731.1151    1001.4499    22038.232    7.8826327 
    3880    989.36271   -6841.2694   -6730.9045    436.71437    22036.038     7.926024 
    3890    996.45326   -6841.8686   -6730.7127    520.15306    22034.486    7.9649899 
    3900    1008.3509   -6843.0538   -6730.5708    500.01122    22033.565    7.9980221 
    3910    1005.9166   -6842.7085   -6730.4969    463.08535    22033.272    8.0302482 
    3920    989.27281   -6840.8457   -6730.4908    523.42309    22033.573    8.0652558 
    3930    960.47612   -6837.6556   -6730.5131    368.72401     22034.48     8.100251 
    3940    938.56509   -6835.2039   -6730.5055    677.10767    22035.916    8.1320643 
    3950    944.87684   -6835.8328   -6730.4304    942.48532    22038.182    8.1628756 
    3960    956.42429   -6836.9835   -6730.2929    1127.8002    22041.611    8.1931865 
    3970    945.71259   -6835.5979   -6730.1023    1206.0041    22046.443    8.2219638 
    3980     950.2314   -6835.8582   -6729.8585    1038.6467    22052.754    8.2499018 
    3990    961.86562   -6836.8579   -6729.5604    590.57967    22060.308    8.2818974 
    4000    949.71852   -6835.1608   -6729.2183    364.55663    22068.644    8.3199631 
    4010    964.29922   -6836.3996   -6728.8306   -259.20065    22077.393    8.3588338 
    4020     982.1774   -6837.9604    -6728.397   -622.55989    22085.854    8.3914149 
    4030    984.64813    -6837.814    -6727.975   -303.62603    22093.609    8.4171136 
    4040    945.98181   -6833.0877    -6727.562    520.73737    22101.047    8.4378327 
    4050    948.62065   -6832.9445   -6727.1244      578.799     22109.05    8.4514383 
    4060    990.26497   -6837.0858   -6726.6202   -119.61834    22117.722    8.4615172 
    4070    1017.6253   -6839.6487    -6726.131   -454.49905    22126.302    8.4763218 
    4080    1012.7353      -6838.7   -6725.7278   -34.176737    22134.412    8.4963483 
    4090    1000.2237   -6836.9998   -6725.4233     410.5892    22142.502    8.5204041 
    4100    978.61101   -6834.3404   -6725.1749    801.41683    22151.141    8.5389101 
    4110    959.59919   -6831.9723   -6724.9276    779.03577    22160.772    8.5494289 
    4120    975.41439   -6833.4755   -6724.6666    215.51832    22171.353    8.5602011 
    4130    971.04179   -6832.7097   -6724.3885   -35.083915    22182.294    8.5795153 
    4140    974.34761   -6832.7922   -6724.1022    -220.6077     22193.23    8.6128363 
    4150    984.71831   -6833.6637   -6723.8168   -145.41742    22203.942    8.6591265 
    4160    975.77499     -6832.39   -6723.5409    220.84735    22214.528    8.7093941 
    4170    987.52238   -6833.4323   -6723.2727    122.92376    22225.353     8.752209 
    4180    995.61092   -6834.0767   -6723.0148    -137.1683    22236.359    8.7812433 
    4190    1006.0732    -6835.034    -6722.805   -590.65055    22247.174    8.8010888 
    4200    995.57247   -6833.7095   -6722.6519   -664.52923    22257.316    8.8267091 
    4210    973.20437   -6831.1057   -6722.5433   -428.50469    22266.683    8.8711201 
    4220    980.40363   -6831.8124   -6722.4469   -577.03287    22275.472    8.9345143 
    4230    975.76672   -6831.2007   -6722.3525   -610.58228     22283.57    9.0036755 
    4240    960.37643   -6829.3872   -6722.2558   -529.18662     22290.93    9.0643615 
    4250    977.32755   -6831.1619   -6722.1396   -851.80247    22297.595    9.1084354 
    4260    995.87963    -6833.107   -6722.0151   -1301.5872    22303.184    9.1362135 
    4270    1016.5476   -6835.3385    -6721.941   -1722.4745    22307.114    9.1558248 
    4280    1015.1778   -6835.2001   -6721.9554   -1719.9067    22308.904    9.1786563 
    4290     1007.322   -6834.4407   -6722.0724   -1633.8797    22308.479    9.2091284 
    4300    993.76659   -6833.1135   -6722.2573   -1220.9887    22305.997     9.243441 
    4310    994.01091   -6833.3799   -6722.4964   -1082.1272    22301.886    9.2747641 
    4320    983.00756   -6832.4237   -6722.7677   -937.57291    22296.386     9.296266 
    4330    993.89992   -6833.9451   -6723.0741   -935.79295    22289.656    9.3077817 
    4340    1009.9986   -6836.1009    -6723.434   -1004.2937    22281.704    9.3201145 
    4350     1005.898   -6836.0834    -6723.874   -1015.8499    22272.448    9.3377386 
    4360    988.76669     -6834.68   -6724.3816   -598.78417     22261.91    9.3595435 
    4370    953.15732   -6831.2125   -6724.8864    47.010482    22250.616    9.3830616 
    4380    947.58868   -6831.0494   -6725.3445   -315.30843    22239.211    9.4012633 
    4390    953.66025   -6832.1295   -6725.7473   -942.42429    22227.322    9.4117785 
    4400    967.06676   -6834.0004   -6726.1226   -1021.4413     22214.24    9.4208738 
    4410    954.33356   -6832.9223   -6726.4649   -343.97084    22199.889    9.4366083 
    4420    960.02753    -6833.872   -6726.7795    -32.03264     22184.99    9.4650541 
    4430    942.41701   -6832.1726   -6727.0446    4.2346656    22169.978    9.5074005 
    4440    937.66537   -6831.8522   -6727.2543   -232.24395    22154.869    9.5563931 
    4450    939.38724   -6832.1814   -6727.3914    -503.0094      22139.4    9.6033509 
    4460    955.09855   -6834.0077    -6727.465   -660.30635    22123.238    9.6398123 
    4470    974.71163    -6836.226   -6727.4955   -534.39422    22106.211    9.6661246 
    4480    978.58051   -6836.6812   -6727.5191    -71.22963    22088.482    9.6874755 
    4490     951.4543   -6833.6643   -6727.5282    797.03401    22070.649    9.7069621 
    4500    951.75969   -6833.6616   -6727.4914    1379.0562     22053.72    9.7219591 
    4510    965.89411   -6835.1468   -6727.3998     1403.621     22038.41    9.7345728 
    4520     957.7599   -6834.1219   -6727.2823    1160.0974    22024.782    9.7467106 
    4530    926.34324     -6830.45    -6727.115    1283.5162    22012.602    9.7578937 
    4540    927.80807   -6830.3492   -6726.8508     1424.598    22001.983    9.7699503 
    4550     932.9648   -6830.5488   -6726.4752    1699.7937    21993.157    9.7826621 
    4560    939.07529   -6830.7603   -6726.0051    1569.1104    21986.375     9.788822 
    4570    957.36954   -6832.2429   -6725.4469    1056.8587     21981.51    9.7902765 
    4580    967.83903   -6832.8012   -6724.8373    633.14764    21977.968    9.7988443 
    4590    964.70584   -6831.8241   -6724.2097     680.1335    21975.271    9.8244008 
    4600    960.82701   -6830.7507    -6723.569    468.14434    21973.387    9.8690727 
    4610    961.16841   -6830.1236   -6722.9039    169.87603    21972.088    9.9262427 
    4620    957.76853   -6829.0698   -6722.2293    227.92773    21971.048    9.9894607 
    4630    958.27702   -6828.4362    -6721.539    505.65791    21970.332    10.050317 
    4640      974.053   -6829.4998   -6720.8428    405.24767    21970.191    10.102995 
    4650    988.22235   -6830.4123   -6720.1746    516.85761    21970.588     10.14472 
    4660    990.59871   -6830.0707    -6719.568    1034.8102    21971.685    10.174021 
    4670    972.14928   -6827.4689   -6719.0242     1591.806    21974.083    10.189729 
    4680    984.41093   -6828.3323   -6718.5197    1861.2193    21978.433     10.19725 
    4690    994.86396   -6829.0178   -6718.0392    1997.2851    21985.081     10.20989 
    4700    1001.2071   -6829.3008   -6717.6146    1957.1491    21994.213    10.234354 
    4710    1018.3168   -6830.8621   -6717.2673    1461.5142    22005.711    10.264102 
    4720      1005.75   -6829.2062   -6717.0132    1618.1815    22019.111    10.291675 
    4730    983.21887   -6826.5201   -6716.8405    2029.7273    22034.553    10.321939 
    4740    988.47012   -6826.9748   -6716.7095    2067.6454    22052.478      10.3673 
    4750    1006.4743   -6828.8797    -6716.606    1513.0717    22072.876     10.42563 
    4760    1029.0214   -6831.3736   -6716.5847    1130.5459    22095.137    10.486658 
    4770    1035.6197   -6832.2121   -6716.6872    799.21207     22118.76    10.550062 
    4780    1042.4031   -6833.2183   -6716.9367    590.24035    22143.331    10.617567 
    4790    1000.8334    -6828.962   -6717.3176    947.26891    22168.629    10.684111 
    4800    976.28893   -6826.6671   -6717.7606    867.79307    22194.952     10.73581 
    4810    1006.3082   -6830.4968   -6718.2417     253.6303     22222.19    10.770545 
    4820    1016.9843   -6832.2398   -6718.7937   -355.92088    22249.607    10.800698 
    4830     1013.582   -6832.5005   -6719.4339   -449.17829    22276.481    10.836323 
    4840    1013.8238   -6833.2548   -6720.1612   -660.10846    22302.592    10.880518 
    4850    1019.4986   -6834.6966     -6720.97   -1151.0865    22327.668    10.932119 
    4860    1002.1194   -6833.6259    -6721.838   -1411.3284    22351.137    10.990546 
    4870    975.42255    -6831.494   -6722.6841   -1463.9987    22372.651    11.049265 
    4880    989.21814   -6833.8198    -6723.471   -2070.0883    22392.041    11.099567 
    4890    977.79373   -6833.2514    -6724.177   -2033.1479      22408.7    11.133516 
    4900    959.96198   -6831.8798   -6724.7946   -1718.1359    22422.621    11.152947 
    4910    935.63588   -6829.6598   -6725.2882   -1511.7336    22434.208    11.169118 
    4920     901.5099   -6826.1806   -6725.6158   -918.92346    22443.811    11.190518 
    4930    918.16479   -6828.1999   -6725.7772   -636.20448    22452.106    11.218134 
    4940     939.6359   -6830.6209   -6725.8031   -699.17381    22459.489    11.251351 
    4950    962.31694   -6833.1066   -6725.7587   -1154.8073    22465.858    11.290336 
    4960    986.58898    -6835.754   -6725.6986   -1447.2266    22470.699    11.334415 
    4970    975.84932   -6834.5099   -6725.6524   -952.20751    22473.728     11.37841 
    4980    971.60416   -6834.0027   -6725.6187   -655.87454    22475.473    11.414141 
    4990    969.29318   -6833.7103   -6725.5842   -606.45772    22476.333    11.443757 
    5000    936.55288   -6829.9982   -6725.5243    4.7993975     22476.49    11.470706 
Loop time of 2204.14 on 16 procs for 3000 steps with 864 atoms

Performance: 0.118 ns/day, 204.087 hours/ns, 1.361 timesteps/s
97.7% CPU use with 16 MPI tasks x 1 OpenMP threads

MPI task timing breakdown:
Section |  min time  |  avg time  |  max time  |%varavg| %total
---------------------------------------------------------------
Pair    | 1260.3     | 1858       | 2181       | 524.6 | 84.30
Bond    | 0.000211   | 0.00059861 | 0.0014687  |   0.0 |  0.00
Neigh   | 0.029084   | 0.041145   | 0.051553   |   3.4 |  0.00
Comm    | 6.3636     | 262.61     | 829.02     |1345.5 | 11.91
Output  | 0.36273    | 0.36651    | 0.42051    |   2.3 |  0.02
Modify  | 7.2554     | 83.057     | 180.69     | 687.6 |  3.77
Other   |            | 0.01363    |            |       |  0.00

Nlocal:        54.0000 ave          67 max          38 min
Histogram: 1 0 2 1 1 4 4 1 0 2
Nghost:        471.312 ave         518 max         425 min
Histogram: 3 1 2 0 1 1 3 2 1 2
Neighs:         0.00000 ave           0 max           0 min
Histogram: 16 0 0 0 0 0 0 0 0 0
FullNghs:      2069.38 ave        2967 max        1123 min
Histogram: 1 1 2 2 2 2 3 0 1 2

Total # of neighbors = 33110
Ave neighs/atom = 38.321759
Ave special neighs/atom = 0.0000000
Neighbor list builds = 300
Dangerous builds = 300
Setting up Verlet run ...
  Unit style    : metal
  Current step  : 5000
  Time step     : 0.001
Per MPI rank memory allocation (min/avg/max) = 8.898 | 8.905 | 8.914 Mbytes
Step Temp PotEng TotEng Press Volume c_msd[4] 
    5000    936.55288   -6829.9982   -6725.5243    4.7993975     22476.49    11.470706 
    5010    925.19082   -6828.6833   -6725.4769    351.19406    22476.619    11.495066 
    5020    943.97048   -6830.6313   -6725.3299   -23.668922    22477.124    11.517201 
    5030    955.14222   -6831.6504   -6725.1028   -249.36958     22477.63     11.53769 
    5040    955.27378   -6831.3864   -6724.8242   -47.173483    22477.883    11.561359 
    5050    952.85916   -6830.7846   -6724.4918    269.17347    22478.108    11.588587 
    5060    958.69371    -6831.046   -6724.1023     377.1521    22478.677    11.614496 
    5070    976.18046   -6832.5491   -6723.6547   -47.541535    22479.687    11.640677 
    5080     989.8369   -6833.6014   -6723.1836   -526.12208    22480.635    11.673457 
    5090    981.31567   -6832.1853   -6722.7181   -641.77975    22480.943    11.712372 
    5100    982.91631   -6831.8952   -6722.2494   -930.06884    22480.405    11.750452 
    5110    1005.1386   -6833.9027    -6721.778   -1274.5843    22478.655    11.782252 
    5120    1017.6581   -6834.8598   -6721.3385   -1305.2125    22475.285    11.811999 
    5130     1009.382   -6833.5668   -6720.9687   -988.75525    22470.262    11.842898 
    5140    1004.7707    -6832.752   -6720.6684   -691.63043    22463.928     11.87299 
    5150    997.50642   -6831.6884   -6720.4151   -140.00998     22456.72    11.898509 
    5160    994.56547   -6831.1341   -6720.1888   -268.78776    22449.212    11.915746 
    5170    1014.0082   -6833.1032   -6719.9891   -901.49704    22441.271    11.928858 
    5180     1017.445   -6833.3386   -6719.8411   -901.83617     22432.21    11.943829 
    5190    1012.9352   -6832.7776   -6719.7832   -466.33996    22421.979    11.961371 
    5200    999.28406   -6831.2692   -6719.7975    229.93963    22411.147    11.978286 
    5210    1008.1534     -6832.35    -6719.889    757.36213    22400.556    11.991381 
    5220    1020.1753   -6833.8934   -6720.0913    1176.9261      22390.9    12.007202 
    5230    991.01254   -6830.9869   -6720.4379    1599.0255     22382.73    12.032509 
    5240    1006.8523   -6833.2519    -6720.936    1230.5657      22376.5    12.069527 
    5250    1037.8184   -6837.4235   -6721.6532    469.85288    22371.804    12.122436 
    5260    1001.5382   -6834.3372   -6722.6141    200.29539    22367.768    12.187545 
    5270    975.37975   -6832.5299   -6723.7248   -102.39403    22363.947    12.253058 
    5280    955.03133   -6831.3889   -6724.8537    63.826522    22360.049    12.310572 
    5290    958.72665   -6832.8621   -6725.9147    343.91058    22356.232    12.355756 
    5300    979.30286    -6836.133   -6726.8903    287.84363    22352.794    12.387741 
    5310    981.75342   -6837.3034   -6727.7873    334.01311    22349.718     12.41054 
    5320    966.82842   -6836.4429   -6728.5917    681.28282    22347.091    12.426968 
    5330    922.95408   -6832.2054   -6729.2485    1185.6955    22345.361    12.443019 
    5340    912.70356   -6831.5244   -6729.7109    963.28781    22345.076    12.460877 
    5350    945.54764   -6835.4969   -6730.0196   -61.253383    22345.947    12.482134 
    5360    943.94333   -6835.5235   -6730.2252   -743.33619      22346.8    12.516113 
    5370    930.78757   -6834.1796   -6730.3488   -937.96255    22346.771    12.561638 
    5380    928.32234   -6833.9331   -6730.3774   -1305.4389    22345.499     12.60036 
    5390    928.09667    -6833.832   -6730.3014   -1616.7014    22342.548    12.628024 
    5400    951.00577   -6836.2289   -6730.1428   -1941.0855    22337.484    12.651037 
    5410     972.3795   -6838.3995   -6729.9291   -2125.9689    22329.885     12.66776 
    5420    969.42124   -6837.8522   -6729.7118   -1210.2518    22319.607    12.677069 
    5430    928.29672   -6833.0187   -6729.4658     99.68561    22307.697    12.680046 
    5440    927.64766   -6832.6171   -6729.1366    382.67717    22295.674    12.678165 
    5450    953.16062   -6835.0326   -6728.7061    23.179874     22283.94    12.678901 
    5460    963.89086   -6835.7341   -6728.2106     98.84262    22272.174    12.690639 
    5470    973.89371   -6836.3288   -6727.6895    12.509351    22260.359     12.71158 
    5480    980.11675   -6836.4983   -6727.1648    418.35276    22248.502    12.736033 
    5490    980.79938   -6836.0638   -6726.6542    1040.1141    22237.073    12.767462 
    5500    973.22499   -6834.7266   -6726.1619     1797.596    22226.857    12.812079 
    5510    966.28325   -6833.4659   -6725.6756    2534.0479    22218.834    12.862452 
    5520    981.69903    -6834.696    -6725.186    2430.8416    22213.857    12.902844 
    5530    1005.2041   -6836.8487   -6724.7167    1762.4654    22211.884     12.92893 
    5540    1004.6066   -6836.3781   -6724.3127    918.32051    22212.135    12.947253 
    5550     981.2247   -6833.4287   -6723.9716    194.65167    22213.601    12.966985 
    5560    999.41225   -6835.1597   -6723.6737   -699.49296     22215.31     12.98294 
    5570    1011.9268   -6836.3136   -6723.4316   -1018.0302    22216.212    12.988989 
    5580    989.94853   -6833.6994   -6723.2691   -910.08703    22215.875    12.991203 
    5590    978.40374   -6832.2944    -6723.152   -775.20443     22214.38    13.002406 
    5600     969.2484   -6831.1534   -6723.0323   -667.50324    22211.877    13.021986 
    5610     996.2991   -6834.0632   -6722.9246   -573.64387    22208.477    13.031632 
    5620    1002.6063    -6834.677   -6722.8347    111.83199     22204.39    13.026272 
    5630    1008.2946   -6835.2869   -6722.8102    773.05927     22200.39    13.015908 
    5640    986.24258   -6832.8537   -6722.8368    1241.9371    22197.319    13.014325 
    5650    991.85609   -6833.5574   -6722.9143    751.95763    22195.676    13.027217 
    5660    999.63624   -6834.5558   -6723.0449   -23.017555    22194.937    13.056008 
    5670    988.13266   -6833.4635   -6723.2359    -253.0842    22194.243    13.093597 
    5680    1010.6892   -6836.2607   -6723.5168   -475.82923    22193.215    13.131249 
    5690    996.64013   -6835.0829   -6723.9062    11.330685     22191.67    13.162849 
    5700    983.66041   -6834.1539   -6724.4251    108.73891    22190.069    13.192323 
    5710    963.12286   -6832.4988    -6725.061   -107.41233    22188.574    13.224008 
    5720    932.68604   -6829.8143   -6725.7718   -88.961144    22186.952    13.255913 
    5730    923.52214    -6829.527   -6726.5067    100.93183    22185.218    13.284494 
    5740    936.78738   -6831.7589   -6727.2589    266.95082    22183.592    13.310139 
    5750    928.40463   -6831.5721   -6728.0071    696.39775     22182.34    13.334405 
    5760    925.04491   -6831.9219   -6728.7317    689.16885    22181.897    13.361315 
    5770    915.96149   -6831.5724   -6729.3956    724.84123    22182.356    13.392868 
    5780    924.46337   -6833.1061   -6729.9808    735.78672    22183.746    13.421967 
    5790    927.36434   -6833.9394   -6730.4905    1072.9324    22186.136     13.45584 
    5800    922.61926   -6833.8378   -6730.9183    1510.5646    22189.934    13.509178 
    5810    944.37859   -6836.6179    -6731.271    1354.5672    22195.631    13.578451 
    5820    970.77065    -6839.882   -6731.5911    858.66182    22203.078    13.643062 
    5830    972.61836     -6840.41   -6731.9129     321.5925    22211.706    13.688152 
    5840    965.60259   -6839.9571   -6732.2427   -201.30952    22220.847    13.711437 
    5850     936.9956   -6837.0631   -6732.5398    -638.4059    22229.828    13.718805 
    5860    928.43772   -6836.3391   -6732.7705    -972.5768    22238.098    13.728269 
    5870    925.32488   -6836.1365   -6732.9151   -1172.6617    22245.229    13.765799 
    5880    922.82588    -6835.903   -6732.9604   -1255.3819    22250.943    13.839426 
    5890    936.41462    -6837.365   -6732.9066   -1284.1854    22255.104     13.93187 
    5900    929.17902   -6836.3927   -6732.7414   -1075.1272    22257.698    14.015493 
    5910    931.60252   -6836.3779   -6732.4563   -1038.5661    22258.916    14.076694 
    5920    930.08429    -6835.759   -6732.0067   -1007.9263    22258.835    14.120742 
    5930    942.72905   -6836.5414   -6731.3785   -1109.4745    22257.446    14.155807 
    5940    932.15335   -6834.5406   -6730.5575   -517.75451    22254.736    14.186874 
    5950    940.38541   -6834.4519   -6729.5505    252.81733    22251.359    14.216276 
    5960      966.871   -6836.2306   -6728.3747    573.76847    22248.221    14.248561 
    5970    987.29734   -6837.2727   -6727.1382    725.22622    22245.777    14.287858 
    5980    996.94491    -6837.201   -6725.9903    866.96904    22244.241    14.337722 
    5990    992.86338   -6835.7623   -6725.0069    751.49473     22243.79    14.408194 
    6000     992.8357    -6834.953   -6724.2007    279.33072     22244.26    14.498493 
    6010    977.16414   -6832.5643   -6723.5601    216.58356    22245.143    14.586018 
    6020    960.63765    -6830.197   -6723.0364    427.60306    22246.336    14.655575 
    6030    966.16781   -6830.3534   -6722.5759    227.66172    22248.045    14.708347 
    6040    981.15114   -6831.6129    -6722.164   -537.18027    22250.005     14.75526 
    6050    974.56963   -6830.5236   -6721.8089   -955.22414    22251.347    14.803825 
    6060    973.85917   -6830.1354      -6721.5   -1075.5994    22251.514    14.849585 
    6070    1004.0052   -6833.2296   -6721.2314    -1468.557    22250.278    14.885959 
    6080     1026.279   -6835.5277   -6721.0447     -1707.79    22247.162    14.922487 
    6090    1004.2553   -6833.0011   -6720.9749   -1417.5113    22241.896    14.972958 
    6100    970.89404   -6829.2748   -6720.9701    -1336.143    22234.732    15.036889 
    6110    976.40181   -6829.8943   -6720.9752   -1497.0239    22225.781    15.109054 
    6120    980.32265   -6830.3385    -6720.982   -1016.4839    22214.931    15.177877 
    6130    964.41413   -6828.5706   -6720.9888   -234.45342    22202.726    15.239738 
    6140     968.7332   -6829.0451   -6720.9814      238.005    22190.102    15.307009 
    6150    960.75417   -6828.1208   -6720.9472    669.80163    22177.684    15.383354 
    6160    968.60132    -6828.934    -6720.885    768.01055    22165.966    15.445395 
    6170    995.33636   -6831.8438   -6720.8125    492.48161    22155.058    15.465186 
    6180    1009.5473   -6833.3982   -6720.7817    621.87843    22144.727    15.455174 
    6190    999.91501   -6832.3635   -6720.8215    1052.3082    22135.118    15.442693 
    6200    988.04863   -6831.1418   -6720.9235    1283.4338    22126.727    15.444834 
    6210    971.83286   -6829.4661   -6721.0567    1392.4369    22119.875    15.461584 
    6220    960.81858   -6828.3708   -6721.1901    1719.3082    22114.749    15.486563 
    6230    981.87625   -6830.8487   -6721.3189     1684.748    22111.709    15.515727 
    6240    1004.2474   -6833.5006   -6721.4753    1469.6742    22110.755    15.547325 
    6250    1012.5554   -6834.6714   -6721.7193    1591.0077     22111.71    15.588465 
    6260    1026.1164   -6836.5546   -6722.0898      1549.55    22114.662    15.645632 
    6270    1013.5972   -6835.6856   -6722.6174    1766.9717     22119.65    15.723148 
    6280    999.69874   -6834.8126   -6723.2947    1810.6041    22126.941     15.81162 
    6290    1000.4442   -6835.6934   -6724.0924    1332.3863    22136.563    15.888587 
    6300    997.99012    -6836.336   -6725.0087    1068.5169    22148.044    15.947084 
    6310    973.95761   -6834.6382   -6725.9917    1247.2841    22161.112    16.002006 
    6320    948.95627   -6832.8053   -6726.9478    1205.4651    22175.915    16.066785 
    6330    938.48296   -6832.4865   -6727.7973    1101.8671    22192.496    16.141611 
    6340    948.60158   -6834.3307   -6728.5128    592.48548    22210.706    16.220218 
    6350    973.99803   -6837.7735   -6729.1225   -119.23552    22229.943     16.29775 
    6360    968.26221   -6837.6595   -6729.6484   -105.37789    22249.432    16.373391 
    6370    975.92307    -6838.971   -6730.1053    -49.15647    22269.088    16.443948 
    6380     962.7409   -6837.8879   -6730.4927    71.217026    22288.984    16.512048 
    6390    941.50409   -6835.8232    -6730.797    90.598336    22309.264    16.579698 
    6400    945.74989   -6836.5006   -6731.0008   -181.64446    22329.942    16.650877 
    6410    949.68914   -6837.0575   -6731.1183    -523.3107    22350.696    16.732591 
    6420    961.59547   -6838.4319   -6731.1644   -1270.2451    22371.045    16.819884 
    6430    987.58295    -6841.348   -6731.1816   -1959.9441    22390.059    16.900858 
    6440     966.1923   -6838.9828   -6731.2026   -1992.0462    22406.901    16.973768 
    6450    929.41267   -6834.8789   -6731.2015   -1823.3627    22421.442    17.039971 
    6460    925.76564   -6834.3892   -6731.1186   -1950.9263     22433.79    17.098459 
    6470    943.21247   -6836.1652   -6730.9484    -1731.818    22443.821    17.145451 
    6480    959.14889   -6837.7128   -6730.7183   -1478.6504    22451.745    17.185147 
    6490     968.3538   -6838.4831   -6730.4618   -1438.1134    22457.843    17.222179 
    6500    964.93928   -6837.8426   -6730.2022   -1539.1538     22462.15    17.258686 
    6510    944.79473   -6835.3254   -6729.9321   -1419.5058    22464.529    17.293602 
    6520    939.48802   -6834.4234   -6729.6221   -939.25789    22465.139    17.328297 
    6530    954.87593   -6835.7724   -6729.2545   -931.65303    22464.477     17.36663 
    6540    963.23483   -6836.3007   -6728.8504    -1148.404     22462.57    17.413366 
    6550    950.16012   -6834.4202   -6728.4284   -1019.6496    22459.178    17.465158 
    6560    955.25962    -6834.547   -6727.9863   -880.31904    22454.399    17.509991 
    6570    981.82439   -6837.0465   -6727.5225   -727.19279    22448.396    17.547192 
    6580    990.24632   -6837.5489   -6727.0855   -293.07259    22441.378    17.584086 
    6590    970.51649   -6834.9603   -6726.6977   -10.033546    22433.838    17.626726 
    6600    962.75573   -6833.7379   -6726.3411    140.39782    22426.147    17.676057 
    6610    973.00251   -6834.5256   -6725.9857   -124.02069    22418.473    17.731072 
    6620    998.36175   -6837.0235   -6725.6548   -878.77695    22410.443    17.783841 
    6630    997.10908   -6836.6154   -6725.3864   -788.60239    22401.224    17.821889 
    6640    998.29093   -6836.5468    -6725.186    154.14378    22390.925    17.835959 
    6650    1024.5392   -6839.3468   -6725.0579      231.585    22380.543    17.834323 
    6660    1014.7715   -6838.2393     -6725.04    55.242213    22370.265    17.830726 
    6670    979.21974   -6834.3305    -6725.097    360.26759    22359.946    17.822258 
    6680    978.49469   -6834.3221   -6725.1695    310.71762    22349.863    17.808508 
    6690    988.45732   -6835.5091   -6725.2452    447.66375    22340.025    17.798722 
    6700    985.74388   -6835.2965   -6725.3353    1033.2338    22330.622    17.791761 
    6710    1004.3485   -6837.4808   -6725.4442    1538.5712    22322.382    17.783083 
    6720    1024.1963   -6839.8664   -6725.6158    1261.3473    22315.891    17.779378 
    6730    1000.9148   -6837.5109   -6725.8573    1100.9844    22310.954    17.798045 
    6740    997.41211   -6837.3995   -6726.1367    568.36401      22307.3    17.846256 
    6750    988.58189   -6836.7087   -6726.4309   -87.149517    22304.299    17.915902 
    6760      957.265   -6833.4822   -6726.6978   -294.06784    22301.197    17.995201 
    6770    964.69666   -6834.5218   -6726.9085   -623.96945     22297.62    18.068622 
    6780    971.97847   -6835.4928   -6727.0671   -620.83904    22293.198    18.118915 
    6790    972.87027   -6835.7195   -6727.1943    133.01865    22287.977    18.143504 
    6800    975.84088   -6836.1638   -6727.3073    918.28676    22282.812    18.158914 
    6810    959.39059   -6834.4106   -6727.3891    1651.3317    22278.736    18.180723 
    6820    964.05845   -6834.9796   -6727.4375    1762.6795     22276.64    18.214555 
    6830    993.46131   -6838.2899   -6727.4678    1185.1204    22276.699    18.263018 
    6840     994.0286   -6838.4057   -6727.5203    908.52787    22278.337    18.323609 
    6850    969.74002   -6835.7791   -6727.6032    903.71692    22281.218    18.389427 
    6860    957.59136   -6834.4926   -6727.6718    613.84398    22285.311    18.454596 
    6870    959.75172   -6834.7651   -6727.7033    71.939561    22290.263    18.510792 
    6880    962.42661     -6835.06   -6727.6998   -304.88248    22295.443    18.551146 
    6890    955.12586    -6834.215   -6727.6692   -114.25835    22300.403    18.581573 
    6900    947.77043   -6833.3136   -6727.5884    154.50986    22305.336    18.612503 
    6910    980.51459   -6836.8501   -6727.4723   -472.73545     22310.48    18.643741 
    6920    982.13623    -6836.911   -6727.3522   -775.93875    22315.175    18.679528 
    6930     957.4384   -6834.0514   -6727.2477    -409.5285    22319.047    18.720062 
    6940    953.95125   -6833.5368   -6727.1221   -454.61242    22322.426    18.752362 
    6950    963.42931   -6834.4182   -6726.9462   -788.34289    22325.268    18.767715 
    6960    980.73157   -6836.1496   -6726.7476   -1096.9566    22327.155    18.772347 
    6970    985.45324   -6836.4892   -6726.5604   -1244.0113    22327.682    18.791636 
    6980    971.50995   -6834.7529   -6726.3795   -1329.9852     22326.63    18.840192 
    6990     993.1625   -6837.0007   -6726.2119   -1690.3171    22323.799    18.905111 
    7000    986.85099   -6836.1636   -6726.0789   -1655.5469     22318.77    18.966396 
    7010    951.02755   -6832.0516    -6725.963   -1210.0665    22311.526    19.021982 
    7020    962.15534   -6833.1491   -6725.8192     -785.807    22302.559    19.079891 
    7030    965.76127   -6833.3574   -6725.6253    7.0355293    22292.467    19.141643 
    7040    954.70785    -6831.885   -6725.3859    963.03578    22282.216    19.201078 
    7050     973.8988   -6833.7311   -6725.0912    1359.7369    22272.947    19.253455 
    7060    983.49201   -6834.4571   -6724.7471    1757.1106    22265.274    19.296553 
    7070    980.97846   -6833.8093   -6724.3796    2052.5492     22259.71    19.323345 
    7080    1000.9754    -6835.647   -6723.9867    1858.9372    22256.627    19.340495 
    7090    1006.5133   -6835.8628   -6723.5848    1899.0234     22255.91    19.359457 
    7100    977.28883   -6832.2011   -6723.1831    2266.3578    22257.678    19.385592 
    7110     963.4912   -6830.2118   -6722.7329    2166.5156    22262.341    19.412813 
    7120    958.07307    -6829.036   -6722.1615    1866.0273    22269.857    19.432901 
    7130    980.32222   -6830.7797   -6721.4233    1652.0111    22279.955    19.453447 
    7140    1012.8282   -6833.5051   -6720.5226    1285.2347    22292.351    19.479274 
    7150     1000.516   -6831.1536   -6719.5445    1265.1066    22306.685    19.503819 
    7160    1000.3907   -6830.1547   -6718.5596     1046.432      22322.9    19.519443 
    7170    1000.0005   -6829.1201   -6717.5685    548.13263    22340.728     19.53433 
    7180    1002.4842   -6828.4658   -6716.6371    317.02619    22359.624    19.560508 
    7190    1008.2895   -6828.2589   -6715.7826     4.270739    22379.241    19.604124 
    7200    1004.6507   -6827.1028   -6715.0325   -298.02936    22399.207    19.664484 
    7210    1044.3137   -6830.9073   -6714.4125   -1129.5952    22419.034    19.733999 
    7220    1015.7535   -6827.2524   -6713.9436   -870.37452    22437.851      19.8046 
    7230    993.39707   -6824.4479    -6713.633   -164.37956    22455.845    19.867629 
    7240    975.22312   -6822.1615   -6713.3739    389.30224    22473.889    19.930425 
    7250    997.17083   -6824.3989    -6713.163    111.25263    22492.587    20.000649 
    7260     1009.309   -6825.5849    -6712.995   -244.63227    22511.691    20.076773 
    7270     1034.121   -6828.2724   -6712.9147   -878.13849    22530.675    20.149205 
    7280    1033.3875   -6828.2414   -6712.9655   -1365.2655    22548.759    20.219037 
    7290    996.02801   -6824.2374    -6713.129   -1550.7074    22565.314    20.283607 
    7300    976.76009   -6822.2941   -6713.3351   -1725.3893     22580.03    20.326751 
    7310     989.9582   -6823.9835   -6713.5522   -1789.7919    22592.654    20.344271 
    7320    983.65986   -6823.5131   -6713.7844    -1523.825    22603.117    20.350816 
    7330    984.94601   -6823.9097   -6714.0375   -1728.5644    22611.608    20.355668 
    7340     985.8618   -6824.2787   -6714.3044   -2031.1324    22617.904    20.363463 
    7350    984.87903    -6824.464   -6714.5993   -2150.8344     22621.58     20.38106 
    7360    983.35883   -6824.6108   -6714.9156   -1749.9209    22622.521    20.402761 
    7370    995.39145   -6826.2945   -6715.2571   -1652.3387    22621.121    20.419468 
    7380    1010.7288   -6828.4001   -6715.6518   -2182.6169    22617.447    20.434129 
    7390    990.87413   -6826.6474   -6716.1139   -2124.1425    22610.941    20.453449 
    7400    951.03804   -6822.6771   -6716.5873   -1497.1367    22601.621    20.473432 
    7410    953.41386    -6823.367   -6717.0123   -1213.0745    22590.198    20.484233 
    7420      964.376   -6824.9674   -6717.3898   -1367.5519    22577.034    20.485914 
    7430    966.43407   -6825.5448   -6717.7376   -1592.8531    22561.956    20.489205 
    7440    973.48455    -6826.657   -6718.0633   -1412.9707     22544.72    20.503346 
    7450    961.82832   -6825.6621   -6718.3687   -751.26705    22525.544    20.527365 
    7460    946.74073   -6824.2375   -6718.6272   -366.22938    22505.191    20.553562 
    7470    960.55993   -6825.9821   -6718.8302   -379.06683    22484.174    20.574773 
    7480    974.06942   -6827.6517   -6718.9928   -342.42183    22462.535      20.5921 
    7490    990.61846   -6829.6682   -6719.1632   -164.54984     22440.32    20.609312 
    7500    969.29173   -6827.4688   -6719.3429    124.21207    22417.776    20.637231 
    7510    954.09628   -6825.9617   -6719.5308    7.2137402    22395.207    20.679644 
    7520    954.58992   -6826.1766   -6719.6907     -188.239    22372.512     20.73485 
    7530    961.13686   -6827.0304   -6719.8142    107.46515    22349.516    20.799924 
    7540    967.07427   -6827.7931   -6719.9145     545.0071     22326.56    20.861776 
    7550    954.94265   -6826.5287   -6720.0034    800.72403    22304.161    20.910542 
    7560    947.88697   -6825.7987   -6720.0605    1508.8615    22282.753    20.948696 
    7570    969.58424   -6828.2274   -6720.0688    1761.8698    22263.114    20.986102 
    7580    989.98686    -6830.513   -6720.0784    1725.2117    22245.624    21.029583 
    7590    972.27773   -6828.5886   -6720.1296    1615.2128    22230.237    21.076858 
    7600     943.8654     -6825.49   -6720.2004     1743.527    22216.883    21.119213 
    7610    967.81111   -6828.2162   -6720.2555    1396.5922    22205.639     21.15042 
    7620    996.79673   -6831.5108   -6720.3167    787.62136    22196.083    21.188013 
    7630    985.03466   -6830.3174   -6720.4353    783.66028    22187.573    21.247317 
    7640    977.40528   -6829.6342   -6720.6032    450.77231     22179.98    21.318913 
    7650    973.23401   -6829.3667    -6720.801    11.970206    22172.908     21.38186 
    7660    965.53071   -6828.7099   -6721.0035    91.730554    22165.884    21.428235 
    7670    969.89818   -6829.3991   -6721.2055    360.40425    22158.972     21.46164 
    7680    968.41361   -6829.4349   -6721.4069    820.14812    22152.495     21.48747 
    7690    959.53991   -6828.6332    -6721.595    1644.7872    22147.063    21.507021 
    7700    975.92588   -6830.6417   -6721.7757    1956.5499    22143.613    21.514592 
    7710     989.4109   -6832.3261   -6721.9558    1714.8044    22142.561    21.524656 
    7720     1001.053    -6833.848   -6722.1791    1188.6327    22143.641    21.554142 
    7730    1006.1818    -6834.708   -6722.4669    387.18278    22146.206    21.596132 
    7740    1007.3008   -6835.2063   -6722.8404   -122.00305     22149.31     21.64302 
    7750    978.12445   -6832.3908   -6723.2795    289.64851    22152.393    21.695481 
    7760    966.05998   -6831.5087   -6723.7432     1010.803    22155.901    21.753238 
    7770    938.19101    -6828.828   -6724.1714    1929.2975    22160.754    21.815923 
    7780    938.68152   -6829.2509   -6724.5396    2037.7577    22167.999    21.877373 
    7790    955.58461   -6831.4418   -6724.8449    1645.1577    22177.835    21.941248 
    7800    966.56799    -6832.937   -6725.1149    1229.2934    22189.847    22.023717 
    7810    957.50526   -6832.1619   -6725.3507    751.48809     22203.53    22.123677 
    7820    940.55575   -6830.4694    -6725.549    434.44888    22218.284    22.214445 
    7830    929.03931   -6829.3085   -6725.6728    541.89429    22233.776    22.286151 
    7840     925.7016   -6828.9591   -6725.6957     174.7589    22250.034    22.355836 
    7850     935.9481   -6830.0173   -6725.6109   -368.14128    22266.622    22.428377 
    7860    943.29143   -6830.6573   -6725.4318   -383.19237    22282.929    22.496859 
    7870    940.58324   -6830.1016   -6725.1781   -319.02535    22298.871    22.558812 
    7880    945.97102   -6830.3744   -6724.8499   -839.65531    22314.448    22.610411 
    7890    950.99239   -6830.5173   -6724.4327   -1291.5458    22329.068    22.655079 
    7900    963.95461   -6831.4819   -6723.9514    -1391.891     22342.16    22.704706 
    7910    975.27067   -6832.2248   -6723.4319   -999.66608    22353.605    22.762645 
    7920    947.29799   -6828.5636   -6722.8911   -377.50198    22363.864    22.821644 
    7930    975.93539   -6831.1844   -6722.3174   -431.70909    22373.596    22.881572 
    7940    991.89965   -6832.3513   -6721.7034   -259.11286    22382.871    22.937428 
    7950    993.23762   -6831.9213   -6721.1241   -74.519512    22391.881    22.973678 
    7960    980.45836    -6829.963   -6720.5914    61.312814    22400.829    23.004419 
    7970    959.57518   -6827.1278   -6720.0858    685.86796    22409.982    23.053751 
    7980    966.88117   -6827.4352   -6719.5782     824.2384    22420.007    23.116492 
    7990     975.8606   -6827.9154   -6719.0567    914.24199    22431.178    23.181189 
    8000    985.43316   -6828.4766     -6718.55    669.67302    22443.558    23.245138 
    8010    991.54037   -6828.6892   -6718.0813    123.48131    22456.843    23.299125 
    8020    986.75054   -6827.7272   -6717.6537   -474.42267    22470.359    23.336192 
    8030    972.31378   -6825.7226   -6717.2595   -699.16811    22483.385    23.367972 
    8040    987.95866   -6827.0882   -6716.8799   -1001.5579    22495.546    23.405666 
    8050    994.72211   -6827.4936   -6716.5309   -970.98955    22506.505    23.455482 
    8060    978.57278   -6825.3892   -6716.2279   -802.11582    22516.294    23.515259 
    8070    988.34241   -6826.2053   -6715.9543   -1476.2678    22524.983    23.574206 
    8080     979.2718   -6824.9424   -6715.7032   -2012.9969    22531.808    23.627508 
    8090    971.99468   -6823.9038   -6715.4764    -1919.308    22536.111    23.678023 
    8100    980.20179   -6824.5901   -6715.2471   -1324.3198     22537.99    23.730361 
    8110    1004.0919    -6827.045    -6715.037   -714.52444    22538.161    23.780464 
    8120    1011.3655   -6827.7066   -6714.8873   -567.16663    22537.343    23.829444 
    8130    992.87472   -6825.5603   -6714.8036   -882.43896     22535.74    23.886435 
    8140    987.75242   -6824.9518   -6714.7665   -1553.5683    22532.949    23.940927 
    8150    1003.9754   -6826.7617   -6714.7667   -2247.9036    22528.101    23.981184 
    8160    1020.5285   -6828.6795    -6714.838   -2656.8665    22520.321    24.015058 
    8170    1019.4958   -6828.7479   -6715.0216   -2784.7268     22509.06     24.04979 
    8180    1006.7967   -6827.6378   -6715.3281    -2470.681    22494.167    24.083983 
    8190    993.06341   -6826.5312   -6715.7534   -1552.4027    22476.047    24.121709 
    8200    998.48568   -6827.6631   -6716.2805   -607.15987    22455.822    24.166512 
    8210    1016.4754   -6830.3543    -6716.965    45.148806    22434.687    24.216645 
    8220    1003.5672    -6829.804   -6717.8545    865.13361    22413.554    24.267599 
    8230     960.3885   -6826.0156   -6718.8828    1542.8285    22393.467    24.309321 
    8240    957.13297   -6826.7244   -6719.9547    1225.0927      22375.2    24.337992 
    8250    978.01088   -6830.1672   -6721.0686    644.76983    22358.423    24.361108 
    8260    967.08954   -6830.0366   -6722.1563    782.02419    22342.525    24.391942 
    8270    976.34795   -6832.0651    -6723.152    927.09742    22327.603    24.435838 
    8280    983.05746   -6833.6936    -6724.032    1102.4281    22313.848     24.48169 
    8290    984.68827     -6834.62   -6724.7765    1169.0592    22301.472     24.51924 
    8300    995.90154     -6836.51   -6725.4157    907.51714     22290.53    24.543443 
    8310     978.1594   -6835.0691    -6725.954    754.87472    22280.746    24.558072 
    8320    968.82173   -6834.4547   -6726.3812    503.69744    22271.899    24.574445 
    8330    973.14117   -6835.2643    -6726.709    370.33104    22263.706    24.602202 
    8340    964.48356   -6834.5605   -6726.9709    599.13564     22256.02    24.643722 
    8350     949.7253   -6833.1087   -6727.1654    1052.6591    22249.112    24.692494 
    8360    940.97617   -6832.2515   -6727.2842     1195.463    22243.501    24.747897 
    8370    929.52615   -6831.0078   -6727.3178    1202.6735    22239.394    24.801165 
    8380    928.03717   -6830.7841   -6727.2602    1367.6195    22236.831    24.843613 
    8390     938.0291   -6831.7544   -6727.1158    1335.7217    22235.984    24.879429 
    8400    962.33005    -6834.255   -6726.9056    910.00564    22236.803    24.914111 
    8410    965.74609   -6834.3948   -6726.6644    827.43763    22238.834    24.948005 
    8420    956.03584   -6833.0547   -6726.4074    996.46216    22241.966    24.974656 
    8430    961.39663   -6833.3632    -6726.118    1060.6179    22246.396    24.994884 
    8440    979.12221   -6835.0342   -6725.8116    1320.6679     22252.24    25.020838 
    8450     965.2436   -6833.1748   -6725.5005    1712.9436    22259.839    25.081896 
    8460    954.97414   -6831.7079   -6725.1791    1530.9271    22269.614    25.184215 
    8470    945.70214   -6830.3092   -6724.8147    1488.3638    22281.465    25.296463 
    8480    963.82851   -6831.9114   -6724.3948    1133.5286    22295.269    25.380524 
    8490    963.19704   -6831.3783   -6723.9322    823.58599    22310.613    25.433091 
    8500     943.2862   -6828.6677   -6723.4427    938.89946    22327.172    25.473819 
    8510    950.74926   -6828.9559   -6722.8984    1032.8793     22345.06    25.507013 
    8520    965.99708   -6830.0623   -6722.3039     920.6036    22364.386    25.542007 
    8530    974.63646   -6830.4128   -6721.6906    744.23989    22385.033    25.599437 
    8540    987.90947   -6831.2998    -6721.097     684.2259    22406.829    25.690211 
    8550    982.85163    -6830.179   -6720.5404    274.90106    22429.644    25.794841 
    8560    985.45609   -6829.9579   -6720.0288   -435.56138    22452.962    25.877676 
    8570    996.60851   -6830.7261   -6719.5529   -993.59902    22475.918     25.92112 
[...]
   22890    976.05908   -6831.6913   -6722.8105    798.62312    22096.381    73.240974 
   22900    988.47361   -6833.0287    -6722.763    471.76607     22132.51    73.431896 
   22910    1001.5065    -6834.461   -6722.7414    124.61505    22169.881    73.605523 
   22920    987.30594   -6832.8868   -6722.7513   -431.91334    22208.034    73.787945 
   22930    979.15597   -6832.0113    -6722.785   -1056.2731    22246.256    73.994565 
   22940    960.14578   -6829.9126   -6722.8069   -1603.7583    22283.744    74.190572 
   22950    955.50754   -6829.3865   -6722.7982   -2096.8738    22319.746    74.345775 
   22960    950.07935   -6828.7223   -6722.7395   -1987.5419    22353.645    74.455811 
   22970    947.86409   -6828.3605   -6722.6249   -1688.6767     22385.48    74.529892 
   22980    975.37319   -6831.2569   -6722.4526   -2062.9478    22415.476    74.581819 
   22990    967.00882   -6830.1004   -6722.2291   -2131.7248    22443.246    74.620266 
   23000     949.7243   -6827.9025   -6721.9593   -1953.3203    22468.632    74.660929 
   23010    950.08146   -6827.5747   -6721.5916   -1918.9828    22491.774    74.716658 
   23020    949.57488   -6827.0127   -6721.0862   -1776.9642    22512.713    74.801422 
   23030    958.67841   -6827.3765   -6720.4345   -1515.9376    22531.606    74.925605 
   23040    982.50609   -6829.2344   -6719.6344    -1871.971    22548.667    75.071462 
   23050    986.93981   -6828.8295   -6718.7349   -2194.4726    22563.502    75.205234 
   23060    970.38079   -6826.0541   -6717.8067   -2107.3942    22575.704    75.301997 
   23070    968.25546   -6824.8685   -6716.8581   -2255.3717    22585.251     75.35992 
   23080    967.55584    -6823.832   -6715.8997   -2472.2638    22591.949    75.381498 
   23090    971.64858   -6823.3618   -6714.9729   -2504.3442    22595.499    75.385959 
   23100     974.8016    -6822.846   -6714.1054   -2115.7921    22595.839    75.394386 
   23110    979.53159   -6822.5855   -6713.3172   -1722.3219    22593.377    75.411993 
   23120    1009.3864   -6825.2236    -6712.625   -1344.2348    22588.612     75.43057 
   23130    1049.3012    -6829.125   -6712.0738    -1099.029    22581.987     75.44996 
   23140    1049.5879   -6828.8154   -6711.7323   -711.91744    22573.844    75.456888 
   23150    1037.7617   -6827.3609    -6711.597   -549.32215    22564.623    75.439011 
   23160    1036.8978   -6827.2876     -6711.62   -558.43329    22554.544    75.415547 
   23170    1049.3906   -6828.8541    -6711.793   -1024.8379    22543.526    75.396447 
   23180    1029.6818   -6826.9756    -6712.113   -1141.5342    22531.064    75.368109 
   23190    1026.1928   -6827.0221   -6712.5487   -896.41244    22516.965    75.331658 
   23200    1030.0252   -6827.9894   -6713.0885   -456.25569    22501.503    75.320294 
   23210    1017.0771   -6827.1774   -6713.7209   -135.07732    22485.218    75.369288 
   23220    1005.2215   -6826.5553   -6714.4214   -458.14427    22468.444    75.459759 
   23230    994.64045   -6826.0848   -6715.1312   -599.86574    22450.877    75.535472 
   23240    1014.9727   -6829.0763   -6715.8546   -821.42878    22432.269    75.567124 
   23250    1002.1757    -6828.384   -6716.5898   -690.41639    22412.365    75.553327 
   23260    982.83355    -6826.933   -6717.2964    -194.8677    22391.321    75.503171 
   23270    973.01428   -6826.4723   -6717.9311   -55.702749     22369.69    75.451895 
   23280    971.61744   -6826.8831   -6718.4977   -463.97688    22347.626    75.433969 
   23290    965.19283   -6826.6559   -6718.9872   -707.10664    22324.688    75.442612 
   23300     978.6346   -6828.5856   -6719.4174   -882.32975    22300.545    75.447167 
   23310    983.66681   -6829.5504   -6719.8208   -867.77108    22274.986    75.434804 
   23320    957.61982   -6827.0021   -6720.1781    -271.5846    22248.082    75.410404 
   23330    975.95714   -6829.3485    -6720.479    -224.7625    22220.438    75.389026 
   23340    981.40245     -6830.23   -6720.7531   -207.26297    22192.216    75.378116 
   23350    965.98432   -6828.7562   -6720.9992 -0.045653748    22163.478    75.380174 
   23360    982.63143   -6830.8399   -6721.2259    98.966246    22134.446    75.393236 
   23370    1004.8553   -6833.5616   -6721.4685    358.49047    22105.298    75.427942 
   23380     1003.534   -6833.6988   -6721.7531    749.80007    22076.388    75.487569 
   23390    987.31106   -6832.1999   -6722.0638    1178.8388    22048.209    75.557561 
   23400    995.81803   -6833.4817   -6722.3967    1519.8854    22021.295    75.625457 
   23410    993.66367   -6833.6035   -6722.7588    2315.1445    21996.189    75.684023 
   23420    980.11452   -6832.4763    -6723.143    3129.6056    21973.835    75.715252 
   23430    955.52613   -6830.1009   -6723.5105    3921.1288    21955.269    75.724116 
   23440    938.47079   -6828.5092   -6723.8213    4022.4101    21941.418    75.739588 
   23450    938.82898    -6828.788   -6724.0602    3649.3885    21932.452    75.769495 
   23460    951.42205   -6830.3595    -6724.227    3421.6116    21928.014    75.805967 
   23470    963.61367   -6831.8341   -6724.3416    3122.3068      21927.8    75.847269 
   23480    956.91712   -6831.1585    -6724.413    3389.3237    21931.535    75.892158 
   23490    975.24418   -6833.2605   -6724.4706    3290.7071    21939.441    75.946848 
   23500    955.70205   -6831.1317   -6724.5217    3325.5624    21951.525    76.040196 
   23510    956.57387   -6831.2738   -6724.5666    2591.6326      21967.7    76.183083 
   23520    955.85235   -6831.1884   -6724.5617    1919.9039    21987.199    76.368922 
   23530    961.30553   -6831.7488   -6724.5138    1581.1686    22009.207    76.574219 
   23540    984.34183   -6834.2387   -6724.4339    933.83291    22033.213    76.775102 
   23550    973.88511   -6832.9808   -6724.3425    554.77104    22058.496    76.959838 
   23560    950.98551   -6830.3087   -6724.2248    361.19461    22084.581    77.106078 
   23570    963.80203   -6831.5547   -6724.0412   -47.426423    22111.148    77.198221 
   23580    980.16866    -6833.136   -6723.7967   -104.24486    22137.745    77.261342 
   23590    969.20083   -6831.6292   -6723.5134   -41.950625    22164.247    77.334743 
   23600    944.24126   -6828.4974   -6723.1658    62.555952    22190.709    77.442112 
   23610     926.5273   -6826.0322   -6722.6767    248.41777    22217.273    77.576726 
   23620    954.07116   -6828.3956   -6721.9675   -134.50472    22244.077    77.703281 
   23630    981.88796   -6830.5665   -6721.0354   -516.51797    22270.689     77.81521 
   23640    963.89365   -6827.4829   -6719.9591   -272.04877    22296.688    77.913485 
   23650    970.63085   -6827.0739   -6718.7985    20.293729    22322.307    77.994083 
   23660    1012.4026   -6830.5268   -6717.5918    6.6773373    22347.864     78.04393 
   23670    1020.3764   -6830.3059   -6716.4814    46.085411    22373.381    78.079266 
   23680    1017.6447    -6829.095   -6715.5752   -25.132201    22398.873    78.139788 
   23690    1025.7722   -6829.2984    -6714.872   -56.003385     22424.28    78.253046 
   23700      1016.45   -6827.7532   -6714.3666   -46.621879    22449.538    78.410427 
   23710    975.47487   -6822.8237    -6714.008    141.04959    22474.691    78.565543 
   23720    981.34087   -6823.1927   -6713.7227   -373.13802    22499.843    78.676189 
   23730    978.11969   -6822.5713   -6713.4606   -820.01561    22524.451    78.748799 
   23740    993.91022   -6824.1011   -6713.2289   -1103.3493    22547.912    78.797049 
   23750    1018.8269   -6826.7082   -6713.0566   -1116.1094    22569.858    78.829685 
   23760    1014.4318   -6826.1444    -6712.983   -900.64915    22590.293     78.83749 
   23770    1004.9311   -6825.1065   -6713.0049   -946.31582    22609.437    78.822138 
   23780    1000.5338   -6824.7098   -6713.0987   -1319.3776    22627.216     78.81863 
   23790    999.38913   -6824.7272   -6713.2438   -1580.3267    22643.196    78.859588 
   23800    1001.8193   -6825.1989   -6713.4445   -1486.8875    22657.062    78.951395 
   23810    1008.3021   -6826.1882   -6713.7106   -1656.7847     22668.86     79.06797 
   23820    1020.4023    -6827.887   -6714.0595   -1893.8803      22678.4     79.19143 
   23830    1018.6678   -6828.1397   -6714.5058   -1491.2002     22685.48    79.309297 
   23840     1016.067   -6828.3864   -6715.0426   -1402.1662    22690.513    79.398818 
   23850    1021.9556   -6829.6786   -6715.6779   -1752.4674    22693.614    79.449084 
   23860    1004.7042   -6828.4687   -6716.3925   -1654.6127    22694.442    79.484581 
   23870    990.11983    -6827.584   -6717.1347   -1449.0403    22693.081    79.534873 
   23880    979.88043   -6827.1768   -6717.8697   -1458.2928    22689.786    79.586419 
   23890    967.82678   -6826.5051   -6718.5425   -1999.0725    22684.526    79.617451 
   23900    981.58814   -6828.6569   -6719.1593   -2810.5669    22676.617    79.623642 
   23910    983.71572   -6829.4552   -6719.7202   -3160.5349    22665.111     79.59708 
   23920    997.13652   -6831.4926   -6720.2605   -3402.4564    22649.517    79.543071 
   23930    995.27694   -6831.8131   -6720.7885   -3348.9053      22629.6    79.506347 
   23940    987.53056   -6831.4516   -6721.2911   -3166.4817    22605.455     79.50903 
   23950    971.88643   -6830.1695   -6721.7541   -2648.5689    22577.387    79.535464 
   23960    940.99528   -6827.0973   -6722.1279    -2100.962    22546.086    79.541434 
   23970    932.30957   -6826.3756    -6722.375   -1464.2148    22512.339    79.501467 
   23980     955.2038   -6829.0669   -6722.5125   -957.79217    22476.989    79.435127 
   23990    992.51396    -6833.308   -6722.5916   -540.94701    22440.755    79.385697 
   24000    1018.9184   -6836.3581   -6722.6962   -109.48367    22404.206    79.372882 
   24010    998.91902   -6834.2905   -6722.8596     614.8224    22367.973    79.363826 
   24020    998.41932   -6834.4253   -6723.0501    860.46939    22332.906    79.310292 
   24030    1001.2544   -6834.9778   -6723.2863    738.29172     22299.33     79.19972 
   24040    969.84913   -6831.7324   -6723.5443     870.9484    22267.155    79.088001 
   24050    958.31599   -6830.6771   -6723.7755    1218.0494    22236.538    79.042727 
   24060    960.29083   -6831.0707   -6723.9489    1640.5555     22207.89    79.084418 
   24070    973.52372   -6832.6828   -6724.0848    1939.2596    22181.706    79.182303 
   24080    968.24343   -6832.2137   -6724.2046    1864.5715      22158.3    79.295712 
   24090    953.79191   -6830.7089    -6724.312    1393.7815    22137.528    79.376293 
   24100    951.48234    -6830.519   -6724.3797    993.02443    22118.816    79.405451 
   24110    967.45925   -6832.3315   -6724.4099    698.56287     22101.62    79.398545 
   24120    950.13969   -6830.3929   -6724.4034    810.32596    22085.594    79.391523 
   24130    939.78943    -6829.179   -6724.3441    934.07242    22070.811    79.410024 
   24140    954.89537   -6830.7367   -6724.2167    1137.6099    22057.415    79.437366 
   24150    970.06507   -6832.2494   -6724.0372    1586.9645    22045.629    79.451349 
   24160    973.75065   -6832.4549   -6723.8316    2104.9461    22035.983     79.44647 
   24170    995.97132   -6834.7194   -6723.6173    1997.9333    22029.015    79.430596 
   24180    1015.7548   -6836.7545   -6723.4455    1663.1089    22024.609     79.43033 
   24190     989.0899   -6833.6723   -6723.3378      1572.64    22022.379    79.460717 
   24200    976.57748   -6832.2132   -6723.2745    1445.9954    22022.135    79.525311 
   24210    967.47116   -6831.1277   -6723.2049    1818.7318    22023.774    79.600975 
   24220    958.07251   -6829.9819   -6723.1075     2160.561    22027.642    79.663672 
   24230    964.74557   -6830.5812   -6722.9624    2140.4125     22034.11    79.716341 
   24240    995.41802   -6833.8135   -6722.7731    1781.7035    22043.139      79.7745 
   24250    1003.1303   -6834.4722   -6722.5715    1654.6149    22054.342    79.858494 
   24260    1001.9191   -6834.1616    -6722.396    1446.4981    22067.476    79.963297 
   24270    992.92899   -6833.0118   -6722.2491    1453.2085    22082.325    80.065369 
   24280    978.02468   -6831.2068   -6722.1066    1555.0528    22098.866    80.148551 
   24290    972.35909   -6830.4145   -6721.9464    1598.7952    22117.182     80.21158 
   24300    952.11366   -6827.9557    -6721.746    1820.1822    22137.347    80.251241 
   24310     934.7982   -6825.7327   -6721.4546    1798.9151    22159.602    80.260956 
   24320    969.51767   -6829.1841   -6721.0329    595.78667    22183.768    80.251577 
   24330    982.22301   -6830.0604    -6720.492   -606.50462    22208.458    80.250246 
   24340     972.3865   -6828.3672    -6719.896   -795.40747    22232.268    80.275531 
   24350    990.85411   -6829.7995   -6719.2682   -444.12697    22254.888    80.332602 
   24360    977.32025   -6827.6514   -6718.6299    204.40016    22276.762    80.420806 
   24370    971.38328   -6826.3641   -6718.0049    645.98264    22298.643     80.50977 
   24380    963.59336   -6824.8498   -6717.3595      1002.44     22321.12    80.585741 
   24390    987.44438   -6826.8562   -6716.7052    686.66558    22344.566     80.66594 
   24400    1012.7625   -6829.0312   -6716.0561     193.2141    22368.648    80.749548 
   24410    1001.5254   -6827.2042   -6715.4825   -60.821802     22392.77    80.814338 
   24420    982.78115   -6824.6206   -6714.9898   -232.29288    22416.581    80.855404 
   24430    976.70752   -6823.4862    -6714.533   -726.28461    22439.815    80.899298 
   24440    997.93207   -6825.4117   -6714.0908   -1267.4976    22461.855     80.96489 
   24450    998.00979   -6825.0149   -6713.6854   -1171.4135    22482.102    81.054701 
   24460    1004.6922   -6825.4241   -6713.3492   -1154.4496    22500.604    81.172792 
   24470    991.61433    -6823.693   -6713.0769     -1080.66    22517.419    81.314399 
   24480    978.39524   -6821.9913   -6712.8498   -1176.8634    22532.641    81.461849 
   24490    1001.1864   -6824.3293   -6712.6454   -1658.8791     22546.13    81.596626 
   24500    1022.6608   -6826.5725   -6712.4931   -2079.5776    22557.329    81.703103 
   24510    1024.4675   -6826.7283   -6712.4474   -2356.7948    22565.709    81.761441 
   24520    1013.8744   -6825.6202    -6712.521   -2478.0966    22570.948    81.761807 
   24530    991.65234   -6823.3082   -6712.6879   -2719.3815    22572.878    81.716054 
   24540    970.67144   -6821.1725   -6712.8926   -2851.0569    22571.266    81.654757 
   24550     1000.753   -6824.7727   -6713.1372   -2975.3956    22565.938    81.596251 
   24560    1008.5563   -6825.9598   -6713.4539   -2421.5611    22556.872    81.551857 
   24570    991.30783   -6824.4435   -6713.8616   -1593.7995    22544.776    81.518765 
   24580    998.90995   -6825.7733   -6714.3434   -981.38751    22530.721    81.483824 
   24590    1020.5742   -6828.7839   -6714.9374   -592.46099    22515.515    81.462479 
   24600    1002.5599   -6827.4814   -6715.6443   -388.22274    22499.706    81.458389 
   24610    996.70062   -6827.6452   -6716.4618   -677.78391    22483.503    81.450916 
   24620    988.90273   -6827.6542   -6717.3406   -777.30203    22466.652    81.419234 
   24630    994.23598   -6829.1901   -6718.2815   -1220.3737    22448.943    81.357961 
   24640    969.94744    -6827.412   -6719.2129   -1110.6984    22429.943    81.286238 
   24650    945.95262   -6825.5621   -6720.0397   -726.74742    22409.776    81.237486 
   24660    948.97499    -6826.589   -6720.7294   -610.64256    22388.883    81.214962 
   24670    952.04284   -6827.4892   -6721.2874   -516.25925    22367.475    81.193159 
   24680     950.9219   -6827.8059   -6721.7291   -384.23639    22345.693    81.179287 
   24690    954.42315   -6828.5309   -6722.0635   -544.90748    22323.656    81.189995 
   24700    965.41868   -6829.9998   -6722.3059   -828.87695    22301.202    81.221944 
   24710    980.07221   -6831.8257   -6722.4971    -915.6366    22278.018    81.244338 
   24720     980.2067   -6832.0098   -6722.6663   -414.61553    22254.071     81.23036 
   24730    970.00942   -6831.0206   -6722.8146   -265.88899    22229.873    81.189309 
   24740    966.32052   -6830.7361   -6722.9416   -157.27182    22205.681      81.1425 
   24750    952.54662   -6829.2728   -6723.0148    316.19036    22181.693    81.106319 
   24760    970.60261   -6831.3157   -6723.0435    704.22656     22158.44    81.075444 
   24770     981.7614   -6832.5614   -6723.0444    801.62603      22136.4    81.031057 
   24780     987.2537   -6833.1921   -6723.0624    718.71027    22115.678     80.97116 
   24790    973.89632   -6831.7337   -6723.0941    1083.0657    22096.229    80.889351 
   24800    981.48524   -6832.6176   -6723.1314    1493.3989    22078.428    80.797003 
   24810    977.10782   -6832.1672   -6723.1694    1888.3427    22062.755    80.723363 
   24820    973.65432     -6831.83   -6723.2174     2016.785    22049.638    80.690959 
   24830    981.13224    -6832.711   -6723.2643    1791.2949      22039.2    80.687621 
   24840    983.03305   -6832.9886   -6723.3298    1445.4239    22031.128    80.705989 
   24850    972.79488   -6831.9256   -6723.4089    1442.7711    22025.018    80.724557 
   24860    975.31891   -6832.2869   -6723.4886    1480.5525    22020.781    80.708143 
   24870    969.54966   -6831.7206   -6723.5659    1798.0584    22018.484    80.655934 
   24880    954.08123   -6830.0608   -6723.6316    1909.9317    22018.434     80.59054 
   24890    943.69009   -6828.9305   -6723.6605    1810.7126    22020.759    80.521491 
   24900    954.55811   -6830.1211   -6723.6387    1434.1772    22025.272    80.475154 
   24910    945.20383   -6828.9978   -6723.5589    1864.0708    22031.624    80.485945 
   24920    939.49212   -6828.2137    -6723.412    2487.8716    22040.256    80.554164 
   24930     970.6662   -6831.4683    -6723.189    2107.0328    22051.787     80.66483 
   24940    977.28426   -6831.9245    -6722.907    1532.5815    22065.826    80.804639 
   24950    964.74417   -6830.1995   -6722.5808    1315.9832    22081.683    80.951838 
   24960    962.48046   -6829.5666   -6722.2004    1091.1966    22099.009    81.082754 
   24970     958.1933   -6828.6224   -6721.7344    1007.3781    22117.547    81.186077 
   24980     957.4049   -6827.9549    -6721.155    1254.4887    22137.218     81.26982 
   24990    972.47334   -6828.9317   -6720.4509    1419.7622    22158.272    81.350038 
   25000    967.99186   -6827.6051   -6719.6242    1559.5798    22180.916    81.445077 
Loop time of 14667.6 on 16 procs for 20000 steps with 864 atoms

Performance: 0.118 ns/day, 203.717 hours/ns, 1.364 timesteps/s
97.7% CPU use with 16 MPI tasks x 1 OpenMP threads

MPI task timing breakdown:
Section |  min time  |  avg time  |  max time  |%varavg| %total
---------------------------------------------------------------
Pair    | 11008      | 12898      | 14389      | 890.8 | 87.94
Bond    | 0.0015397  | 0.005054   | 0.0092943  |   3.3 |  0.00
Neigh   | 0.22538    | 0.28134    | 0.33775    |   6.8 |  0.00
Comm    | 207.66     | 1467.4     | 3211.8     |2487.9 | 10.00
Output  | 1.3011     | 1.3269     | 1.7024     |   8.4 |  0.01
Modify  | 64.453     | 300.5      | 613.95     |1020.4 |  2.05
Other   |            | 0.08961    |            |       |  0.00

Nlocal:        54.0000 ave          64 max          45 min
Histogram: 2 0 3 3 0 3 1 1 2 1
Nghost:        462.938 ave         508 max         420 min
Histogram: 2 1 1 2 3 2 2 0 2 1
Neighs:         0.00000 ave           0 max           0 min
Histogram: 16 0 0 0 0 0 0 0 0 0
FullNghs:      2091.88 ave        2822 max        1517 min
Histogram: 2 2 2 2 1 2 1 3 0 1

Total # of neighbors = 33470
Ave neighs/atom = 38.738426
Ave special neighs/atom = 0.0000000
Neighbor list builds = 2000
Dangerous builds = 2000
Total wall time: 5:05:46
