LAMMPS (29 Sep 2021 - Update 3)
OMP_NUM_THREADS environment is not set. Defaulting to 1 thread. (src/comm.cpp:98)
  using 1 OpenMP thread(s) per MPI task
units	metal
atom_style	full

read_data	mixed.data
Reading data file ...
  orthogonal box = (0.0000000 0.0000000 0.0000000) to (15.502212 15.402052 70.841525)
  2 by 1 by 8 MPI processor grid
  reading atoms ...
  864 atoms
Finding 1-2 1-3 1-4 neighbors ...
  special bond factors lj:    0        0        0       
  special bond factors coul:  0        0        0       
     0 = max # of 1-2 neighbors
     0 = max # of 1-3 neighbors
     0 = max # of 1-4 neighbors
     1 = max # of special neighbors
  special bonds CPU = 0.001 seconds
  read_data CPU = 0.009 seconds

pair_style	quip
pair_coeff	* * /ocean/projects/cts180021p/wuziqi/clease/mint-PD/PhaseDiagram-Clease/Liquid/GAP_potential/gap_LiKCl.xml "Potential xml_label=GAP_2021_9_27_0_1_17_37_618" 17 19 3

neighbor	0.3 bin
neigh_modify	delay 10

timestep	0.001
compute	msd all msd
thermo_style	custom step temp pe etotal press vol c_msd[4]
thermo	10
dump	1 all custom 10 xyz-mix.dump type id x y z
dump	2 all custom 10 force-mix.dump type id fx fy fz

fix     1 all nve
run     2000
Neighbor list info ...
  update every 1 steps, delay 10 steps, check yes
  max neighbors/atom: 2000, page size: 100000
  master list distance cutoff = 6.22
  ghost atom cutoff = 6.22
  binsize = 3.11, bins = 5 5 23
  1 neighbor lists, perpetual/occasional/extra = 1 0 0
  (1) pair quip, perpetual
      attributes: full, newton on
      pair build: full/bin
      stencil: full/bin/3d
      bin: standard
Per MPI rank memory allocation (min/avg/max) = 8.904 | 8.909 | 8.916 Mbytes
Step Temp PotEng TotEng Press Volume c_msd[4] 
       0            0   -6414.6092   -6414.6092   -8996.9866    16914.539            0 
      10    95.860065   -6425.3161   -6414.6228   -10882.275    16914.539 0.00077933166 
      20    229.03731    -6440.185   -6414.6355   -12475.142    16914.539 0.0093775226 
      30    249.34477   -6442.4428    -6414.628     -10213.3    16914.539  0.030212741 
      40    248.24655    -6442.315   -6414.6227   -8336.8682    16914.539  0.053808265 
      50    285.14769    -6446.437   -6414.6283   -8615.1952    16914.539  0.072000809 
      60    292.72184   -6447.2808   -6414.6272   -9342.9381    16914.539  0.087153748 
      70    280.17142   -6445.8771   -6414.6236   -9869.2499    16914.539   0.10198109 
      80    281.19207   -6445.9951   -6414.6277    -10294.65    16914.539   0.11798926 
      90    268.26029   -6444.5494   -6414.6246   -9784.8729    16914.539   0.13582886 
     100    263.60742   -6444.0319   -6414.6261   -9260.1077    16914.539   0.15297691 
     110    266.81408   -6444.3885    -6414.625   -9324.2282    16914.539   0.16905869 
     120    277.26539   -6445.5556   -6414.6262   -9888.0881    16914.539    0.1846357 
     130    285.07553   -6446.4267   -6414.6261    -10213.05    16914.539   0.20084172 
     140    284.14138   -6446.3223   -6414.6259   -10193.515    16914.539   0.21791648 
     150    279.03191   -6445.7517   -6414.6253   -10301.408    16914.539   0.23440376 
     160    280.06863   -6445.8685   -6414.6264   -10527.708    16914.539   0.24944995 
     170    273.73993   -6445.1618   -6414.6257   -10301.134    16914.539   0.26342452 
     180    268.00203    -6444.521   -6414.6249   -9641.2173    16914.539    0.2755889 
     190    273.83964   -6445.1737   -6414.6265   -9293.2599    16914.539   0.28642792 
     200    272.45085   -6445.0193    -6414.627   -9401.3798    16914.539   0.29775171 
     210    266.52225   -6444.3555   -6414.6245    -9739.952    16914.539   0.30975692 
     220    277.26483   -6445.5568   -6414.6275   -10274.008    16914.539   0.32155584 
     230    271.03398   -6444.8608   -6414.6265   -10197.129    16914.539   0.33326886 
     240    256.99297   -6443.2921   -6414.6241   -9796.9787    16914.539   0.34420392 
     250      260.518   -6443.6868   -6414.6256   -10082.712    16914.539   0.35319632 
     260    269.24542   -6444.6609   -6414.6262   -10817.477    16914.539   0.36024544 
     270    272.22344   -6444.9933   -6414.6263   -11178.931    16914.539   0.36660869 
     280    269.37878   -6444.6751   -6414.6255   -10808.686    16914.539   0.37346839 
     290    271.00389   -6444.8563   -6414.6254   -10344.777    16914.539   0.38086972 
     300    276.76784   -6445.4999    -6414.626   -10017.839    16914.539   0.38795838 
     310    280.46562   -6445.9129   -6414.6265   -10033.139    16914.539    0.3941169 
     320    277.07214   -6445.5343   -6414.6265   -10046.112    16914.539   0.40018262 
     330    269.95649   -6444.7383   -6414.6242   -9805.4895    16914.539   0.40670818 
     340    277.76904    -6445.612   -6414.6265   -9619.6934    16914.539   0.41197492 
     350    285.05274   -6446.4248   -6414.6267   -9485.1667    16914.539   0.41648156 
     360    281.88575   -6446.0712   -6414.6264   -9140.4937    16914.539   0.42146503 
     370    274.53044   -6445.2493    -6414.625    -8962.175    16914.539   0.42701601 
     380    276.18295   -6445.4346    -6414.626   -9426.8139    16914.539   0.43273687 
     390    277.57134   -6445.5897   -6414.6262   -10070.673    16914.539   0.43923402 
     400     276.8595   -6445.5103   -6414.6262    -10303.89    16914.539   0.44707416 
     410    275.46607   -6445.3545   -6414.6259   -10360.075    16914.539   0.45492711 
     420    275.69775   -6445.3806   -6414.6261   -10312.296    16914.539   0.46006875 
     430    277.65506   -6445.5987   -6414.6258   -10210.723    16914.539   0.46173996 
     440    281.42642   -6446.0203   -6414.6268   -10308.419    16914.539    0.4617939 
     450    276.88831    -6445.514   -6414.6267   -10250.708    16914.539   0.46269964 
     460    270.21574   -6444.7677   -6414.6248   -9929.1914    16914.539   0.46518425 
     470    276.62755   -6445.4853   -6414.6271   -9753.2735    16914.539   0.46909827 
     480    275.65992   -6445.3765   -6414.6262   -9607.8074    16914.539   0.47463575 
     490    271.78497   -6444.9435   -6414.6255   -9553.3315    16914.539   0.48058495 
     500    272.32251   -6445.0046   -6414.6266   -9909.1382    16914.539   0.48553511 
     510    270.37544   -6444.7864   -6414.6256   -10365.506    16914.539   0.48834362 
     520    275.17373   -6445.3223   -6414.6263    -10515.66    16914.539   0.48843099 
     530    278.78936   -6445.7259   -6414.6265   -10437.285    16914.539   0.48792995 
     540    277.10642   -6445.5367   -6414.6251   -10771.458    16914.539   0.48938579 
     550    282.60439   -6446.1508   -6414.6259   -11859.636    16914.539   0.49278637 
     560    285.47147   -6446.4709   -6414.6262   -12796.498    16914.539   0.49690199 
     570    281.74023   -6446.0538   -6414.6252   -13126.326    16914.539   0.50034525 
     580    281.37788   -6446.0138   -6414.6257    -13240.78    16914.539   0.50202219 
     590    281.57404   -6446.0359   -6414.6258   -12844.509    16914.539   0.50251947 
     600    279.80949   -6445.8394   -6414.6262   -12078.209    16914.539   0.50341715 
     610    275.08337   -6445.3114   -6414.6254   -11496.883    16914.539    0.5053235 
     620    273.83436   -6445.1722   -6414.6256   -11201.877    16914.539   0.50732064 
     630    275.31248   -6445.3374   -6414.6259   -11206.933    16914.539   0.50828438 
     640    275.60187     -6445.37   -6414.6262    -11537.36    16914.539   0.50794637 
     650    274.21825   -6445.2155   -6414.6261   -11690.872    16914.539   0.50662649 
     660    272.65227   -6445.0411   -6414.6263   -11698.657    16914.539   0.50518157 
     670     269.8069   -6444.7228   -6414.6254   -11783.391    16914.539   0.50451723 
     680    274.15038   -6445.2075   -6414.6256   -11810.462    16914.539   0.50456436 
     690    280.99552   -6445.9719   -6414.6264   -11861.031    16914.539   0.50555103 
     700    280.63072   -6445.9305   -6414.6257   -11627.854    16914.539   0.50781264 
     710    278.92562   -6445.7406    -6414.626   -11080.463    16914.539   0.51097066 
     720    273.95593   -6445.1857   -6414.6255   -10327.151    16914.539   0.51457431 
     730    270.75852   -6444.8288   -6414.6252   -9765.8913    16914.539   0.51787072 
     740    276.18815   -6445.4342    -6414.625   -9492.6985    16914.539   0.51977351 
     750    290.40662   -6447.0224   -6414.6271   -9560.4488    16914.539   0.52017505 
     760    291.76733   -6447.1737   -6414.6266   -9561.5036    16914.539   0.52117133 
     770    283.11091   -6446.2069   -6414.6254   -9453.5946    16914.539   0.52378958 
     780    279.64758   -6445.8206   -6414.6255   -9604.3927    16914.539   0.52683471 
     790    283.69703   -6446.2721   -6414.6253   -9946.1137    16914.539   0.52917358 
     800    294.07987   -6447.4316   -6414.6265   -10564.719    16914.539   0.53017696 
     810    295.44119   -6447.5838   -6414.6269   -10778.266    16914.539   0.53058912 
     820    284.62085    -6446.375   -6414.6251   -10769.398    16914.539   0.53152004 
     830    283.14102   -6446.2102   -6414.6254    -11181.41    16914.539   0.53258998 
     840    287.99305   -6446.7525   -6414.6265   -11723.574    16914.539   0.53389001 
     850    287.09189   -6446.6515    -6414.626   -11500.578    16914.539   0.53659046 
     860      284.553   -6446.3684    -6414.626   -10897.209    16914.539   0.54081319 
     870    282.67441   -6446.1585   -6414.6257   -10433.812    16914.539   0.54539106 
     880    283.51653   -6446.2522   -6414.6255   -10209.532    16914.539    0.5489499 
     890    288.50338    -6446.809    -6414.626   -10354.377    16914.539   0.55135174 
     900    291.76454   -6447.1726   -6414.6258   -10876.976    16914.539   0.55353637 
     910    292.97848   -6447.3082    -6414.626   -11347.991    16914.539   0.55595171 
     920    291.51405   -6447.1447   -6414.6258   -11398.427    16914.539   0.55853793 
     930    291.60074   -6447.1542   -6414.6257    -11293.91    16914.539   0.56185808 
     940     293.2344   -6447.3372   -6414.6265   -11200.097    16914.539   0.56678171 
     950    287.97843   -6446.7504    -6414.626   -11130.864    16914.539   0.57322831 
     960    283.64605   -6446.2659   -6414.6248   -11250.962    16914.539    0.5801369 
     970    292.04718   -6447.2043    -6414.626   -11840.242    16914.539   0.58714521 
     980    298.10465    -6447.881    -6414.627   -12253.162    16914.539   0.59518368 
     990     291.0629   -6447.0941   -6414.6256   -12038.151    16914.539    0.6045403 
    1000    284.65421   -6446.3788   -6414.6252   -11444.717    16914.539   0.61356144 
    1010    284.88743   -6446.4056    -6414.626    -11257.53    16914.539   0.62075706 
    1020    284.45231   -6446.3572   -6414.6261   -11432.152    16914.539   0.62656562 
    1030    283.20586   -6446.2174   -6414.6254   -11511.221    16914.539   0.63192389 
    1040    287.83552   -6446.7343   -6414.6258   -11667.574    16914.539   0.63739756 
    1050    291.82132   -6447.1799   -6414.6268   -11837.973    16914.539   0.64401168 
    1060    283.59762   -6446.2613   -6414.6256   -11789.256    16914.539   0.65213742 
    1070    276.66662   -6445.4869   -6414.6243   -11806.091    16914.539   0.65985523 
    1080    282.99965   -6446.1952   -6414.6262   -11840.254    16914.539   0.66594809 
    1090    284.44573   -6446.3567   -6414.6263   -11632.042    16914.539   0.67175387 
    1100    278.27382   -6445.6672   -6414.6253   -11480.901    16914.539   0.67800117 
    1110    275.51841   -6445.3596   -6414.6251    -11752.64    16914.539   0.68395064 
    1120    280.64433   -6445.9316   -6414.6253   -12488.193    16914.539   0.68890156 
    1130    288.25028   -6446.7809   -6414.6262   -13418.509    16914.539   0.69291839 
    1140    287.86356   -6446.7373   -6414.6257   -13894.107    16914.539   0.69647294 
    1150     284.1342   -6446.3207   -6414.6251   -13718.421    16914.539   0.69999552 
    1160    284.54442   -6446.3664    -6414.625   -13274.877    16914.539   0.70441524 
    1170    289.30798   -6446.8989   -6414.6262   -12874.099    16914.539   0.71032926 
    1180    288.40526   -6446.7977   -6414.6256   -12499.771    16914.539   0.71698745 
    1190    288.87345   -6446.8499   -6414.6256   -12393.703    16914.539   0.72286598 
    1200    289.55166   -6446.9266   -6414.6266   -12529.541    16914.539   0.72828782 
    1210    280.56525   -6445.9223   -6414.6249   -12558.433    16914.539   0.73461558 
    1220    279.30484    -6445.782   -6414.6251   -12626.277    16914.539   0.74159765 
    1230    283.14385   -6446.2112   -6414.6261    -12562.24    16914.539   0.74841645 
    1240    281.80648   -6446.0608   -6414.6249   -12023.389    16914.539   0.75444294 
    1250     287.2171   -6446.6653   -6414.6258   -11729.343    16914.539   0.75867551 
    1260    291.37697   -6447.1294   -6414.6258   -11960.648    16914.539    0.7611503 
    1270     290.7704   -6447.0612   -6414.6254   -12380.586    16914.539   0.76288707 
    1280    289.55224   -6446.9258   -6414.6258   -12882.375    16914.539    0.7645348 
    1290    287.09987   -6446.6515   -6414.6251   -12907.605    16914.539   0.76662403 
    1300     288.7486   -6446.8364   -6414.6261    -12351.66    16914.539   0.76992192 
    1310     286.5441   -6446.5899   -6414.6255   -11746.932    16914.539   0.77514416 
    1320    286.76446   -6446.6147   -6414.6256   -11616.487    16914.539     0.782071 
    1330    287.70548   -6446.7204   -6414.6264    -11836.58    16914.539   0.79015066 
    1340    282.63252   -6446.1531    -6414.625   -11799.148    16914.539   0.79849012 
    1350    284.43132   -6446.3541   -6414.6254   -11987.933    16914.539   0.80587623 
    1360    290.10013   -6446.9873   -6414.6262   -12175.108    16914.539   0.81222683 
    1370    288.39934   -6446.7972   -6414.6258   -12215.241    16914.539   0.81788554 
    1380    282.88925   -6446.1815   -6414.6247   -12046.377    16914.539   0.82275667 
    1390    283.76927   -6446.2807   -6414.6258   -12356.549    16914.539   0.82695931 
    1400    284.16314   -6446.3247   -6414.6258   -12558.911    16914.539   0.83096223 
    1410    282.88017   -6446.1807    -6414.625   -12245.265    16914.539   0.83439005 
    1420     289.0508   -6446.8696   -6414.6256   -12006.917    16914.539   0.83692973 
    1430    296.30837   -6447.6802   -6414.6265   -12125.384    16914.539   0.83971571 
    1440    294.95766   -6447.5284   -6414.6255   -12272.826    16914.539   0.84385839 
    1450    294.31334   -6447.4568   -6414.6257   -12376.112    16914.539   0.84859385 
    1460    293.05239   -6447.3161   -6414.6256   -12629.004    16914.539   0.85302956 
    1470    291.25758   -6447.1162   -6414.6259   -13083.249    16914.539    0.8570116 
    1480    286.64819   -6446.6016   -6414.6255   -13428.045    16914.539   0.86066862 
    1490    283.52532   -6446.2528   -6414.6252   -13496.705    16914.539   0.86430477 
    1500     286.3633   -6446.5701   -6414.6258   -13624.975    16914.539   0.86918451 
    1510    287.48957    -6446.696   -6414.6261   -13700.531    16914.539   0.87693222 
    1520      283.311   -6446.2294   -6414.6257   -13763.966    16914.539   0.88681719 
    1530    278.93423   -6445.7409   -6414.6254    -13749.08    16914.539    0.8961479 
    1540    279.24322   -6445.7753   -6414.6253   -13602.367    16914.539   0.90287427 
    1550    284.34307   -6446.3451   -6414.6262   -13438.713    16914.539   0.90704945 
    1560    286.61186   -6446.5976   -6414.6256   -13327.774    16914.539   0.90952163 
    1570    288.64067   -6446.8242   -6414.6259   -13235.348    16914.539   0.91064836 
    1580    289.00905   -6446.8647   -6414.6253   -13276.193    16914.539   0.91132952 
    1590    292.22619   -6447.2238   -6414.6255   -13462.144    16914.539   0.91275471 
    1600    296.71233   -6447.7243   -6414.6256   -13630.138    16914.539   0.91602557 
    1610    298.76154   -6447.9536   -6414.6263   -13722.427    16914.539   0.92135086 
    1620    292.39065   -6447.2423   -6414.6257   -13309.957    16914.539   0.92745789 
    1630    287.36199   -6446.6803   -6414.6246   -12820.554    16914.539   0.93230372 
    1640    296.02429   -6447.6483   -6414.6263   -13120.327    16914.539   0.93527841 
    1650    300.16791   -6448.1107   -6414.6265   -13790.323    16914.539   0.93826144 
    1660    293.71858   -6447.3901   -6414.6253    -14241.14    16914.539   0.94282849 
    1670    288.35047   -6446.7915   -6414.6256   -14455.623    16914.539   0.94858717 
    1680    282.73321   -6446.1651   -6414.6258   -14172.658    16914.539   0.95453176 
    1690    275.72229   -6445.3823   -6414.6251   -13627.921    16914.539   0.95952727 
    1700    277.97595   -6445.6333   -6414.6247   -13300.724    16914.539   0.96211871 
    1710    291.05049   -6447.0941    -6414.627    -13269.73    16914.539   0.96263565 
    1720    289.50874   -6446.9216   -6414.6265   -13136.603    16914.539    0.9641931 
    1730     279.6014   -6445.8141   -6414.6241    -12984.07    16914.539   0.96762806 
    1740    285.21215   -6446.4421   -6414.6263   -12956.522    16914.539    0.9714688 
    1750    286.63852   -6446.6019   -6414.6269    -12491.03    16914.539   0.97542993 
    1760    276.86406   -6445.5095   -6414.6249   -11731.805    16914.539   0.97865163 
    1770    278.27156   -6445.6664   -6414.6248   -11664.802    16914.539   0.98004953 
    1780    292.12948   -6447.2142   -6414.6268   -12328.976    16914.539   0.98151253 
    1790    296.31795   -6447.6809   -6414.6262   -12931.917    16914.539   0.98612529 
    1800    292.55667   -6447.2612    -6414.626   -13640.461    16914.539   0.99403792 
    1810    285.79514   -6446.5059    -6414.625   -14229.526    16914.539    1.0030771 
    1820    288.12419   -6446.7662   -6414.6256   -14597.158    16914.539    1.0110949 
    1830    292.85204   -6447.2945   -6414.6264   -14639.212    16914.539    1.0174953 
    1840    289.21054   -6446.8874   -6414.6255   -13970.459    16914.539    1.0218515 
    1850    287.11754   -6446.6534    -6414.625   -13100.598    16914.539    1.0231482 
    1860    292.11589   -6447.2121   -6414.6262   -12689.719    16914.539    1.0216815 
    1870    291.24456   -6447.1151   -6414.6264    -12380.18    16914.539    1.0194153 
    1880    284.36534   -6446.3461   -6414.6247   -12152.672    16914.539    1.0178874 
    1890     288.1505   -6446.7696    -6414.626   -12357.505    16914.539    1.0174891 
    1900    290.81767   -6447.0678   -6414.6266   -12569.765    16914.539    1.0188537 
    1910    284.40865   -6446.3521   -6414.6259   -12506.032    16914.539    1.0221045 
    1920    279.51829   -6445.8054   -6414.6247   -12334.547    16914.539    1.0260227 
    1930    286.47358   -6446.5831   -6414.6265   -12454.296    16914.539    1.0290399 
    1940    288.06715   -6446.7604    -6414.626   -12717.705    16914.539    1.0306657 
    1950    286.25893   -6446.5579   -6414.6253   -12605.082    16914.539    1.0306186 
    1960    289.99788   -6446.9755   -6414.6258   -12348.209    16914.539    1.0295042 
    1970    293.21828    -6447.335    -6414.626   -12071.048    16914.539    1.0291662 
    1980    292.53599   -6447.2583   -6414.6255   -11867.242    16914.539    1.0306618 
    1990    292.57928   -6447.2634   -6414.6257   -12029.322    16914.539    1.0338136 
    2000    292.21203   -6447.2225   -6414.6258   -12394.635    16914.539    1.0382092 
Loop time of 1592.15 on 16 procs for 2000 steps with 864 atoms

Performance: 0.109 ns/day, 221.131 hours/ns, 1.256 timesteps/s
97.4% CPU use with 16 MPI tasks x 1 OpenMP threads

MPI task timing breakdown:
Section |  min time  |  avg time  |  max time  |%varavg| %total
---------------------------------------------------------------
Pair    | 925.14     | 1277       | 1590.7     | 469.5 | 80.21
Bond    | 0.00017738 | 0.00046362 | 0.0010583  |   0.0 |  0.00
Neigh   | 0.025898   | 0.036296   | 0.055722   |   3.9 |  0.00
Comm    | 1.164      | 289.68     | 666.73     | 948.7 | 18.19
Output  | 0.2211     | 16.102     | 37.646     | 375.7 |  1.01
Modify  | 0.0091872  | 0.010909   | 0.013628   |   1.3 |  0.00
Other   |            | 9.328      |            |       |  0.59

Nlocal:        54.0000 ave          73 max          37 min
Histogram: 1 0 1 2 5 5 0 0 1 1
Nghost:        565.875 ave         657 max         471 min
Histogram: 1 1 0 5 2 2 0 2 1 2
Neighs:         0.00000 ave           0 max           0 min
Histogram: 16 0 0 0 0 0 0 0 0 0
FullNghs:      2887.12 ave        4564 max        1794 min
Histogram: 1 3 4 2 2 0 2 0 0 2

Total # of neighbors = 46194
Ave neighs/atom = 53.465278
Ave special neighs/atom = 0.0000000
Neighbor list builds = 199
Dangerous builds = 198
unfix   1

velocity    all create 1200.0 1312343 dist gaussian
fix     2 all npt temp 1200.0 1200.0 $(100.0*dt) aniso 0.0 1.01325 $(1000.0*dt)
fix     2 all npt temp 1200.0 1200.0 0.10000000000000000555 aniso 0.0 1.01325 $(1000.0*dt)
fix     2 all npt temp 1200.0 1200.0 0.10000000000000000555 aniso 0.0 1.01325 1
run     3000
Per MPI rank memory allocation (min/avg/max) = 8.905 | 8.910 | 8.916 Mbytes
Step Temp PotEng TotEng Press Volume c_msd[4] 
    2000         1200   -6447.2225   -6313.3606   -5999.9558    16914.539    1.0382092 
    2010    994.30632   -6424.2044    -6313.288    679.02173    16913.099    1.0550962 
    2020    768.45858   -6398.6396   -6312.9169    8069.0877    16912.064    1.0878101 
    2030    746.07537   -6395.2876   -6312.0618    8029.7904    16915.463    1.1161694 
    2040    734.92186   -6392.6591   -6310.6775    6901.1973    16923.658    1.1407755 
    2050    697.90519   -6386.9722   -6309.1198    6875.7921    16936.074    1.1656247 
    2060    690.03199   -6384.6913   -6307.7172    7370.1184    16952.675    1.1915308 
    2070    706.37369   -6385.2533   -6306.4563    7221.8907    16973.737    1.2178111 
    2080    744.37801   -6388.1818   -6305.1453    5698.2068    16999.135    1.2444136 
    2090    753.42013   -6387.7059   -6303.6608    4647.7355    17028.086    1.2730829 
    2100    761.42016   -6386.9606   -6302.0231    3429.4531    17059.918    1.3030153 
    2110    776.78765   -6386.8706   -6300.2188    2497.3643      17093.9    1.3320775 
    2120    759.99656   -6383.1215   -6298.3427     2773.477    17129.503    1.3588263 
    2130    765.88311   -6381.8853   -6296.4498    2209.0287    17166.756    1.3806348 
    2140    809.81442   -6384.7623   -6294.4263    140.00298    17205.246    1.3985231 
    2150     831.2613   -6384.9842   -6292.2558   -1417.2411    17243.745    1.4180747 
    2160    807.83965   -6380.2013   -6290.0856   -1067.4931    17281.347    1.4407995 
    2170    814.39507   -6378.7675   -6287.9206   -1538.8195    17318.044    1.4633327 
    2180    827.00392   -6377.9185    -6285.665   -2697.1364    17353.509    1.4859112 
    2190    809.81436   -6373.7116   -6283.3756   -3271.0404    17387.066    1.5110515 
    2200    820.07342   -6372.5514    -6281.071   -3842.6348    17418.273    1.5371019 
    2210    849.13273   -6373.3939   -6278.6719   -3416.4269    17446.819    1.5619054 
    2220    858.09601   -6371.9736   -6276.2517   -2251.0343    17472.953    1.5865104 
    2230    854.30355   -6369.1497   -6273.8509   -1545.6533    17497.351    1.6108532 
    2240    868.17825   -6368.2913   -6271.4447   -2041.9078    17520.414    1.6304674 
    2250    900.54135   -6369.4164   -6268.9597   -3403.5216    17541.843    1.6431346 
    2260    906.03292   -6367.5086   -6266.4392   -3653.5204    17560.898    1.6525267 
    2270    890.48176   -6363.2938   -6263.9592   -3160.7104    17577.412    1.6621891 
    2280    912.22563   -6363.2335   -6261.4734   -3239.4936    17591.644    1.6720175 
    2290    925.61669   -6362.1794   -6258.9254   -2981.0291    17603.619    1.6844847 
    2300    916.23762   -6358.6075   -6256.3998   -2039.6918    17613.551    1.7028792 
    2310    903.88787   -6354.7354   -6253.9053   -1389.1012    17622.015    1.7277183 
    2320    915.92078   -6353.5644    -6251.392   -1108.8273    17629.447    1.7542225 
    2330    933.04956   -6352.9196   -6248.8365   -1397.0718    17636.041    1.7759408 
    2340     956.1693   -6352.9072   -6246.2451   -2373.4241    17641.604    1.7914898 
    2350    985.45913    -6353.564   -6243.6345   -2766.7409    17645.595    1.8044064 
    2360    1026.6683   -6355.5282   -6241.0018   -2317.9426    17647.798    1.8203729 
    2370    1011.0279   -6351.1897    -6238.408    -467.8448    17648.562    1.8451149 
    2380    985.10776   -6345.8168   -6235.9266      1326.13    17649.009    1.8755226 
    2390    993.78378   -6344.3126   -6233.4546    1716.5145    17650.231    1.9041432 
    2400    1000.8013   -6342.5832   -6230.9423    1607.4486    17652.525    1.9283674 
    2410    1007.3944   -6340.7953    -6228.419    1978.8104    17655.867    1.9467306 
    2420     1044.502   -6342.3721   -6225.8564    2322.6818    17660.456    1.9571521 
    2430    1076.9029   -6343.4081    -6223.278    2152.5761    17666.447    1.9624064 
    2440    1084.8021    -6341.761   -6220.7497    2739.3457     17673.81    1.9711597 
    2450    1069.0152   -6337.5538   -6218.3036    3249.1191    17682.855    1.9881973 
    2460    1044.8065   -6332.4843   -6215.9345    3577.0947    17693.883    2.0086312 
    2470     1031.831   -6328.7056   -6213.6033    3894.4371    17707.106    2.0257934 
    2480    1084.7303    -6332.221   -6211.2177    3170.9133    17722.616    2.0403709 
    2490    1091.6849   -6330.5635   -6208.7844    3251.7885    17740.069    2.0569293 
    2500    1135.8153   -6333.1056   -6206.4037     1933.368    17759.302    2.0717932 
    2510    1143.0011   -6331.5409   -6204.0374    1684.7203    17779.621    2.0883676 
    2520    1132.4562   -6328.1196   -6201.7924    2467.1692    17800.829    2.1073593 
    2530    1147.9514   -6327.6681   -6199.6124     2759.984    17823.316    2.1252193 
    2540    1144.9161   -6325.2072   -6197.4901    2635.2145    17847.272    2.1433752 
    2550    1147.6116   -6323.4468    -6195.429    2031.5331    17872.582     2.162431 
    2560    1147.0822   -6321.3502   -6193.3914    1407.4148    17898.832    2.1829564 
    2570    1143.0542   -6318.8881   -6191.3787    1182.1262    17925.604    2.2035393 
    2580    1146.5313   -6317.2846   -6189.3873    1238.9154    17952.719    2.2215416 
    2590    1169.7372    -6317.909   -6187.4231    1401.0171      17980.2    2.2373225 
    2600    1200.1177   -6319.3434   -6185.4685    1615.3082    18008.114    2.2538802 
    2610    1221.8838   -6319.9091   -6183.6061     2002.654    18036.589    2.2705004 
    2620    1236.5308   -6319.7939   -6181.8571    1754.6401    18065.801    2.2880553 
    2630    1230.6706   -6317.5354   -6180.2522    1268.8379    18095.588    2.3098807 
    2640    1212.8848   -6314.0713   -6178.7721    867.76774    18125.606    2.3353894 
    2650    1214.7042   -6312.8848   -6177.3827    751.27857    18155.565    2.3611181 
    2660    1229.5608   -6313.2251   -6176.0657    355.83309    18185.317    2.3884405 
    2670    1208.8499   -6309.6707   -6174.8217   -218.81488    18214.613    2.4232056 
    2680    1214.0104    -6309.051   -6173.6263   -1734.3384    18242.974    2.4618062 
    2690    1190.1619   -6305.2125   -6172.4482   -1714.6081    18269.538    2.4997617 
    2700    1166.0972   -6301.3959    -6171.316   -193.37382    18294.332    2.5363908 
    2710    1169.3793   -6300.6089   -6170.1629    622.18653    18318.309    2.5707926 
    2720    1222.1987   -6305.2842    -6168.946   -514.21807    18341.953    2.6046501 
    2730    1229.8041   -6304.9104   -6167.7239   -1133.7286    18364.649    2.6461663 
    2740    1222.4573    -6302.976    -6166.609    -1017.233    18385.981     2.696397 
    2750    1229.9252   -6302.7654   -6165.5654   -780.07632    18406.031    2.7489276 
    2760    1251.0017   -6304.1573   -6164.6062   -600.30761    18425.004    2.8003076 
    2770      1265.83    -6304.959   -6163.7538   -1303.3324    18442.989    2.8540275 
    2780    1250.4457   -6302.5381    -6163.049   -1188.6888    18459.642    2.9075143 
    2790     1227.331   -6299.3964   -6162.4857   -474.56314    18475.069    2.9517853 
    2800    1217.0457   -6297.7615   -6161.9982   -463.59644     18489.74    2.9859018 
    2810    1230.4537   -6298.8148   -6161.5559   -1535.7275     18503.64    3.0168958 
    2820    1205.2548   -6295.6044   -6161.1564   -1883.5481    18516.184    3.0549911 
    2830    1234.2543   -6298.4752   -6160.7923   -2193.9948    18527.081    3.1017001 
    2840    1251.2426   -6300.0674   -6160.4894   -1880.0178    18536.207    3.1558554 
    2850    1257.5936   -6300.5827   -6160.2962   -1879.7725    18543.751    3.2103661 
    2860    1262.0859   -6301.0147   -6160.2271   -1781.3502    18549.789    3.2577479 
    2870    1258.0807   -6300.6501   -6160.3093   -1276.8364     18554.44     3.294613 
    2880     1220.268   -6296.6378   -6160.5151   -486.47544    18558.108    3.3211353 
    2890     1218.639   -6296.7206   -6160.7796    -1122.136    18561.253    3.3409443 
    2900    1236.1837   -6299.0003   -6161.1022   -2081.8826    18563.521    3.3643475 
    2910    1184.0903   -6293.5603   -6161.4732   -853.83085    18564.432    3.3973066 
    2920    1171.0853   -6292.4558   -6161.8195   -399.70704    18564.665    3.4336238 
    2930    1192.2875   -6295.1138   -6162.1123   -1420.2858    18564.521    3.4715254 
    2940     1204.362   -6296.7456   -6162.3972   -2083.7994    18563.381    3.5169238 
    2950     1178.342   -6294.1237   -6162.6779   -1564.7212    18560.842    3.5678218 
    2960    1162.0188   -6292.5319    -6162.907   -155.54423    18557.303    3.6086326 
    2970    1185.9071    -6295.364   -6163.0742     824.7952    18553.685     3.634959 
    2980    1200.3207   -6297.0893   -6163.1917    1485.5677    18550.712    3.6627383 
    2990    1193.6535   -6296.4689   -6163.3151    1773.0412    18548.825    3.6999949 
    3000    1197.9552   -6297.0624   -6163.4287    888.87982    18548.176    3.7342627 
    3010    1228.8875   -6300.6364   -6163.5521   -1028.2097    18548.088    3.7612166 
    3020    1237.2556   -6301.7559   -6163.7381   -1348.3254    18547.377    3.7906516 
    3030    1203.6607   -6298.2681    -6163.998   -368.95118    18545.803    3.8254607 
    3040    1146.4083   -6292.1349   -6164.2513    801.71036    18544.001     3.859138 
    3050    1120.7295   -6289.4038   -6164.3848       933.21     18542.72    3.8879785 
    3060     1149.247   -6292.5722   -6164.3719    576.85301    18542.099    3.9159628 
    3070    1161.9648   -6293.8634   -6164.2445    639.80619    18541.934     3.948715 
    3080     1164.459   -6293.9225   -6164.0253    539.26386    18542.228    3.9887823 
    3090    1207.1258   -6298.3934   -6163.7367   -75.321367    18542.871    4.0322907 
    3100    1216.5603   -6299.1521    -6163.443   -151.71908    18543.483    4.0751471 
    3110    1191.7166    -6296.115   -6163.1772   -106.65036    18544.008    4.1142663 
    3120    1187.4968   -6295.3766   -6162.9095    -620.0631    18544.415    4.1481477 
    3130    1184.5751   -6294.7536   -6162.6125   -678.28528    18544.401    4.1795251 
    3140    1183.3451   -6294.2859    -6162.282   -354.27479     18543.93    4.2090071 
    3150    1180.7018   -6293.6177   -6161.9086   -324.47285    18543.204    4.2385662 
    3160    1176.1973   -6292.6987   -6161.4922   -557.52975    18542.232    4.2781583 
    3170    1198.9797   -6294.7777   -6161.0297   -691.29706    18540.879    4.3365584 
    3180    1229.1383   -6297.6649   -6160.5527   -1175.0672    18539.022    4.4112311 
    3190    1232.4696   -6297.6094   -6160.1256    -1348.099    18536.369    4.4843596 
    3200    1236.9825   -6297.7644   -6159.7772   -1374.2134    18532.787    4.5400295 
    3210    1245.5559   -6298.4599   -6159.5163   -1554.4945    18528.215    4.5757028 
    3220    1229.5341   -6296.5143   -6159.3579   -873.79165    18522.597    4.5979462 
    3230     1207.358   -6293.9372   -6159.2546    282.17086    18516.414    4.6151032 
    3240    1217.5652   -6295.0051   -6159.1839    1129.1169    18510.435    4.6309657 
    3250    1191.6125   -6292.0612   -6159.1351     2187.795    18505.292    4.6521747 
    3260    1161.5567   -6288.6379   -6159.0645    3227.0036    18501.738     4.682085 
    3270     1178.848    -6290.434   -6158.9318    3040.8685    18500.421    4.7185485 
    3280    1195.0232   -6292.0458   -6158.7392    2735.3791    18501.305    4.7622381 
    3290     1235.842   -6296.3997   -6158.5396     1599.506    18504.088    4.8153132 
    3300    1244.2423   -6297.2226   -6158.4255    1246.3184    18508.066    4.8805304 
    3310    1170.5696   -6288.9631   -6158.3843    2622.3633    18513.062    4.9550929 
    3320    1167.2807   -6288.5336   -6158.3217    2218.1279    18519.795    5.0248642 
    3330    1198.0762   -6291.8276   -6158.1804    1442.9748    18528.121    5.0877826 
    3340    1203.1339   -6292.2186   -6158.0072    659.18966    18537.495    5.1448858 
    3350    1199.4263   -6291.6393   -6157.8415   -134.43559    18547.348    5.1921856 
    3360    1187.0263   -6290.0868   -6157.6722   -291.31013    18557.174    5.2302941 
    3370    1178.0341   -6288.8905    -6157.479   -386.10274    18566.796    5.2645561 
    3380    1176.1945   -6288.4563     -6157.25     276.9802    18576.219    5.3075002 
    3390    1180.0004   -6288.5998   -6156.9689    721.11548    18585.844    5.3586396 
    3400    1205.9603   -6291.1691   -6156.6424    309.72915    18595.946    5.4107938 
    3410    1233.5366    -6293.916   -6156.3131   -414.26252     18606.26    5.4649833 
    3420    1230.4541   -6293.3038   -6156.0448    -806.8821    18616.309     5.518543 
    3430    1204.1392    -6290.155   -6155.8315   -1062.6284    18625.791    5.5643249 
    3440    1183.8852   -6287.7073   -6155.6432   -921.58243    18634.541    5.6030728 
    3450    1147.9301   -6283.4683    -6155.415    9.4932129    18642.686    5.6409908 
    3460    1144.2017   -6282.7345   -6155.0971    368.76003    18650.794    5.6818838 
    3470    1198.4448   -6288.3568   -6154.6684   -403.41393    18659.111    5.7191589 
    3480    1222.6854    -6290.588   -6154.1956   -1100.4273    18667.157    5.7453306 
    3490    1226.0023   -6290.5348   -6153.7724   -674.98807    18674.488    5.7675019 
    3500    1196.9168   -6286.9136   -6153.3957    342.96259    18681.379    5.7934288 
    3510    1206.1728   -6287.5935   -6153.0431    15.011605     18688.45    5.8243816 
    3520    1238.9727   -6290.9094   -6152.7002   -1532.2037    18695.471     5.857292 
    3530    1256.0655   -6292.5463   -6152.4303   -2449.3409    18701.422    5.8892159 
    3540    1248.6185   -6291.5499   -6152.2646   -2422.0963    18705.648    5.9264759 
    3550    1248.9316   -6291.5285   -6152.2083   -2218.2082    18708.124    5.9778355 
    3560    1262.5745   -6293.1112   -6152.2691   -2679.9553     18708.95    6.0403678 
    3570    1283.5249   -6295.6799   -6152.5008   -3406.3016     18707.79    6.1056806 
    3580    1249.6056   -6292.2965   -6152.9011   -2675.6888    18704.252    6.1711232 
    3590    1257.1165   -6293.6779   -6153.4446   -2252.8928    18698.725    6.2359135 
    3600    1242.7885   -6292.7358   -6154.1009   -1345.1638    18691.622    6.3034973 
    3610    1231.4984   -6292.2422   -6154.8667   -1798.5003    18683.445    6.3674722 
    3620    1236.5552   -6293.6469   -6155.7073   -2524.7773    18673.967    6.4197399 
    3630     1230.585   -6293.8886    -6156.615   -2618.4904    18662.711     6.453679 
    3640      1210.76   -6292.6247   -6157.5626   -2432.1428    18649.604    6.4722305 
    3650    1195.2276   -6291.8183   -6158.4889   -2268.3681    18634.791    6.4908922 
    3660    1229.2171   -6296.5467   -6159.4257   -2868.2523    18618.329    6.5229247 
    3670     1231.113   -6297.7555    -6160.423     -2930.38     18599.91    6.5714246 
    3680    1209.1012   -6296.3361   -6161.4591   -2071.5707    18579.508    6.6270295 
    3690    1183.6539   -6294.4837   -6162.4453   -482.67566     18557.77    6.6797147 
    3700    1168.4296   -6293.6905   -6163.3504    633.43508    18535.768    6.7291144 
    3710    1174.8003   -6295.2177   -6164.1669     1159.558     18514.31    6.7806972 
    3720    1167.5848   -6295.1488    -6164.903    1644.7935    18493.826    6.8287409 
    3730    1163.9441   -6295.4081   -6165.5684    1931.3677    18474.632    6.8623898 
    3740    1160.2029   -6295.5711   -6166.1487    2193.4617    18456.943     6.874349 
    3750     1160.194   -6296.0513   -6166.6299    2568.9327    18440.938    6.8751688 
    3760    1170.0697   -6297.5635   -6167.0405    2967.8914    18426.852    6.8810752 
    3770      1155.94   -6296.3125   -6167.3656    3602.2123    18414.983    6.8947985 
    3780    1183.8456   -6299.6911   -6167.6313    3587.0254    18405.693    6.9111911 
    3790    1190.3302   -6300.6434   -6167.8603    3943.0186    18399.033    6.9258482 
    3800    1158.5464   -6297.2826    -6168.045    4959.8434    18395.246     6.942182 
    3810    1178.5293   -6299.6434   -6168.1767    4890.6039    18394.892    6.9604625 
    3820      1170.35   -6298.8065   -6168.2522    5133.6133     18398.04    6.9809403 
    3830    1120.8619   -6293.2967   -6168.2629     5342.331    18404.806    7.0062469 
    3840    1117.5277   -6292.8049    -6168.143     4872.101    18415.288    7.0389999 
    3850    1134.6136   -6294.4196   -6167.8517    3815.2223    18429.146    7.0835474 
    3860    1151.3436   -6295.8489   -6167.4148    2826.6266    18445.665    7.1401549 
    3870    1158.8896   -6296.1392   -6166.8633      2400.41    18464.169    7.2036722 
    3880    1174.7179    -6297.266   -6166.2245    2269.5937    18484.352    7.2653491 
    3890    1212.1533   -6300.7412   -6165.5237    1325.2591    18506.034    7.3242505 
    3900    1204.0943   -6299.1386     -6164.82    1147.9375    18528.645    7.3883349 
    3910    1177.3321   -6295.4725   -6164.1393    1647.8982    18552.037    7.4591906 
    3920    1197.0876   -6296.9801   -6163.4432    1376.7856    18576.452    7.5344802 
    3930    1172.1976   -6293.4764    -6162.716    1662.6817    18601.807    7.6072767 
    3940    1152.5092   -6290.5243   -6161.9602    1419.5904    18628.202    7.6633731 
    3950    1183.1284   -6293.1018    -6161.122    193.36501     18655.41    7.7047507 
    3960    1204.2843   -6294.5444   -6160.2047   -869.87377     18682.63    7.7528657 
    3970    1208.8088   -6294.1375    -6159.293   -1339.1068    18709.096    7.8100142 
    3980    1209.3488   -6293.3136    -6158.409   -1295.6845    18734.457    7.8617035 
    3990     1221.912   -6293.8682   -6157.5621   -1630.2719    18758.663    7.9083601 
    4000    1238.5931   -6294.9458   -6156.7789   -1441.9533    18781.547    7.9550786 
    4010     1240.478    -6294.465   -6156.0878   -1216.4521    18803.215    8.0063319 
    4020    1246.1835    -6294.516   -6155.5024   -1033.7978    18823.833    8.0651758 
    4030    1228.6422   -6292.0764   -6155.0195   -406.49954     18843.57    8.1304206 
    4040    1251.0566   -6294.1899   -6154.6327   -597.78161    18862.801    8.1925818 
    4050    1235.0187   -6292.0927   -6154.3246   -1331.2793     18881.41    8.2444292 
    4060    1221.8097   -6290.4152   -6154.1205    -1247.199    18898.942    8.2873034 
    4070    1182.4375   -6285.8588   -6153.9562   -517.90586    18915.451    8.3365038 
    4080    1160.2546   -6283.1927   -6153.7645   -628.23227    18931.396    8.4010992 
    4090    1171.2115   -6284.1483   -6153.4979   -1346.8076    18946.698    8.4770333 
    4100     1155.459   -6282.0334   -6153.1402   -1168.4362     18960.96    8.5501722 
    4110    1186.7025   -6285.0825    -6152.704   -1997.8577    18974.155    8.6079451 
    4120    1238.4237   -6290.3608   -6152.2128    -3712.932    18985.706    8.6519801 
    4130    1247.1981   -6290.8948    -6151.768   -4602.2437    18994.437     8.684224 
    4140    1241.1681   -6289.9002    -6151.446   -4517.3813    18999.698    8.7090293 
    4150    1260.4955     -6291.85   -6151.2398   -4451.3177    19001.514    8.7270574 
    4160    1249.2258   -6290.5195   -6151.1665   -3586.1019    19000.016    8.7428287 
    4170    1219.2358   -6287.2154   -6151.2078   -1912.3071    18995.905    8.7682629 
    4180    1185.8985   -6283.5691   -6151.2803   -1182.2709    18990.328    8.8121305 
    4190    1191.9786    -6284.299    -6151.332   -1959.9747    18983.821    8.8643953 
    4200    1213.5722   -6286.7672   -6151.3914   -3255.6467    18975.849    8.9128542 
    4210    1165.8221   -6281.5057   -6151.4564    -3392.585    18965.593    8.9509107 
    4220    1151.6458   -6279.9379     -6151.47   -3567.7767    18952.877    8.9831952 
    4230    1177.5246   -6282.7481   -6151.3934   -3218.6697    18937.612    9.0248753 
    4240    1169.0797   -6281.6519   -6151.2393   -1600.2345    18920.159    9.0687114 
    4250    1181.4445   -6282.7932   -6151.0012   -741.42128    18901.616    9.0948505 
    4260    1237.9945   -6288.8347   -6150.7346   -1104.1761    18882.592    9.0980425 
    4270     1227.408   -6287.4374   -6150.5182   -555.17662    18862.975    9.0948248 
    4280    1200.1197   -6284.2308   -6150.3556    311.44692    18843.138    9.0973338 
    4290    1226.3972   -6287.0156   -6150.2091   -234.96777    18823.612    9.1143285 
    4300    1242.7603   -6288.7526   -6150.1208   -350.76252    18804.128    9.1577228 
    4310    1211.8205   -6285.2779   -6150.0975    585.74972    18784.633    9.2225467 
    4320    1216.7735    -6285.854   -6150.1211     1173.506    18765.707    9.2886244 
    4330    1211.3159   -6285.2892   -6150.1651    2001.3462    18747.841     9.348175 
    4340    1208.9669   -6285.0935   -6150.2314    2658.5508    18731.578    9.3964858 
    4350    1216.8073   -6286.0545   -6150.3178    2918.6035    18717.385    9.4367423 
    4360    1223.7938    -6286.967    -6150.451    2352.1777     18705.38    9.4748215 
    4370    1214.5528   -6286.1302    -6150.645     2373.204    18695.236    9.5107453 
    4380    1210.8424   -6285.9627   -6150.8915    2171.5265    18686.879    9.5431129 
    4390    1194.6538   -6284.4146   -6151.1492    1817.1218     18680.17    9.5684975 
    4400    1209.0651    -6286.293     -6151.42    774.02049    18674.777    9.5886178 
    4410    1198.8543   -6285.4345   -6151.7005    100.33123    18670.012    9.6158169 
    4420     1218.831   -6287.9762   -6152.0138    -17.99001    18665.386    9.6464529 
    4430    1215.9913   -6288.0036    -6152.358    148.63108    18660.809    9.6768234 
    4440    1220.7929   -6288.9375   -6152.7562    270.11389    18656.368    9.7057917 
    4450    1206.8098   -6287.8221   -6153.2007    567.20699    18652.184    9.7415035 
    4460    1192.6311   -6286.6974   -6153.6576    296.09227    18648.405    9.7893334 
    4470    1188.5336   -6286.6858   -6154.1031     135.5318    18644.879    9.8493672 
    4480    1194.0098   -6287.7152   -6154.5216    24.323568     18641.49    9.9086937 
    4490    1211.1959   -6290.0585   -6154.9478   -405.98713    18638.112    9.9493757 
    4500    1207.2912     -6290.07   -6155.3948   -868.08945    18634.454    9.9776039 
    4510    1235.2642   -6293.6861   -6155.8906    -1623.609    18630.156    9.9885376 
    4520    1209.6803   -6291.3901   -6156.4484   -537.66848    18624.835    9.9774103 
    4530    1164.6934   -6286.9275   -6157.0042    1139.1515     18619.19    9.9576992 
    4540    1182.0772   -6289.3549   -6157.4925    1612.3668    18614.311     9.948175 
    4550    1205.5229   -6292.4333   -6157.9554    1099.9817    18610.547    9.9543287 
    4560    1185.3875   -6290.6477   -6158.4159    1019.2664    18607.638    9.9732121 
    4570    1201.2647   -6292.8793   -6158.8765    531.48582    18605.439    10.001957 
    4580    1185.3164   -6291.5459   -6159.3221     661.2871    18603.675    10.027716 
    4590    1165.5379   -6289.7463   -6159.7288    1343.5824    18602.442    10.030911 
    4600    1179.4338   -6291.6496    -6160.082    1235.0181    18602.127    10.022319 
    4610     1160.822   -6289.8692   -6160.3778    1765.1185    18602.765     10.01855 
    4620     1145.441   -6288.3569   -6160.5812     1806.281    18604.659    10.021236 
    4630    1178.6889   -6292.1997   -6160.7152    620.91863    18607.752    10.035039 
    4640    1161.5694   -6290.3484   -6160.7736    613.79379    18611.386    10.061064 
    4650    1166.9403   -6290.9536   -6160.7797    518.76129    18615.426    10.096588 
    4660    1133.1282    -6287.092   -6160.6899    1627.1556    18619.927    10.146608 
    4670    1124.7809   -6285.9471   -6160.4761    2235.4709    18625.554    10.203624 
    4680    1168.5416   -6290.4453   -6160.0927     2287.751    18632.778    10.262294 
    4690     1209.841   -6294.5603   -6159.6008     1663.239     18641.59    10.320431 
    4700    1217.6159   -6294.9194   -6159.0925    988.64799    18651.615    10.364694 
    4710    1221.0096   -6294.8158   -6158.6104   -24.420708    18662.328    10.393752 
    4720    1222.9688   -6294.5875   -6158.1634   -808.58515    18673.022    10.426598 
    4730    1213.1065   -6293.0614   -6157.7376   -1242.6065    18683.116    10.481968 
    4740     1190.459   -6290.1333   -6157.3358   -1228.8694    18692.304    10.563385 
    4750    1179.7923   -6288.5152   -6156.9076   -1376.8011    18700.536    10.657383 
    4760    1159.5203   -6285.7516   -6156.4053   -1147.2175    18707.769    10.740714 
    4770    1146.1189    -6283.662   -6155.8107   -1151.3205    18714.118     10.80724 
    4780    1158.7205   -6284.3544   -6155.0974   -1047.8295    18719.622    10.870992 
    4790     1170.001   -6284.7786   -6154.2632   -754.40657    18724.347    10.933961 
    4800    1183.3299   -6285.3735   -6153.3712    85.784224    18728.525    10.992004 
    4810    1187.4536   -6284.9122     -6152.45    1116.5175    18732.768    11.055855 
    4820    1187.4282   -6284.0083   -6151.5489    1643.0338    18737.771    11.129275 
    4830    1191.0716   -6283.5395   -6150.6737    1726.2079    18743.929    11.208379 
    4840    1201.1808   -6283.8206    -6149.827    1169.0555    18751.278    11.284668 
    4850    1194.4193   -6282.2916   -6149.0523    905.93087    18759.482    11.352764 
    4860    1218.9572   -6284.3249   -6148.3484    452.29259    18768.283    11.414137 
    4870    1201.8015    -6281.782   -6147.7192     1088.779    18777.463    11.473712 
    4880    1167.9401   -6277.4512   -6147.1657    1719.2172    18787.409    11.533686 
    4890    1216.5538   -6282.3542   -6146.6458    280.92173     18798.39    11.592739 
    4900    1203.2574   -6280.3843   -6146.1591    278.42197    18809.656    11.648774 
    4910    1215.2709   -6281.3157   -6145.7504   -52.426635    18821.046    11.699778 
    4920    1264.1666   -6286.4349   -6145.4152   -804.32004    18832.322    11.756294 
    4930    1246.6502   -6284.2724   -6145.2067   -645.34836    18843.017    11.831343 
    4940    1222.0301   -6281.4525   -6145.1332   -312.52182    18853.185    11.912329 
    4950    1185.7934   -6277.3767   -6145.0997    236.63262    18863.108    11.989001 
    4960     1193.525   -6278.2024   -6145.0629   -67.181725    18873.107    12.071614 
    4970    1230.8413   -6282.3214   -6145.0192   -724.59076    18883.009    12.163758 
    4980     1217.022   -6280.7785   -6145.0179   -633.74024     18892.39    12.252336 
    4990    1213.5748   -6280.4399   -6145.0638   -399.08963    18901.275    12.324921 
    5000    1218.9014   -6281.1138   -6145.1435   -439.76574    18909.809    12.383973 
Loop time of 2492.92 on 16 procs for 3000 steps with 864 atoms

Performance: 0.104 ns/day, 230.826 hours/ns, 1.203 timesteps/s
96.2% CPU use with 16 MPI tasks x 1 OpenMP threads

MPI task timing breakdown:
Section |  min time  |  avg time  |  max time  |%varavg| %total
---------------------------------------------------------------
Pair    | 2015.9     | 2238.8     | 2468       | 297.3 | 89.81
Bond    | 0.00023675 | 0.00081232 | 0.0020311  |   0.0 |  0.00
Neigh   | 0.040519   | 0.045222   | 0.056633   |   2.2 |  0.00
Comm    | 23.715     | 195.48     | 474.75     | 932.3 |  7.84
Output  | 0.19762    | 0.20113    | 0.25234    |   2.9 |  0.01
Modify  | 0.96299    | 58.324     | 125.66     | 678.4 |  2.34
Other   |            | 0.01637    |            |       |  0.00

Nlocal:        54.0000 ave          62 max          47 min
Histogram: 1 2 1 1 4 2 2 1 1 1
Nghost:        525.688 ave         557 max         502 min
Histogram: 2 4 1 2 1 1 0 2 1 2
Neighs:         0.00000 ave           0 max           0 min
Histogram: 16 0 0 0 0 0 0 0 0 0
FullNghs:      2440.25 ave        3117 max        2020 min
Histogram: 1 3 1 5 3 1 0 0 1 1

Total # of neighbors = 39044
Ave neighs/atom = 45.189815
Ave special neighs/atom = 0.0000000
Neighbor list builds = 300
Dangerous builds = 300
unfix   2

fix     3 all npt temp 1200.0 1200.0 $(100.0*dt) aniso 1.01325 1.01325 $(1000.0*dt)
fix     3 all npt temp 1200.0 1200.0 0.10000000000000000555 aniso 1.01325 1.01325 $(1000.0*dt)
fix     3 all npt temp 1200.0 1200.0 0.10000000000000000555 aniso 1.01325 1.01325 1
run     20000
Per MPI rank memory allocation (min/avg/max) = 8.906 | 8.911 | 8.919 Mbytes
Step Temp PotEng TotEng Press Volume c_msd[4] 
    5000    1218.9014   -6281.1138   -6145.1435   -439.76574    18909.809    12.383973 
    5010    1164.3951   -6275.0271   -6145.1371    414.01774    18909.752    12.431666 
    5020    1163.6999   -6274.8944   -6145.0819     282.4811    18909.936    12.481964 
    5030    1194.6222   -6278.2147   -6144.9528   -129.81887    18910.304    12.529687 
    5040    1197.5033   -6278.3722   -6144.7889    453.59967    18910.652    12.566256 
    5050    1239.3175   -6282.8821   -6144.6344    461.11625    18911.286    12.587433 
    5060    1275.7566   -6286.8647   -6144.5522    1020.9742    18912.338    12.607693 
    5070    1272.1919   -6286.5506   -6144.6357    1356.3805    18914.141    12.642317 
    5080    1237.2878   -6282.9146   -6144.8933    1265.7589     18916.95    12.694714 
    5090    1216.9304   -6280.9978   -6145.2474    480.21855    18920.685    12.761022 
    5100     1216.233    -6281.361   -6145.6884   -403.74171    18924.767    12.839424 
    5110    1195.8104   -6279.5991   -6146.2047    -356.9436    18928.645    12.923924 
    5120    1216.6687    -6282.519   -6146.7978   -1095.0341    18932.217    13.004121 
    5130     1224.073   -6284.0512    -6147.504   -1599.2444    18934.996    13.067129 
    5140    1193.3033   -6281.4587   -6148.3439   -1216.1242    18936.649     13.10868 
    5150      1171.91   -6279.9835   -6149.2552   -660.67102    18937.399    13.140919 
    5160    1156.6475   -6279.2056   -6150.1798    225.44919    18937.679    13.169865 
    5170    1126.4524   -6276.7169   -6151.0595    1620.3902    18938.172    13.196181 
    5180    1136.1179   -6278.5659   -6151.8302    1510.4211    18939.777    13.215394 
    5190     1156.338   -6281.5063    -6152.515    633.56743    18942.481    13.228182 
    5200    1148.4515   -6281.2472   -6153.1357   -140.84351    18945.667    13.236877 
    5210    1144.8249   -6281.3688   -6153.6619   -822.57872    18948.773    13.245039 
    5220    1152.8354   -6282.7027   -6154.1021   -1464.0362    18951.264    13.267361 
    5230     1132.101   -6280.7074   -6154.4199   -1372.7543    18952.743    13.315565 
    5240    1154.7238   -6283.4475   -6154.6363   -1775.0319    18953.152    13.385889 
    5250    1137.8955   -6281.6787   -6154.7447   -1325.8089    18952.297    13.463813 
    5260     1138.098   -6281.7073   -6154.7507   -819.68344    18950.436    13.540848 
    5270    1138.0055   -6281.5576   -6154.6114   -363.34775    18947.961    13.620072 
    5280    1137.8047   -6281.2365   -6154.3127    181.21242    18945.216    13.693007 
    5290    1131.5313   -6280.0465   -6153.8225    817.83415    18942.601    13.753887 
    5300    1136.4906   -6279.8666   -6153.0893    682.95826    18940.537    13.803507 
    5310    1171.8453   -6282.7882   -6152.0671   -201.55212    18938.923    13.847321 
    5320    1199.0616   -6284.5449   -6150.7878    25.999677    18937.237    13.885788 
    5330    1212.7576   -6284.6288   -6149.3438    525.89435    18935.582    13.920367 
    5340    1205.7417   -6282.3736   -6147.8713    1086.2413    18934.321     13.95894 
    5350    1210.9143   -6281.5605   -6146.4811    1878.0875    18933.892    14.010597 
    5360    1186.9603   -6277.6245   -6145.2173    2356.9722    18934.849    14.077299 
    5370    1189.0252   -6276.7696   -6144.1321    2220.6784    18937.546    14.135737 
    5380    1218.3746   -6279.1107   -6143.1992    1740.2463    18941.936     14.17277 
    5390    1228.8061   -6279.5372    -6142.462    1170.5318    18947.657     14.19665 
    5400    1217.5076   -6277.7301   -6141.9153    821.48427    18954.301    14.216258 
    5410    1203.4386   -6275.7463    -6141.501    816.16885    18961.642    14.232704 
    5420    1197.9157   -6274.7898   -6141.1605    468.75976    18969.632     14.25637 
    5430    1218.8624    -6276.846   -6140.8801   -484.01902    18977.984    14.299812 
    5440    1194.1227   -6273.8581   -6140.6519   -193.21919    18986.124    14.365248 
    5450    1177.3441   -6271.7753   -6140.4408    519.55739    18994.195    14.433498 
    5460    1173.7049   -6271.1272   -6140.1987    851.11215    19002.706    14.491734 
    5470    1161.4575    -6269.484   -6139.9216    1075.4858    19011.917    14.543781 
    5480    1156.4349   -6268.5794   -6139.5774    840.83778    19022.008    14.586748 
    5490    1189.4027   -6271.8539   -6139.1743   -418.26557    19032.732    14.617136 
    5500    1185.4855   -6270.9698   -6138.7271   -703.98629    19043.317    14.636918 
    5510    1215.5318   -6273.8731   -6138.2787   -1342.7973    19053.414     14.65463 
    5520    1213.2857   -6273.1793   -6137.8355   -2223.5004     19062.58    14.685314 
    5530    1220.7624     -6273.63   -6137.4521   -3469.5866    19070.093    14.736207 
    5540    1184.0144   -6269.1733   -6137.0947    -3117.914     19075.15    14.801357 
    5550    1199.3457   -6270.5371   -6136.7482   -2466.3595    19077.866    14.876452 
    5560    1201.6859   -6270.4259    -6136.376   -1387.0913    19078.772    14.964523 
    5570    1225.5901   -6272.7444    -6136.028   -732.40312     19078.59     15.05084 
    5580    1213.5196   -6271.0676   -6135.6977    25.421207    19077.883    15.115478 
    5590    1247.2021   -6274.5481   -6135.4208    113.74942    19077.142    15.161429 
    5600     1250.851   -6274.7554   -6135.2211     874.1073    19076.552    15.216382 
    5610      1223.88   -6271.6523   -6135.1266    1491.8122    19076.615    15.294308 
    5620    1212.2983     -6270.33   -6135.0963    1459.0182    19077.788    15.377338 
    5630    1221.5875   -6271.3725   -6135.1026    947.84991    19080.062    15.445473 
    5640    1232.7965   -6272.6825   -6135.1622    593.54133    19083.117    15.493181 
    5650     1243.154   -6273.9915   -6135.3158    89.478812    19086.632     15.52636 
    5660    1246.4049    -6274.609   -6135.5706    117.05558    19090.321    15.569073 
    5670    1245.6627   -6274.9285   -6135.9729   -180.20053    19094.114    15.637999 
    5680    1205.7484   -6270.9919   -6136.4888   -24.604529    19097.874    15.725517 
    5690    1212.0459   -6272.3121   -6137.1066   -1041.7391    19101.569    15.823933 
    5700    1201.3038   -6271.8176   -6137.8104   -1389.0661    19104.587     15.92989 
    5710    1195.0357   -6271.9002   -6138.5921   -1658.3763    19106.582    16.033583 
    5720    1222.8376   -6275.8735   -6139.4641   -1852.1814    19107.336    16.127524 
    5730    1231.2613     -6277.82    -6140.471   -1161.9804    19106.743    16.212195 
    5740    1234.5987   -6279.3533    -6141.632   -478.09855    19105.239    16.279835 
    5750    1193.9882   -6276.0305   -6142.8393     15.73636    19103.349    16.320334 
    5760    1170.8719   -6274.5919   -6143.9794   -169.15505    19101.398    16.344862 
    5770    1178.2728   -6276.4459   -6145.0078   -649.19872    19099.281    16.375398 
    5780    1165.7411   -6275.9382    -6145.898   -683.31634    19096.678    16.421074 
    5790    1150.8437    -6274.968   -6146.5897   -1177.3136    19093.483    16.481076 
    5800     1174.854   -6278.1734   -6147.1166   -2022.2066    19089.323    16.546907 
    5810    1165.1803   -6277.4893   -6147.5117   -2347.5254    19083.587    16.615987 
    5820    1166.4346   -6277.9091   -6147.7916   -2563.6442    19075.967     16.69523 
    5830    1166.0358   -6278.0553   -6147.9823   -2477.1346    19066.282    16.780243 
    5840    1151.4319   -6276.5241   -6148.0802   -2085.0352    19054.581    16.851983 
    5850    1169.4142   -6278.5344   -6148.0845   -2018.1479    19041.085    16.908794 
    5860    1185.8141   -6280.2974   -6148.0181   -1380.7107    19025.893    16.970258 
    5870    1182.4906   -6279.8263   -6147.9177   -930.08541    19009.381    17.036376 
    5880    1164.3463   -6277.6569   -6147.7723   -512.08799    18991.918    17.080854 
    5890    1187.8126    -6280.079   -6147.5767   -481.85347    18973.761    17.098466 
    5900    1194.8574   -6280.6502   -6147.3621    -335.1404    18954.984    17.091371 
    5910     1201.009   -6281.1301   -6147.1557   -356.54985    18935.672     17.07684 
    5920    1202.4953   -6281.1162    -6146.976   -772.74371    18915.765    17.066181 
    5930    1165.0465   -6276.7493   -6146.7866   -335.49144    18895.063    17.063098 
    5940    1157.7861   -6275.6996   -6146.5469   -224.09577    18873.779    17.075889 
    5950     1173.159   -6277.0956    -6146.228   -17.262615    18852.027    17.101214 
    5960    1165.4843   -6275.8525    -6145.841    1187.2054    18830.042    17.129557 
    5970    1176.9378   -6276.6759   -6145.3867    2048.9324    18808.633    17.164231 
    5980    1219.0829   -6280.8992   -6144.9087    1656.3567    18788.372    17.207953 
    5990    1212.9425   -6279.7677   -6144.4621    2234.4572    18769.146    17.258769 
    6000    1184.7223   -6276.1954   -6144.0378    3817.0865    18751.399    17.318427 
    6010     1213.881   -6279.0279   -6143.6177    4422.8849    18736.171     17.38398 
    6020    1234.6294   -6280.9444   -6143.2197    4649.4478    18723.993    17.438583 
    6030    1240.1785   -6281.2557   -6142.9119    4592.9416    18715.064    17.474577 
    6040    1240.5529   -6281.0854   -6142.6998    4243.8439    18709.393    17.507152 
    6050    1281.4767   -6285.5798   -6142.6292    4155.7302    18706.787    17.560252 
    6060    1260.4309   -6283.3282   -6142.7253    5143.4223    18707.298    17.632404 
    6070    1243.3135   -6281.6747   -6142.9812    5671.1246    18711.578    17.704777 
    6080    1221.3424   -6279.6005    -6143.358    5847.7859    18720.098    17.772836 
    6090    1211.8574   -6278.9868   -6143.8023    5570.8299    18733.057    17.832274 
    6100    1220.6613   -6280.4778   -6144.3112    4731.1662    18750.308    17.884782 
    6110    1184.8286   -6277.0327   -6144.8633    4850.9587    18771.442    17.935601 
    6120     1215.341   -6281.0307   -6145.4576    4104.3919    18796.446    17.983429 
    6130    1226.5907   -6282.9342   -6146.1062    2907.4013     18824.89    18.025578 
    6140    1224.2233   -6283.4155   -6146.8516    1530.4116    18855.909    18.063593 
    6150    1206.6631   -6282.2818   -6147.6767    470.17253    18888.543    18.103486 
    6160    1206.5834   -6283.1712    -6148.575   -790.06637    18921.935    18.156999 
    6170    1195.0647   -6282.8701   -6149.5589   -1063.6611    18955.214    18.222274 
    6180    1175.8645   -6281.7741   -6150.6046   -1162.1055    18988.073    18.292953 
    6190    1174.9254   -6282.7547     -6151.69   -1288.1998    19020.387    18.377585 
    6200    1153.2766   -6281.4143   -6152.7645   -708.09727    19052.093    18.482094 
    6210    1148.7253   -6281.9087   -6153.7667   -954.71244    19083.464    18.602691 
    6220    1164.7087   -6284.5931   -6154.6681   -1890.2704    19114.288    18.723724 
    6230    1153.5694   -6284.1494    -6155.467   -1898.8648    19143.934    18.827982 
    6240    1113.4979   -6280.3181   -6156.1057   -1745.9792    19172.293    18.911385 
    6250    1119.2985   -6281.3884    -6156.529   -2479.2542    19199.361    18.978787 
    6260    1128.9622   -6282.6515   -6156.7141   -3280.7374    19224.617    19.040279 
    6270    1160.2143   -6286.1691   -6156.7455    -4144.933    19247.379    19.109043 
    6280    1137.9921   -6283.5996   -6156.6549   -4257.2238    19267.018    19.186474 
    6290    1130.5796   -6282.5822   -6156.4644   -4283.8517    19283.373    19.261643 
    6300    1134.7298   -6282.7613   -6156.1805   -4146.9554    19296.411    19.333684 
    6310    1114.2381   -6280.1108   -6155.8159   -3791.8897    19306.237    19.410134 
    6320    1100.1811   -6278.0968     -6155.37   -3667.8216    19313.105    19.491173 
    6330    1107.7574     -6278.43    -6154.858   -4140.4609    19317.059    19.585236 
    6340    1088.3349    -6275.714   -6154.3086   -4489.6058    19317.798    19.687566 
    6350    1091.3363   -6275.4803   -6153.7401    -5094.021     19315.02    19.785657 
    6360    1103.7862   -6276.2645   -6153.1355   -5166.9527     19308.33    19.872017 
    6370    1124.4582   -6277.9437   -6152.5087   -4574.1462    19297.671     19.94503 
    6380    1141.6084   -6279.2012   -6151.8531   -3946.7218    19283.472    20.017352 
    6390    1165.1325   -6281.1802   -6151.2079   -3419.1599     19266.22    20.085491 
    6400    1129.5115   -6276.5491   -6150.5504   -2023.1709    19246.424    20.135338 
    6410    1145.1965    -6277.612   -6149.8636   -1661.5745    19225.019    20.155786 
    6420    1155.0561    -6277.951   -6149.1027   -1433.9882    19202.408    20.158134 
    6430    1148.5948    -6276.442   -6148.3146   -1006.9779    19178.765    20.159347 
    6440    1144.8111   -6275.1902   -6147.4848   -496.84146    19154.445    20.168854 
    6450    1178.7429   -6278.1013   -6146.6107   -545.76377    19129.803     20.18655 
    6460    1184.9845   -6277.8934   -6145.7065   -60.361393    19104.916    20.216802 
    6470     1193.181   -6277.9279   -6144.8268     949.4283    19080.148    20.263215 
    6480    1196.5466   -6277.4482   -6143.9716    1873.0139    19056.255    20.312823 
    6490    1205.1016   -6277.6016   -6143.1707    2488.8045    19033.916    20.345709 
    6500    1187.3577    -6274.873   -6142.4214    2792.4754     19013.58    20.373585 
    6510    1176.5803   -6272.9321   -6141.6827    2990.8984    18995.491    20.408619 
    6520    1174.9895   -6272.0065   -6140.9346    3275.2561    18979.788    20.450304 
    6530    1194.1547   -6273.3865   -6140.1768    3459.7292    18966.661    20.500697 
    6540     1181.398   -6271.2106   -6139.4239    4412.7196    18956.291    20.549159 
    6550    1171.2975   -6269.3486   -6138.6886    4940.3799    18949.273    20.582812 
    6560    1190.5969   -6270.7472   -6137.9343    4837.5876    18945.963    20.611268 
    6570    1222.9722   -6273.6244      -6137.2    4210.1376    18946.264    20.632883 
    6580    1229.0817   -6273.6461   -6136.5402    3611.0025    18949.734    20.645336 
    6590    1237.8641   -6274.0706    -6135.985    3066.4811    18955.897    20.671345 
    6600     1264.615   -6276.6042   -6135.5345    2346.7932    18964.302    20.712644 
    6610    1257.5652   -6275.5219   -6135.2386    2178.0006    18974.452    20.758548 
    6620    1224.7769   -6271.6989   -6135.0732    2044.0849    18986.196    20.823399 
    6630    1214.6164   -6270.4763    -6134.984    1448.9875    18999.388    20.899428 
    6640    1211.5619   -6270.0737   -6134.9221    878.15253    19013.612    20.989717 
    6650    1216.1926    -6270.559   -6134.8909    746.15456    19028.451    21.093657 
    6660    1209.2646    -6269.775   -6134.8797    1553.1857    19043.857    21.199835 
    6670    1228.3708   -6271.9542   -6134.9276    2098.6423    19060.339    21.302696 
    6680    1215.5031   -6270.6274   -6135.0362    2830.5097    19078.361    21.402394 
    6690    1215.6437   -6270.7989    -6135.192    2636.7353    19098.378    21.495866 
    6700    1221.5223   -6271.6394   -6135.3768    1560.0198    19120.221    21.576845 
    6710    1215.7478   -6271.2216   -6135.6031    757.79502    19143.144     21.64051 
    6720    1236.2979   -6273.7823   -6135.8714   -243.61159    19166.476    21.681063 
    6730    1224.0698   -6272.7621   -6136.2153   -846.67138    19189.471    21.710271 
    6740     1198.944   -6270.3771   -6136.6331   -898.61527    19211.678    21.757206 
    6750    1195.1953   -6270.4046   -6137.0788   -583.91004    19233.045    21.825896 
    6760    1188.2552   -6270.1047   -6137.5531   -217.42967    19253.763    21.903333 
    6770    1188.8839   -6270.6595   -6138.0377   -750.79053    19274.054    21.992707 
    6780    1219.6316    -6274.595   -6138.5433   -1239.8209    19293.564    22.079036 
    6790    1221.2451   -6275.3429   -6139.1112    -785.2386    19311.971    22.149786 
    6800    1212.6277   -6275.0405   -6139.7701   -445.91393     19329.56    22.220661 
    6810    1187.0085   -6272.8976    -6140.485   -937.56617    19346.551    22.306125 
    6820    1165.0906   -6271.1444   -6141.1768   -2108.9065    19362.568    22.401437 
    6830    1155.8117     -6270.75   -6141.8175   -2675.1335    19376.777    22.498934 
    6840    1121.6398   -6267.4777   -6142.3571   -1937.5841    19388.818    22.595129 
    6850    1152.7471   -6271.3786   -6142.7879   -2133.6989    19399.125    22.678974 
    6860    1163.3333   -6272.8843   -6143.1127   -3126.5194    19407.555    22.754445 
    6870    1176.7549   -6274.6324   -6143.3636   -3546.6041    19413.463    22.842121 
    6880    1188.5888   -6276.1766   -6143.5877   -3420.6094     19416.55    22.950324 
    6890    1173.0122   -6274.6652   -6143.8139   -2695.7451    19416.948    23.061467 
    6900    1150.2853   -6272.3115   -6143.9955   -1929.4766    19415.242    23.155987 
    6910    1159.2306    -6273.403   -6144.0891    -1973.346     19412.01    23.228326 
    6920    1167.0575    -6274.269    -6144.082   -2521.2579    19407.256     23.28168 
    6930    1168.5749    -6274.348   -6143.9917   -2584.2823    19400.649    23.325795 
    6940    1169.1669   -6274.2403    -6143.818   -2329.0323    19392.166    23.372982 
    6950    1168.6033   -6273.9066   -6143.5472   -2253.7755    19382.022    23.423581 
    6960    1152.9363   -6271.7668    -6143.155    -1807.854    19370.361    23.476176 
    6970    1148.3067   -6270.6672   -6142.5719    -1595.161    19357.526    23.537972 
    6980    1159.6364   -6271.1147   -6141.7555   -1761.0011    19343.696    23.616741 
    6990    1175.5728   -6271.8437   -6140.7068   -1613.4921    19328.823    23.693786 
    7000     1174.737   -6270.4985   -6139.4548   -793.04759    19313.082    23.745225 
    7010    1178.6805   -6269.5338   -6138.0502    425.38758    19297.117    23.771146 
    7020    1224.0586   -6273.1335   -6136.5879    863.26655    19281.792    23.797312 
    7030    1248.2052    -6274.458   -6135.2189    650.97097    19267.458     23.84556 
    7040    1248.1386   -6273.3242   -6134.0924    221.66059    19253.964     23.91777 
    7050    1238.7352   -6271.4014   -6133.2186   -315.16122    19240.951    24.010917 
    7060    1246.8819   -6271.6574   -6132.5659   -458.23465    19228.046    24.126421 
    7070    1241.9039   -6270.6337   -6132.0975   -423.73995    19215.117    24.237524 
    7080    1225.8605   -6268.5268   -6131.7803   -486.49554    19202.167    24.317976 
    7090    1227.0194   -6268.4377   -6131.5618   -675.43811    19189.149    24.375967 
    7100    1221.1612   -6267.6556   -6131.4332   -647.94566    19175.939     24.42809 
    7110    1213.0403   -6266.6799   -6131.3634   -372.76745    19162.594    24.481822 
    7120    1221.8777   -6267.6426   -6131.3403   -717.36524    19149.237    24.535975 
    7130    1230.8647   -6268.6719   -6131.3671   -709.55766    19135.677    24.590721 
    7140    1221.0897   -6267.6618   -6131.4474    331.36722    19121.984    24.646197 
    7150    1215.8133   -6267.1903   -6131.5645    1972.2667    19108.909    24.705822 
    7160    1207.6492   -6266.4019   -6131.6868    3521.5354    19097.629    24.775728 
    7170    1217.6079   -6267.6641   -6131.8381     4322.185    19089.206    24.849467 
    7180    1234.1492   -6269.7126   -6132.0414    4451.7746    19084.206    24.922303 
    7190    1237.8896   -6270.4118   -6132.3234    3710.2452    19082.618    24.987632 
    7200    1259.8152     -6273.26   -6132.7257    2658.7603     19083.84    25.026265 
    7210    1249.1568    -6272.608   -6133.2627    1673.6119    19087.055    25.045069 
    7220     1241.358   -6272.4007   -6133.9253    1094.5079    19091.492    25.062994 
    7230    1219.9381   -6270.7634   -6134.6774    1331.3912    19096.716    25.106829 
    7240    1222.3478   -6271.8472   -6135.4925    1310.8815    19102.811    25.193029 
    7250    1215.6751   -6271.9627   -6136.3523     1372.758    19109.792    25.304055 
    7260    1192.7646   -6270.2611   -6137.2064    971.39445    19117.652    25.407226 
    7270    1189.8523   -6270.7395   -6138.0097   -75.463229    19126.051    25.486567 
    7280    1185.1866   -6270.9492   -6138.7399   -538.01076     19134.29    25.547327 
    7290    1182.8729   -6271.3243    -6139.373   -637.56408    19142.005    25.590467 
    7300    1190.7746   -6272.7699   -6139.9372   -1054.9901     19149.07    25.604133 
    7310    1178.5992   -6271.8853   -6140.4108   -1696.1639    19155.195    25.597768 
    7320    1160.5574    -6270.241   -6140.7791   -2038.4696    19159.952    25.595198 
    7330    1160.8798   -6270.5381   -6141.0402   -1933.6879    19163.109     25.61536 
    7340    1153.7522   -6269.9017   -6141.1989   -2008.4215    19164.727     25.67425 
    7350    1151.0834   -6269.6656   -6141.2605   -2458.6531    19164.771    25.763667 
    7360    1165.7727   -6271.2539   -6141.2102   -2977.9638    19162.956    25.856978 
    7370    1204.3307   -6275.4618   -6141.1169   -3659.1662    19158.882    25.934733 
    7380    1168.7968   -6271.3834   -6141.0024   -2636.2541    19152.233    25.998603 
    7390     1156.751   -6269.8956   -6140.8583   -1525.9992    19143.673     26.04196 
    7400      1155.51   -6269.5317   -6140.6328    -833.9502    19134.076    26.075807 
    7410    1157.1191   -6269.4233   -6140.3449   -787.58224    19123.943    26.117545 
    7420    1157.1947   -6269.0712   -6139.9844   -1167.6213    19113.355    26.161069 
    7430    1185.6458   -6271.8383   -6139.5778   -1847.6838    19102.022    26.175733 
    7440    1208.3543    -6273.967   -6139.1733    -1433.468    19089.553    26.154186 
    7450    1230.0579   -6276.0433   -6138.8285   -556.70995    19076.213    26.139728 
    7460    1224.3668   -6275.1412   -6138.5612    696.39859    19062.687    26.170577 
    7470     1236.467   -6276.3174   -6138.3876    1481.1953    19049.823    26.250589 
    7480    1226.3076   -6275.0836   -6138.2872    2254.4196    19038.272    26.348935 
    7490    1214.9785   -6273.7816   -6138.2489    2187.4236    19028.527    26.441659 
    7500    1229.3219   -6275.3972   -6138.2645    1712.7963    19020.541    26.524147 
    7510    1218.4222   -6274.2486   -6138.3317    1082.0472    19013.942    26.593725 
    7520     1225.864   -6275.1854   -6138.4385    333.82695    19008.245    26.650878 
    7530    1239.9643   -6276.9131   -6138.5932   -329.25744    19002.881    26.695756 
    7540    1231.9557   -6276.2485    -6138.822   -240.34237    18997.374    26.733106 
    7550    1200.5348    -6272.991   -6139.0696    803.94497     18991.83     26.76257 
    7560    1197.2455   -6272.8701   -6139.3156    1144.2068    18986.898    26.783457 
    7570    1186.2274   -6271.8498   -6139.5244    977.65857    18982.846    26.808913 
    7580    1182.0277   -6271.5449    -6139.688    873.34164    18979.581    26.848061 
    7590    1189.1874   -6272.4683   -6139.8126    557.51433    18976.976    26.903906 
    7600    1174.8923   -6270.9463   -6139.8853    172.43024    18974.804    26.974159 
    7610    1208.1413   -6274.6985   -6139.9286   -425.31387    18972.773    27.056583 
    7620     1223.439    -6276.458   -6139.9815   -894.03346    18970.442    27.163121 
    7630    1184.9063   -6272.2347   -6140.0567   -552.41054    18967.516     27.26954 
    7640    1194.1063   -6273.3283   -6140.1239   -134.34573    18964.192    27.338246 
    7650    1195.0836   -6273.4674    -6140.154    645.92966    18960.826    27.375005 
    7660    1214.0583   -6275.6201   -6140.1901    715.15936    18957.922    27.408978 
    7670     1217.731   -6276.1025   -6140.2628    634.41572    18955.563    27.460129 
    7680    1223.0477   -6276.8028     -6140.37    732.02635    18953.705    27.511277 
    7690    1234.3572   -6278.2231   -6140.5287    1564.4234     18952.46    27.538492 
    7700    1226.5034   -6277.5667   -6140.7484    2327.7275     18952.39    27.558266 
    7710    1216.6657   -6276.7282   -6141.0073    2200.4464    18954.025    27.591614 
    7720    1231.5062   -6278.6738   -6141.2974    1553.3397     18957.26    27.629779 
    7730    1215.9204   -6277.2657   -6141.6279      1735.28    18961.704    27.672568 
    7740     1189.445   -6274.6688   -6141.9845    2387.1053    18967.459    27.723367 
    7750    1195.1804   -6275.6377   -6142.3135    2476.2531    18974.956     27.77578 
    7760    1203.1554   -6276.8555   -6142.6417    2034.7484     18984.25    27.824712 
    7770    1152.2385    -6271.473   -6142.9391    2330.5553    18995.114    27.869351 
    7780    1140.4893   -6270.3721   -6143.1488    1948.8217    19007.654     27.91557 
    7790     1162.221   -6272.8845    -6143.237    1215.4692     19021.61    27.968479 
    7800    1146.5972   -6271.1054   -6143.2007    542.77134    19036.464    28.018751 
    7810    1130.6745   -6269.1767   -6143.0482   -552.50156    19051.665     28.07131 
    7820    1108.4022    -6266.378   -6142.7341   -1095.5461    19066.465    28.125069 
    7830    1131.6475   -6268.4896   -6142.2527   -1335.5444    19080.402    28.182852 
    7840    1168.4029   -6271.9699   -6141.6328   -1677.1022    19093.255    28.250722 
    7850    1157.1314   -6270.0034   -6140.9237   -1504.5523    19104.843    28.321397 
    7860    1151.1685    -6268.584   -6140.1695   -1333.4162    19115.244    28.383497 
    7870    1134.1333   -6265.8681   -6139.3538   -1261.4292     19124.61     28.43922 
    7880    1182.3215   -6270.3974   -6138.5077   -2241.8529    19132.911     28.47123 
    7890    1220.9674   -6273.9095   -6137.7087   -2351.0563    19139.543    28.480356 
    7900    1206.8173   -6271.7126   -6137.0903   -1366.1209     19144.43    28.475511 
    7910    1197.6039   -6270.2338   -6136.6393   -760.13912    19148.252    28.480734 
    7920    1214.8079   -6271.8264   -6136.3128   -1088.1225    19151.426    28.513533 
    7930    1206.6815   -6270.6945   -6136.0874   -839.67154    19153.818    28.560984 
    7940    1229.7634   -6273.1332   -6135.9513   -503.58392    19155.562    28.611474 
    7950     1260.688   -6276.5379   -6135.9063   -729.42411    19156.881    28.664939 
    7960    1259.8573    -6276.529     -6135.99   -853.16528    19157.656    28.733611 
    7970    1249.4818   -6275.5685   -6136.1869   -1439.4806     19157.73    28.835442 
    7980      1242.93   -6275.1346   -6136.4839   -1570.9784     19156.74    28.959234 
    7990    1190.7807   -6269.6464    -6136.813   -1358.1575    19154.569    29.067786 
    8000    1173.1176   -6267.9721    -6137.109   -1601.4679    19151.319    29.142868 
    8010     1165.376   -6267.3242   -6137.3248     -1529.95    19146.869    29.198011 
    8020    1178.8166   -6268.9732   -6137.4745   -1598.0804    19141.237    29.255874 
    8030    1201.7458   -6271.6412   -6137.5846   -1308.3566    19134.412    29.329104 
    8040    1200.1884    -6271.565   -6137.6822   -735.90166    19126.618    29.407572 
    8050    1211.7137   -6272.9595    -6137.791   -1165.3829    19118.188    29.476228 
    8060    1216.6945   -6273.6529   -6137.9288   -1188.1463    19108.903    29.519974 
    8070    1193.9274   -6271.2841   -6138.0997   -121.55939    19098.784    29.536049 
    8080    1174.5414   -6269.2694   -6138.2476    564.67139     19088.56    29.534592 
    8090    1213.1611   -6273.7065   -6138.3766   -674.28491     19078.62    29.542383 
    8100    1231.4045   -6275.9036   -6138.5386   -1268.0309    19068.216    29.580316 
    8110    1224.9127   -6275.4088   -6138.7679   -719.31618    19056.925    29.645924 
    8120    1217.0122   -6274.8155    -6139.056   -99.077804    19045.086    29.735721 
    8130    1228.4115   -6276.4283   -6139.3971    46.682525    19033.119    29.834308 
    8140    1236.5887   -6277.7657   -6139.8223    126.09641    19021.173    29.926801 
    8150    1245.2585   -6279.2588   -6140.3483    405.41533    19009.349    30.006289 
    8160    1227.7062   -6277.9473   -6140.9948    497.81932     18997.81    30.086502 
    8170    1174.4598   -6272.7059   -6141.6931    473.85032    18986.626    30.162016 
    8180    1190.1661   -6275.1455   -6142.3807   -121.66428    18975.746    30.198998 
    8190    1184.9386   -6275.2309   -6143.0492   -99.452552    18964.819    30.204318 
    8200    1167.6209   -6273.9155   -6143.6657    377.90662    18953.835    30.212656 
    8210    1172.0712   -6274.9671   -6144.2208    412.75763    18943.083    30.241022 
    8220    1174.2615   -6275.6897   -6144.6991    347.02244    18932.636    30.298246 
    8230    1208.5018   -6279.9555   -6145.1453    174.52906    18922.426    30.369902 
    8240    1223.6322    -6282.106    -6145.608    666.15538    18912.382     30.42955 
    8250    1229.8697   -6283.3263   -6146.1324    1381.9058    18902.844    30.471656 
    8260    1222.7595   -6283.1173   -6146.7166    2131.8929    18894.341    30.518212 
    8270    1207.5942    -6282.061   -6147.3521    2456.4131    18887.391    30.587055 
    8280    1168.7084   -6278.3486   -6147.9774    2629.8401    18882.259    30.669765 
    8290    1146.9666   -6276.4709   -6148.5251    2671.2206    18879.076    30.744382 
    8300    1156.2176   -6277.9474   -6148.9696    2310.4619    18877.859    30.823011 
    8310     1159.934   -6278.7085   -6149.3161    1827.9391    18878.361    30.908967 
    8320    1168.7348   -6279.9587   -6149.5846    1499.6066    18880.243    30.962176 
    8330    1170.9454   -6280.4046   -6149.7839    1479.2777    18883.272    30.990067 
    8340    1162.2367   -6279.5617   -6149.9125    2136.2417    18887.465    31.041997 
    8350    1163.8419   -6279.7989   -6149.9706    2643.5749    18893.269    31.128653 
    8360    1180.5362   -6281.6516    -6149.961    2210.6219    18901.016    31.224057 
    8370    1177.0335   -6281.1926   -6149.8927    1653.8924    18910.459    31.306495 
    8380    1170.4564   -6280.3382    -6149.772    881.66962     18921.17    31.374251 
    8390     1150.246   -6277.8727    -6149.561     1003.198    18932.692     31.42739 
    8400    1171.4797   -6279.9162   -6149.2359     387.7791    18944.966    31.471637 
    8410     1189.467   -6281.4734   -6148.7866    139.88438    18957.641    31.515005 
    8420    1159.8751   -6277.6108    -6148.225    687.42075    18970.546     31.55224 
    8430     1178.944   -6279.0212   -6147.5083    432.00181    18983.999    31.585292 
    8440    1210.1346   -6281.5819   -6146.5896   -838.43634    18997.787    31.623988 
    8450    1207.7339   -6280.2357   -6145.5111   -1305.4934    19011.088    31.671811 
    8460    1209.3401   -6279.2217    -6144.318   -1335.8788    19023.507    31.725693 
    8470    1219.8991   -6279.1094   -6143.0278   -1139.9491    19034.997    31.783473 
[...]
   22890    1193.0161   -6276.0615   -6142.9787   -1422.6752    19060.358     123.8402 
   22900    1194.8864   -6276.6393   -6143.3479   -1128.8907    19053.705    123.91351 
   22910    1209.5773   -6278.5982    -6143.668   -632.68109    19046.217    124.00575 
   22920    1192.2948   -6276.9469   -6143.9446    659.25309    19038.343    124.10911 
   22930    1183.6239   -6276.2224   -6144.1874    1817.3247    19030.979    124.21072 
   22940    1165.3423   -6274.3585   -6144.3628    2858.6992    19025.034    124.26589 
   22950    1173.1775   -6275.3322   -6144.4625    1962.3768    19021.135     124.2618 
   22960    1184.3028   -6276.6129   -6144.5021    722.15591    19018.735    124.22663 
   22970    1189.8318   -6277.2369   -6144.5094   -188.55083     19016.91    124.19336 
   22980    1193.7851   -6277.6774   -6144.5089    23.774215    19015.038    124.14835 
   22990    1169.5484   -6274.9475   -6144.4826    1009.7333    19013.252    124.09281 
   23000    1168.8908   -6274.7856   -6144.3941    961.99324    19012.165    124.09197 
   23010    1194.8236   -6277.5517   -6144.2673    750.54961      19011.8    124.17456 
   23020    1192.6806   -6277.1696   -6144.1243    886.39984    19012.045    124.28903 
   23030    1200.0974   -6277.8603   -6143.9876    397.18544    19012.908    124.38288 
   23040    1183.9665   -6275.9245   -6143.8513    440.78681    19014.119    124.43793 
   23050    1194.0478   -6276.9051   -6143.7072   -147.71306    19015.604     124.4746 
   23060    1213.6346    -6278.944   -6143.5613   -401.12222    19017.006    124.53151 
   23070    1207.4473   -6278.1414   -6143.4488    188.36169    19018.162    124.61401 
   23080    1200.6108   -6277.2945   -6143.3646    557.22571    19019.437    124.69664 
   23090    1199.0063   -6277.0458   -6143.2949    71.633396     19021.07    124.77997 
   23100    1190.8752   -6276.0531   -6143.2091   -414.67735    19022.752    124.86194 
   23110    1192.5293   -6276.1127   -6143.0843   -330.99576    19024.159    124.93095 
   23120    1221.6539   -6279.2098   -6142.9324   -484.20954    19025.283    124.96405 
   23130    1216.5376   -6278.5091   -6142.8025   -255.67717    19026.072    124.97936 
   23140    1198.3405   -6276.3985   -6142.7218   -195.28047    19026.637    125.01048 
   23150    1175.5846   -6273.7735   -6142.6353    263.07565    19027.095    125.07754 
   23160    1189.9987   -6275.2756   -6142.5295     909.8808    19027.747    125.18472 
   23170    1193.8312   -6275.5894   -6142.4158    1846.5845    19029.113    125.32494 
   23180    1167.3277    -6272.492   -6142.2748    2076.0746     19031.82    125.44149 
   23190     1194.068    -6275.277    -6142.077    1184.5827    19035.994    125.51985 
   23200    1227.9428   -6278.8166   -6141.8378   -221.41107    19040.987    125.60791 
   23210    1230.8356   -6278.9367   -6141.6351   -832.69885    19045.813    125.72063 
   23220    1215.4036   -6277.0659   -6141.4858   -470.27687    19050.031    125.82022 
   23230    1227.7529   -6278.3418   -6141.3841   -687.65581    19053.812    125.90364 
   23240    1274.1715      -6283.5   -6141.3643   -1808.8223    19056.962    126.00741 
   23250    1247.3687   -6280.6397   -6141.4938   -1456.4123    19058.817    126.12766 
   23260    1214.1573   -6277.2278   -6141.7867   -423.44746    19059.596    126.23086 
   23270    1201.4824   -6276.2363   -6142.2092   -481.83735    19059.975    126.32193 
   23280    1185.7449   -6275.0512   -6142.7796   -458.38462    19060.013     126.4471 
   23290    1170.6903   -6274.1145   -6143.5222   -603.56136    19059.704    126.59978 
   23300    1148.8151   -6272.5775   -6144.4255    -1121.583    19058.928    126.74717 
   23310    1151.0428   -6273.8582   -6145.4576   -1297.5789    19057.341    126.88267 
   23320    1159.0392   -6275.8838   -6146.5912   -1467.6466    19054.797    127.00816 
   23330    1145.1493   -6275.4881    -6147.745    -1719.143    19051.169     127.1289 
   23340    1132.1054    -6275.113    -6148.825    -1189.518    19046.342    127.23406 
   23350    1143.8989   -6277.3833   -6149.7797   -229.08788    19040.699    127.31403 
   23360     1150.175   -6278.8969   -6150.5932    245.22992    19034.917    127.36955 
   23370    1144.4767   -6278.9545   -6151.2864   -281.04648    19029.304    127.38956 
   23380    1124.0241   -6277.2048   -6151.8182   -775.44778    19023.567    127.34987 
   23390    1151.0298   -6280.6006   -6152.2015   -1814.1129    19017.263    127.28591 
   23400    1161.0386   -6282.0037   -6152.4881   -2092.6726    19009.714    127.26168 
   23410    1141.8106   -6280.0498   -6152.6791   -1403.9128     19000.74    127.27427 
   23420     1148.291   -6280.8499   -6152.7563   -1112.7964    18990.776    127.29035 
   23430    1131.8082   -6278.9706   -6152.7157   -719.74288    18980.083    127.29821 
   23440    1107.7928    -6276.098   -6152.5221   -182.68274    18968.974    127.28157 
   23450    1120.8416   -6277.1801   -6152.1485    23.287818    18957.817    127.24935 
   23460    1132.8567   -6277.9529   -6151.5811   -174.67177    18946.773    127.25836 
   23470     1155.786   -6279.8024   -6150.8727   -627.13556    18935.671    127.36231 
   23480    1131.7795   -6276.2859   -6150.0342   -15.127982    18924.291    127.53244 
   23490    1151.8431     -6277.58   -6149.0902    85.970754    18912.975    127.71053 
   23500    1180.9214   -6279.7775   -6148.0439     156.8301    18901.816    127.84968 
   23510     1175.362    -6278.113   -6146.9996    837.72509    18890.919    127.93827 
   23520    1167.3247   -6276.2217   -6146.0049    1109.6917    18880.722    127.98011 
   23530    1175.0575    -6276.146   -6145.0666    1147.9659    18871.415    127.97339 
   23540     1173.403   -6275.0748   -6144.1799    1503.3549    18863.069    127.89659 
   23550    1220.8095   -6279.5661   -6143.3829    1042.4687    18855.826     127.7616 
   23560    1214.5333   -6278.1825   -6142.6995    1305.8999    18849.473    127.62445 
   23570    1216.4992   -6277.8578   -6142.1555    1150.0635    18844.116    127.52541 
   23580    1235.4831   -6279.5368   -6141.7168    612.95604    18839.627    127.46812 
   23590    1220.8241   -6277.5941   -6141.4093    1455.2238    18835.724    127.43405 
   23600     1172.158   -6271.9262   -6141.1702    2862.6923    18832.956    127.44707 
   23610    1145.5212   -6268.6957   -6140.9111    3917.1781    18832.301    127.52652 
   23620    1178.4926   -6272.0419   -6140.5793    3991.7717    18834.494    127.63919 
   23630    1207.8104   -6274.9478   -6140.2148    3129.9058    18839.571    127.78637 
   23640    1214.3165   -6275.3317   -6139.8728    2452.6775    18846.967    127.95286 
   23650    1239.7037   -6277.8803   -6139.5895    1825.2516    18856.146    128.09078 
   23660    1240.0101   -6277.7156   -6139.3906    1691.1243    18866.696      128.189 
   23670    1239.6878   -6277.5753   -6139.2862     1058.254    18878.431    128.27099 
   23680     1239.263   -6277.5129   -6139.2713     1042.276    18890.968     128.3553 
   23690    1230.4626   -6276.6037   -6139.3437    1148.7911    18904.247    128.40844 
   23700    1233.4563   -6277.0802   -6139.4863    993.28017    18918.346    128.38049 
   23710     1252.126   -6279.4026    -6139.726    515.63949    18933.131      128.265 
   23720    1227.2131   -6276.9772   -6140.0798      795.551    18948.328    128.09382 
   23730    1198.7804   -6274.2151   -6140.4894    666.61529     18964.05    127.96434 
   23740    1199.6922   -6274.7345    -6140.907   -455.99351    18980.165     127.9588 
   23750    1200.8088   -6275.2756   -6141.3235   -1641.2535    18995.882    128.05397 
   23760    1186.6284   -6274.1148   -6141.7447   -1651.8844    19010.407    128.22082 
   23770    1185.8338   -6274.4437   -6142.1621   -1016.1129    19023.703    128.43858 
   23780    1221.7107   -6278.8877    -6142.604   -914.41963    19036.164    128.66093 
   23790     1207.185    -6277.767   -6143.1037   -763.06097    19047.916    128.83316 
   23800    1194.3997   -6276.8816   -6143.6445   -1640.8281    19058.979    128.92995 
   23810    1195.4613   -6277.5595    -6144.204    -2497.186    19068.784    128.99603 
   23820    1183.3485   -6276.7893    -6144.785   -2858.0047    19076.695    129.05557 
   23830    1170.8114    -6275.978   -6145.3722   -2841.7021    19082.429    129.09119 
   23840    1165.7596   -6275.9736   -6145.9314   -2241.6992    19086.036    129.12545 
   23850      1156.99   -6275.5241   -6146.4602   -1261.2955    19087.959    129.18801 
   23860    1129.7719   -6272.9345   -6146.9067   -724.42393    19088.893    129.24715 
   23870    1150.4223   -6275.5905   -6147.2591   -1473.7585    19089.176     129.2588 
   23880    1162.2485   -6277.1805   -6147.5299    -1412.716    19088.413    129.22919 
   23890    1159.0656   -6277.0453   -6147.7498   -990.97522    19086.601    129.23429 
   23900     1174.041   -6278.8933   -6147.9273   -1305.1939    19083.987    129.30582 
   23910    1168.3768   -6278.4052    -6148.071   -1719.3094    19080.381    129.40446 
   23920    1145.7686   -6275.9702   -6148.1579   -1695.1402    19075.494    129.49821 
   23930    1119.0553   -6272.9619   -6148.1296   -1297.0122    19069.356    129.57813 
   23940    1103.4745   -6270.9987   -6147.9044    -1147.077    19062.232    129.64371 
   23950    1138.5137   -6274.4315   -6147.4285   -1723.1435    19054.181    129.66916 
   23960    1145.9899   -6274.5014   -6146.6645   -931.74495    19044.949    129.66112 
   23970    1175.7517   -6276.7933   -6145.6364   -673.33404    19034.955    129.66235 
   23980    1197.0462   -6277.9075   -6144.3752   -664.06777    19024.435    129.67754 
   23990    1194.0372   -6276.1979   -6143.0012    63.975255    19013.453    129.67555 
   24000    1204.8672   -6276.0062   -6141.6015    702.94627    19002.497    129.62952 
   24010    1247.4568   -6279.4222   -6140.2665    719.33953    18992.024    129.53841 
   24020    1246.5137   -6278.1592   -6139.1087    970.18414    18982.105    129.43054 
   24030     1255.781   -6278.2721   -6138.1878    1507.1369    18972.946    129.32056 
   24040    1262.8074   -6278.3637   -6137.4956    1452.5365    18964.866    129.23227 
   24050    1242.9841   -6275.6741   -6137.0174    1728.1837    18957.898    129.22025 
   24060    1214.6926   -6272.1856   -6136.6848    2507.0519    18952.253    129.28646 
   24070    1208.1705   -6271.1955   -6136.4223    3078.0893    18948.485    129.38181 
   24080    1215.2526   -6271.7663    -6136.203    2873.8644    18946.974    129.48476 
   24090    1230.7466   -6273.3288   -6136.0372    2077.6861     18947.58    129.61149 
   24100    1264.8153   -6277.0381    -6135.946    578.79187    18949.704    129.76063 
   24110    1266.1586   -6277.2327   -6135.9908   -19.586617    18952.331    129.92831 
   24120    1243.5477   -6274.8878   -6136.1682    672.24492    18955.058    130.11739 
   24130    1250.8295   -6276.0168   -6136.4849    1227.2932    18958.288    130.29815 
   24140    1201.8074   -6270.9303   -6136.8669    2252.7248    18962.527     130.4196 
   24150    1228.0047   -6274.2923   -6137.3065    2073.4832    18968.398    130.46442 
   24160     1228.317    -6274.816   -6137.7954    2152.0223    18975.906    130.46127 
   24170    1199.7812    -6272.172   -6138.3346     2346.615     18985.11    130.46169 
   24180    1208.3011   -6273.6845   -6138.8967    1486.7216    18996.075    130.49728 
   24190    1204.8097   -6273.8703    -6139.472    437.81758    19008.222    130.56475 
   24200    1173.7133   -6270.9654   -6140.0359    584.40445    19020.891    130.61949 
   24210    1183.1954   -6272.5436   -6140.5564    398.90011    19034.067    130.61869 
   24220     1193.465   -6274.1761   -6141.0433    561.54025    19047.664    130.55546 
   24230    1200.4191   -6275.4336   -6141.5251    958.79341    19061.805    130.49935 
   24240    1221.7296   -6278.3153   -6142.0295    614.45918    19076.741    130.51685 
   24250    1184.9771   -6274.7507   -6142.5648    738.74406    19092.334    130.58292 
   24260    1137.2341   -6269.9063   -6143.0462    65.521154    19108.552    130.66832 
   24270    1154.2902   -6272.1802   -6143.4174   -1092.4417    19124.912    130.77637 
   24280    1184.3757   -6275.8183   -6143.6994   -1237.8244    19140.642    130.89065 
   24290    1179.7046   -6275.5422   -6143.9443   -357.33279    19155.633    130.99551 
   24300    1185.2597   -6276.3741   -6144.1566   -461.79865     19170.39    131.09894 
   24310    1223.9771   -6280.8962   -6144.3597    -1399.077    19184.851     131.1973 
   24320    1207.5938     -6279.31   -6144.6011   -1736.0028    19198.378    131.28824 
   24330     1160.647   -6274.3355   -6144.8636   -1402.9396     19210.71    131.35184 
   24340    1161.3381   -6274.6375   -6145.0884   -1518.1866    19222.007    131.38217 
   24350    1181.1446   -6277.0176   -6145.2592   -1698.3876    19232.196    131.44533 
   24360    1169.2718   -6275.8485   -6145.4144   -975.44331    19241.197    131.57034 
   24370    1151.6062   -6273.9848   -6145.5214   -659.41171    19249.468    131.70256 
   24380    1161.6543    -6275.121   -6145.5367   -1298.6221    19257.207    131.80174 
   24390    1174.8228    -6276.493   -6145.4397   -1988.3246    19263.983    131.86093 
   24400     1189.393    -6277.924   -6145.2454   -2693.9066    19269.252    131.90689 
   24410    1184.2222   -6277.0772   -6144.9754    -3034.753    19272.474    131.96318 
   24420    1169.3841   -6275.0388   -6144.5923    -2835.933    19273.395    132.01151 
   24430    1188.5254   -6276.6591   -6144.0773   -3027.8459     19272.08    132.05563 
   24440     1196.105   -6276.8549   -6143.4276   -2896.0148    19268.435    132.08363 
   24450    1179.2632   -6274.2336    -6142.685   -1549.9832     19262.59    132.05915 
   24460    1159.6933   -6271.1812   -6141.8156    280.33107     19255.56     132.0019 
   24470    1176.6967   -6272.0487   -6140.7864    849.45505    19248.622    131.94997 
   24480    1214.3968   -6275.1102   -6139.6424    1060.9853    19242.318    131.94907 
   24490    1235.0136   -6276.2636    -6138.496    547.78776    19236.764    132.04617 
   24500    1235.8765   -6275.3153   -6137.4514    167.16416    19231.641     132.2199 
   24510    1234.8018    -6274.298    -6136.554   -143.97435    19226.641    132.40526 
   24520    1227.4138   -6272.7059    -6135.786   -683.26098    19221.493    132.54106 
   24530    1237.6421   -6273.1976   -6135.1367   -1084.6501    19215.802    132.62203 
   24540    1249.6475   -6274.0136   -6134.6135   -1130.4239    19209.259    132.68471 
   24550    1254.3401    -6274.138   -6134.2145   -693.64038    19201.853    132.71847 
   24560    1263.4192   -6274.8948   -6133.9585    -62.81707    19193.895    132.72077 
   24570    1232.0054   -6271.2609   -6133.8289    1140.4056    19185.906    132.74278 
   24580    1222.6771   -6270.1812   -6133.7898    2022.3155    19178.729    132.80801 
   24590    1233.6764   -6271.4231   -6133.8046    2213.0401    19173.038    132.89641 
   24600    1248.4466   -6273.1682   -6133.9021    1961.2272    19169.017    132.96567 
   24610    1246.5433   -6273.1724   -6134.1186    2075.7403    19166.508    132.98632 
   24620    1211.0861   -6269.5279   -6134.4294    2878.9163     19165.65    132.98843 
   24630    1213.9365   -6270.2046   -6134.7881    2468.3181    19166.928    133.04917 
   24640    1224.6858   -6271.8058   -6135.1902    1292.1689    19170.063    133.21894 
   24650    1199.3025   -6269.4289   -6135.6449    929.28283    19174.287    133.47657 
   24660    1177.5015   -6267.4589   -6136.1068    819.89877    19179.281     133.7438 
   24670     1195.514   -6269.9121   -6136.5508   -161.59313    19184.878     133.9562 
   24680     1201.773   -6271.0564   -6136.9968   -831.79601     19190.44    134.11465 
   24690    1169.5278    -6267.915   -6137.4525   -509.76819    19195.487    134.26396 
   24700    1173.8769   -6268.8129   -6137.8652   -506.24775    19200.174    134.41377 
   24710    1215.9358   -6273.9021   -6138.2626   -865.56916    19204.493    134.56426 
   24720    1242.7484   -6277.3606   -6138.7301   -500.45896    19208.246    134.73371 
   24730     1213.421   -6274.6601   -6139.3012    22.228475     19211.66    134.93867 
   24740    1193.0385   -6273.0168   -6139.9316  -0.70581101    19215.095    135.14947 
   24750    1183.6169   -6272.6079   -6140.5737   -647.70434    19218.522    135.31287 
   24760    1181.6463   -6273.0237   -6141.2093   -1126.8834    19221.506    135.43785 
   24770    1187.6491   -6274.3272   -6141.8431   -1249.7987    19223.659    135.57316 
   24780    1165.1628   -6272.4418   -6142.4661   -254.23748    19224.952    135.73927 
   24790    1173.7147   -6273.9837   -6143.0541    239.14457    19226.034    135.91309 
   24800    1191.0571   -6276.4879   -6143.6237   -111.01404    19227.266    136.07953 
   24810    1181.1101   -6275.9468   -6144.1921   -502.95281    19228.438    136.23299 
   24820    1182.3631   -6276.6545   -6144.7601   -1079.8805    19229.214    136.35047 
   24830    1170.1352   -6275.8479   -6145.3175   -1158.8964     19229.21    136.44682 
   24840    1164.2609   -6275.7092   -6145.8342   -1622.0842    19228.316    136.53536 
   24850    1178.0654   -6277.7346   -6146.3196   -2994.9181    19226.086    136.60795 
   24860    1182.6598    -6278.728   -6146.8005   -3322.4452    19221.564    136.67217 
   24870    1191.6161   -6280.2263   -6147.2998   -2527.6331    19214.465    136.75536 
   24880    1186.9699   -6280.2374   -6147.8292   -1751.6833    19205.287    136.82168 
   24890    1195.6212   -6281.7745   -6148.4012   -1718.0879    19194.551    136.83893 
   24900    1187.6015   -6281.5115   -6149.0328   -1830.3677    19182.319    136.80768 
   24910      1152.19   -6278.2212   -6149.6926   -1485.6093    19168.522     136.7186 
   24920    1143.0617   -6277.8614   -6150.3511   -1356.9662    19153.337    136.58653 
   24930    1141.3272   -6278.2964   -6150.9797   -958.00508    19136.907     136.4565 
   24940    1152.0372    -6280.118   -6151.6065   -337.48369    19119.512    136.33056 
   24950    1129.1195   -6278.1424   -6152.1874    268.56184    19101.604    136.22057 
   24960    1157.4328   -6281.8707   -6152.7574   -458.12103     19083.52    136.14547 
   24970    1168.1796   -6283.6601   -6153.3479   -371.13914    19064.882     136.0948 
   24980    1134.0809   -6280.4323   -6153.9238     1169.644    19045.801    136.03678 
   24990     1152.809   -6283.0539   -6154.4563    1897.9441    19027.271    135.94812 
   25000    1181.1598   -6286.7443   -6154.9842    2122.4505    19009.873    135.84455 
Loop time of 16660.9 on 16 procs for 20000 steps with 864 atoms

Performance: 0.104 ns/day, 231.401 hours/ns, 1.200 timesteps/s
95.9% CPU use with 16 MPI tasks x 1 OpenMP threads

MPI task timing breakdown:
Section |  min time  |  avg time  |  max time  |%varavg| %total
---------------------------------------------------------------
Pair    | 12976      | 14923      | 16369      | 752.9 | 89.57
Bond    | 0.0016146  | 0.00539    | 0.012779   |   4.9 |  0.00
Neigh   | 0.2774     | 0.2993     | 0.31393    |   1.9 |  0.00
Comm    | 198.28     | 1533.4     | 3217.7     |2182.7 |  9.20
Output  | 1.2878     | 1.3196     | 1.7862     |  10.5 |  0.01
Modify  | 53.638     | 203.05     | 465.47     |1015.1 |  1.22
Other   |            | 0.1084     |            |       |  0.00

Nlocal:        54.0000 ave          58 max          48 min
Histogram: 2 0 0 0 4 0 2 2 2 4
Nghost:        523.000 ave         551 max         489 min
Histogram: 1 0 3 1 1 3 2 2 2 1
Neighs:         0.00000 ave           0 max           0 min
Histogram: 16 0 0 0 0 0 0 0 0 0
FullNghs:      2418.88 ave        2702 max        1939 min
Histogram: 1 1 0 0 3 1 2 2 5 1

Total # of neighbors = 38702
Ave neighs/atom = 44.793981
Ave special neighs/atom = 0.0000000
Neighbor list builds = 2000
Dangerous builds = 2000
unfix   3
                
Total wall time: 5:45:52
