LAMMPS (2 Aug 2023)
OMP_NUM_THREADS environment is not set. Defaulting to 1 thread. (src/comm.cpp:98)
  using 1 OpenMP thread(s) per MPI task
Reading restart file ...
  restart file = 2 Aug 2023, LAMMPS = 2 Aug 2023
  restoring atom style full from restart
  orthogonal box = (-0.33623157 -0.341427 -13.879934) to (25.471202 25.476397 89.284846)
  1 by 1 by 1 MPI processor grid
  pair style chgnet/gpu stores no restart info
  1536 atoms
Finding 1-2 1-3 1-4 neighbors ...
  special bond factors lj:    0        0        0       
  special bond factors coul:  0        0        0       
     0 = max # of 1-2 neighbors
     0 = max # of 1-3 neighbors
     0 = max # of 1-4 neighbors
     1 = max # of special neighbors
  special bonds CPU = 0.002 seconds
  read_restart CPU = 0.011 seconds
Resetting peratom fix info from restart file:
  fix style: STORE/ATOM, fix ID: msd_COMPUTE_STORE
All restart file peratom fix info was re-assigned
Neighbor list info ...
  update: every = 1 steps, delay = 10 steps, check = yes
  max neighbors/atom: 2000, page size: 100000
  master list distance cutoff = 6.3
  ghost atom cutoff = 6.3
  binsize = 3.15, bins = 9 9 33
  1 neighbor lists, perpetual/occasional/extra = 1 0 0
  (1) pair chgnet/gpu, perpetual
      attributes: full, newton on
      pair build: full/bin
      stencil: full/bin/3d
      bin: standard
Setting up Verlet run ...
  Unit style    : metal
  Current step  : 20000
  Time step     : 0.001
Per MPI rank memory allocation (min/avg/max) = 6.512 | 6.512 | 6.512 Mbytes
   Step          Temp          PotEng         TotEng         Press          Volume        c_msd[4]   
     20000   1480.9672     -5265.4827     -4971.6376      1074.1703      68737.846      80.319031    
     20010   1474.548      -5264.1713     -4971.5998      1165.4836      68739.028      80.428916    
     20020   1471.0216     -5263.3586     -4971.4869      1238.8811      68742.748      80.559208    
     20030   1460.1931     -5260.9874     -4971.2642      1216.838       68749.016      80.706525    
     20040   1460.9393     -5260.7834     -4970.9122      1036.8372      68757.407      80.864122    
     20050   1471.3035     -5262.3442     -4970.4166      751.96128      68767.188      81.024374    
     20060   1474.974      -5262.4515     -4969.7956      465.46879      68777.596      81.181694    
     20070   1485.8687     -5263.8838     -4969.0661      137.61793      68787.914      81.332152    
     20080   1495.8217     -5265.0396     -4968.2471     -105.73281      68797.536      81.473394    
     20090   1501.0771     -5265.212      -4967.3768     -171.20682      68806.313      81.606895    
     20100   1497.2271     -5263.5461     -4966.4748     -9.2201062      68814.508      81.737191    
     20110   1481.0017     -5259.3834     -4965.5315      309.00483      68822.504      81.868993    
     20120   1469.7612     -5256.1179     -4964.4962      589.81283      68830.622      82.005353    
     20130   1477.6588     -5256.5186     -4963.3299      656.27442      68838.926      82.147455    
     20140   1498.6294     -5259.3907     -4962.0412      657.47545      68847.203      82.294831    
     20150   1514.961      -5261.2969     -4960.7069      659.53195      68855.395      82.446854    
     20160   1523.6682     -5261.7334     -4959.4158      657.55967      68863.795      82.603764    
     20170   1534.6125     -5262.7178     -4958.2287      602.74728      68872.74       82.767155    
     20180   1540.8265     -5262.9221     -4957.2001      535.65433      68882.353      82.939562    
     20190   1547.9098     -5263.4989     -4956.3714      519.76917      68892.624      83.121965    
     20200   1551.6736     -5263.6469     -4955.7726      573.90506      68903.479      83.312317    
     20210   1535.9435     -5260.1547     -4955.4015      787.53181      68914.979      83.507299    
     20220   1527.4159     -5258.2811     -4955.2199      982.44306      68927.388      83.704086    
     20230   1535.2728     -5259.8152     -4955.1951      1084.0608      68940.935      83.902429    
     20240   1544.5887     -5261.8231     -4955.3546      1193.893       68955.792      84.104206    
     20250   1534.0143     -5260.1019     -4955.7315      1460.2492      68972.229      84.312346    
     20260   1512.0011     -5256.293      -4956.2903      1785.0496      68990.746      84.530963    
     20270   1500.1008     -5254.6267     -4956.9852      1937.6377      69011.865      84.763873    
     20280   1509.9304     -5257.3876     -4957.7958      1796.1519      69035.875      85.014484    
     20290   1529.2636     -5262.2194     -4958.7916      1518.1403      69062.604      85.283828    
     20300   1531.0948     -5263.8545     -4960.0634      1380.4871      69091.748      85.571317    
     20310   1503.8597     -5260.032      -4961.6447      1516.5135      69123.331      85.877364    
     20320   1466.6942     -5254.444      -4963.4308      1687.6937      69157.703      86.202599    
     20330   1463.4547     -5255.6744     -4965.3041      1577.6991      69195.087      86.544956    
     20340   1478.8599     -5260.6578     -4967.2308      1301.0637      69235.214      86.902018    
     20350   1478.4049     -5262.4841     -4969.1474      1161.2125      69277.525      87.272616    
     20360   1475.7164     -5263.7596     -4970.9564      1037.7327      69321.619      87.654943    
     20370   1474.6752     -5265.1362     -4972.5395      907.75266      69367.174      88.046695    
     20380   1484.3441     -5268.3607     -4973.8456      729.73613      69413.925      88.447339    
     20390   1481.942      -5268.9078     -4974.8693      609.61496      69461.73       88.858856    
     20400   1463.834      -5266.0686     -4975.623       641.5858       69510.646      89.284303    
     20410   1455.2583     -5264.8748     -4976.1307      617.2594       69560.941      89.726664    
     20420   1452.8268     -5264.7052     -4976.4436      519.28375      69612.787      90.186629    
     20430   1450.182      -5264.3599     -4976.623       392.66705      69666.304      90.662878    
     20440   1448.8332     -5264.1588     -4976.6896      282.238        69721.284      91.150596    
     20450   1441.927      -5262.7592     -4976.6602      301.72744      69777.257      91.643367    
     20460   1432.2844     -5260.7113     -4976.5256      377.78116      69833.832      92.137156    
     20470   1433.8658     -5260.7728     -4976.2733      426.1129       69890.735      92.631079    
     20480   1449.9111     -5263.5894     -4975.9062      361.87625      69947.662      93.124859    
     20490   1456.6671     -5264.4954     -4975.4717      435.17014      70004.355      93.617286    
     20500   1446.5182     -5262.0095     -4974.9996      689.71772      70060.987      94.110273    
     20510   1444.1926     -5261.0193     -4974.4708      862.309        70118.018      94.607393    
     20520   1457.7936     -5263.1147     -4973.8676      902.69785      70175.68       95.109244    
     20530   1463.4301     -5263.5916     -4973.2261      930.14739      70233.946      95.614298    
     20540   1450.4102     -5260.3374     -4972.5553      1043.1628      70292.808      96.121703    
     20550   1440.2476     -5257.6007     -4971.835       1100.5436      70352.341      96.630102    
     20560   1460.8933     -5260.8944     -4971.0323      813.97374      70412.516      97.13607     
     20570   1487.6854     -5265.3735     -4970.1954      464.93474      70473.052      97.638336    
     20580   1489.975      -5265.0458     -4969.4134      379.31845      70533.776      98.141419    
     20590   1477.7509     -5261.9315     -4968.7246      523.59957      70594.771      98.651245    
     20600   1480.9977     -5261.9498     -4968.0987      606.37748      70656.102      99.170658    
     20610   1503.5618     -5265.858      -4967.5298      501.24017      70717.648      99.698713    
     20620   1517.5102     -5268.1769     -4967.0811      408.32025      70779.088      100.233      
     20630   1512.5716     -5266.9299     -4966.8141      429.92548      70840.05       100.77095    
     20640   1499.2173     -5264.1925     -4966.7263      458.68879      70900.333      101.31074    
     20650   1478.105      -5260.0551     -4966.7779      521.29985      70959.98       101.8519     
     20660   1456.5567     -5255.8942     -4966.8925      525.0491       71019.218      102.39479    
     20670   1443.4385     -5253.4043     -4967.0054      459.65117      71078.155      102.93907    
     20680   1436.1665     -5252.0156     -4967.0596      319.31892      71136.706      103.48506    
     20690   1441.8278     -5253.1165     -4967.0372      88.064441      71194.617      104.03207    
     20700   1448.2565     -5254.2865     -4966.9317     -75.058959      71251.302      104.57559    
     20710   1442.3421     -5252.9539     -4966.7725     -118.73436      71306.117      105.10976    
     20720   1423.9692     -5249.0808     -4966.5449      68.379058      71358.801      105.63196    
     20730   1406.9026     -5245.3495     -4966.1999      272.34417      71409.702      106.14526    
     20740   1398.5374     -5243.161      -4965.6712      299.8921       71459.427      106.65625    
     20750   1403.6133     -5243.4082     -4964.9112      290.41274      71508.463      107.16986    
     20760   1413.7895     -5244.4149     -4963.8988      205.94288      71557.155      107.68757    
     20770   1431.084      -5246.606      -4962.6584      12.891284      71605.585      108.20753    
     20780   1463.3954     -5251.6073     -4961.2487     -237.5294       71653.513      108.72662    
     20790   1483.1019     -5254.0573     -4959.7886     -340.58948      71700.309      109.24058    
     20800   1470.6957     -5250.2208     -4958.4137     -163.2691       71745.309      109.7441     
     20810   1449.0551     -5244.6639     -4957.1507      139.97406      71788.341      110.23303    
     20820   1445.4975     -5242.7692     -4955.9618      304.39462      71829.722      110.70807    
     20830   1449.8857     -5242.5        -4954.8219      276.90893      71869.802      111.17242    
     20840   1459.2252     -5243.2888     -4953.7576      158.30293      71908.778      111.62766    
     20850   1477.0365     -5245.8662     -4952.801       57.100791      71946.7        112.07295    
     20860   1491.7838     -5248.0049     -4952.0136     -16.425928      71983.383      112.5049     
     20870   1490.5525     -5247.1794     -4951.4325      62.379438      72018.671      112.92177    
     20880   1488.3022     -5246.361      -4951.0605      156.75603      72052.725      113.3246     
     20890   1490.7523     -5246.6598     -4950.8732      234.29634      72085.884      113.71658    
     20900   1483.1264     -5245.1257     -4950.8522      381.29393      72118.561      114.10302    
     20910   1470.9056     -5242.8073     -4950.9585      515.36071      72151.335      114.48966    
     20920   1480.4083     -5244.9045     -4951.1703      448.11733      72184.772      114.88186    
     20930   1495.6246     -5248.2437     -4951.4903      201.06995      72218.913      115.2832     
     20940   1504.5989     -5250.5061     -4951.9721     -75.420572      72253.486      115.6947     
     20950   1503.6468     -5250.9745     -4952.6294     -239.63747      72288.229      116.11527    
     20960   1502.126      -5251.5033     -4953.46       -342.20389      72322.877      116.54252    
     20970   1493.3764     -5250.7394     -4954.4321     -313.57732      72356.947      116.97198    
     20980   1465.8781     -5246.3262     -4955.475      -140.51249      72389.912      117.39853    
     20990   1448.6999     -5243.9227     -4956.4799     -49.03681       72421.514      117.8188     
     21000   1462.3527     -5247.5673     -4957.4155     -252.42537      72451.604      118.23026    
     21010   1478.249      -5251.6198     -4958.314      -471.6607       72480.029      118.63044    
     21020   1476.9659     -5252.2705     -4959.2193     -591.47502      72506.777      119.01756    
     21030   1462.734      -5250.334      -4960.1066     -658.6398       72532.063      119.39246    
     21040   1440.12       -5246.6598     -4960.9194     -602.22671      72556.307      119.75738    
     21050   1417.9375     -5242.9395     -4961.6003     -562.33182      72580.065      120.11444    
     21060   1398.6582     -5239.6179     -4962.1041     -457.97818      72603.786      120.46377    
     21070   1387.3388     -5237.6792     -4962.4113     -330.94202      72627.816      120.80531    
     21080   1392.8852     -5238.895      -4962.5266     -345.26807      72652.28       121.14023    
     21090   1414.1298     -5243.083      -4962.4994     -545.70717      72676.949      121.46944    
     21100   1423.9564     -5244.9272     -4962.3939     -589.80108      72701.276      121.7919     
     21110   1415.6625     -5243.1438     -4962.2561     -428.60426      72724.843      122.106      
     21120   1403.7419     -5240.5994     -4962.0769     -244.25585      72747.777      122.41184    
     21130   1396.2409     -5238.8577     -4961.8235     -63.94956       72770.599      122.71186    
     21140   1392.2012     -5237.7034     -4961.4707      43.035042      72793.92       123.01159    
     21150   1406.766      -5240.1313     -4961.0088     -52.185774      72818.121      123.31708    
     21160   1440.3918     -5246.2767     -4960.4824     -247.07371      72842.991      123.62937    
     21170   1462.7065     -5250.2069     -4959.985      -374.65331      72867.935      123.94481    
     21180   1461.0679     -5249.499      -4959.6022     -265.57869      72892.412      124.2584     
     21190   1446.403      -5246.3229     -4959.3358     -9.686695       72916.404      124.56889    
     21200   1434.588      -5243.7942     -4959.1514      173.89678      72940.394      124.88081    
     21210   1431.2671     -5242.9819     -4958.998       258.3252       72964.973      125.20118    
     21220   1428.72       -5242.3429     -4958.8644      264.4458       72990.577      125.53508    
     21230   1421.5549     -5240.7883     -4958.7315      252.05044      73017.537      125.88573    
     21240   1417.7516     -5239.8867     -4958.5845      182.55394      73046.03       126.25379    
     21250   1417.3146     -5239.6212     -4958.4057      82.703937      73075.975      126.63676    
     21260   1423.8221     -5240.6942     -4958.1875      5.1846343      73107.144      127.03082    
     21270   1434.755      -5242.6245     -4957.9486     -133.6201       73139.323      127.43277    
     21280   1441.738      -5243.7872     -4957.7258     -175.19757      73172.138      127.83884    
     21290   1440.9583     -5243.4507     -4957.5439     -98.019641      73205.231      128.24671    
     21300   1433.767      -5241.8903     -4957.4103     -5.864705       73238.615      128.65762    
     21310   1425.5108     -5240.1464     -4957.3046      53.62785       73272.389      129.07284    
     21320   1421.6451     -5239.2744     -4957.1997     -16.13724       73306.576      129.49304    
     21330   1426.2335     -5240.0632     -4957.0781     -174.69099      73341.075      129.91851    
     21340   1437.6164     -5242.2023     -4956.9586     -385.38071      73375.621      130.34797    
     21350   1441.9357     -5242.9775     -4956.8768     -572.01502      73409.828      130.77866    
     21360   1439.1023     -5242.3986     -4956.8601     -715.05265      73443.404      131.20735    
     21370   1435.0822     -5241.6694     -4956.9286     -794.65011      73476.26       131.6323     
     21380   1426.6622     -5240.1522     -4957.082      -908.84504      73508.496      132.05483    
     21390   1414.3869     -5237.9363     -4957.3017     -991.2364       73540.179      132.4759     
     21400   1406.6599     -5236.6622     -4957.5608     -1104.651       73571.306      132.8937     
     21410   1407.1339     -5237.0233     -4957.8278     -1247.5498      73601.699      133.30505    
     21420   1409.9266     -5237.8531     -4958.1035     -1405.8166      73630.945      133.70654    
     21430   1406.3537     -5237.436      -4958.3953     -1451.0349      73658.476      134.09485    
     21440   1396.4086     -5235.7617     -4958.6943     -1325.2125      73683.877      134.46785    
     21450   1389.7129     -5234.7111     -4958.9721     -1144.675       73707.058      134.82503    
     21460   1382.2178     -5233.4469     -4959.1951     -884.00693      73728.193      135.16709    
     21470   1377.2695     -5232.6024     -4959.3324     -712.8542       73747.608      135.49424    
     21480   1395.4504     -5236.2561     -4959.3788     -711.35043      73765.584      135.80631    
     21490   1423.47       -5241.8188     -4959.382      -804.93323      73782.331      136.10619    
     21500   1436.8906     -5244.5237     -4959.424      -819.81982      73798.014      136.39947    
     21510   1439.4311     -5245.1726     -4959.5689     -727.32865      73812.804      136.6895     
     21520   1428.0334     -5243.1724     -4959.8301     -569.899        73826.937      136.97623    
     21530   1408.8844     -5239.7205     -4960.1776     -428.83645      73840.795      137.25886    
     21540   1402.7317     -5238.8745     -4960.5524     -528.48096      73854.691      137.53595    
     21550   1412.7459     -5241.2512     -4960.9422     -851.86098      73868.437      137.80468    
     21560   1422.8857     -5243.7015     -4961.3806     -1239.2773      73881.498      138.06324    
     21570   1416.9957     -5243.0508     -4961.8985     -1509.5362      73893.389      138.31117    
     21580   1399.3967     -5240.1412     -4962.4809     -1636.106       73903.832      138.5473     
     21590   1374.5872     -5235.8005     -4963.0627     -1549.6672      73912.769      138.76997    
     21600   1354.8222     -5232.379      -4963.5629     -1441.4367      73920.367      138.97869    
     21610   1351.8127     -5232.1461     -4963.9271     -1405.8903      73926.893      139.17567    
     21620   1360.3669     -5234.0563     -4964.14       -1402.7919      73932.645      139.36545    
     21630   1373.5962     -5236.7622     -4964.2211     -1365.7459      73937.943      139.55264    
     21640   1386.1652     -5239.2448     -4964.2097     -1277.8887      73943.121      139.74017    
     21650   1393.135      -5240.5565     -4964.1386     -1060.7005      73948.545      139.9304     
     21660   1390.2804     -5239.8761     -4964.0245     -805.38018      73954.675      140.12829    
     21670   1401.8117     -5242.0184     -4963.8789     -720.40164      73961.811      140.33701    
     21680   1422.3672     -5245.9493     -4963.7313     -711.7283       73969.645      140.55255    
     21690   1424.3176     -5246.2449     -4963.6399     -657.4486       73977.654      140.76803    
     21700   1418.5711     -5245.0946     -4963.6298     -579.90273      73985.628      140.97939    
     21710   1422.4472     -5245.9398     -4963.7059     -553.91354      73993.505      141.1836     
     21720   1431.5941     -5247.9349     -4963.8862     -602.65704      74001.175      141.37718    
     21730   1435.2495     -5248.9933     -4964.2192     -613.6275       74008.524      141.55703    
     21740   1416.6442     -5245.8036     -4964.7211     -477.0172       74015.666      141.72268    
     21750   1385.0026     -5240.1475     -4965.3431     -346.66864      74023.086      141.87894    
     21760   1367.8654     -5237.3921     -4965.988      -413.14638      74031.258      142.03297    
     21770   1367.4566     -5237.9323     -4966.6093     -708.93845      74040.035      142.18756    
     21780   1365.4295     -5238.1106     -4967.1898     -1019.3488      74048.628      142.33809    
     21790   1357.3147     -5237.0303     -4967.7196     -1236.7247      74056.258      142.47751    
     21800   1362.1804     -5238.4559     -4968.1798     -1468.977       74062.424      142.60016    
     21810   1377.1536     -5241.8372     -4968.5902     -1718.9962      74066.86       142.7047     
     21820   1383.9179     -5243.5807     -4968.9916     -1942.4235      74069.56       142.79359    
     21830   1392.0944     -5245.623      -4969.4116     -2147.7374      74070.697      142.86852    
     21840   1404.2163     -5248.5081     -4969.8914     -2332.4413      74070.334      142.92848    
     21850   1411.1561     -5250.4684     -4970.4748     -2448.863       74068.353      142.97207    
     21860   1413.3289     -5251.6274     -4971.2027     -2367.6717      74064.609      142.9996     
     21870   1410.6064     -5251.9797     -4972.0952     -2111.454       74059.071      143.0127     
     21880   1400.7755     -5251.0741     -4973.1402     -1699.5153      74051.943      143.01374    
     21890   1381.7674     -5248.4476     -4974.2852     -1186.4506      74043.899      143.00882    
     21900   1377.2335     -5248.7219     -4975.4591     -819.8313       74035.95       143.00765    
     21910   1397.0667     -5253.861      -4976.6629     -660.69298      74028.813      143.01849    
     21920   1404.4785     -5256.6053     -4977.9367     -536.65849      74022.657      143.04557    
     21930   1398.1582     -5256.6716     -4979.257      -295.82597      74017.494      143.08958    
     21940   1392.3834     -5256.847      -4980.5782     -114.88146      74013.564      143.15017    
     21950   1386.8063     -5257.014      -4981.8518      37.339964      74011.038      143.22529    
     21960   1375.6451     -5255.9799     -4983.0322      211.37459      74009.856      143.31282    
     21970   1360.1419     -5253.9368     -4984.0651      382.30131      74009.967      143.41265    
     21980   1340.1301     -5250.8046     -4984.9036      478.3497       74011.509      143.527      
     21990   1318.7505     -5247.163      -4985.504       475.9248       74014.767      143.65945    
     22000   1315.9257     -5246.9432     -4985.8447      225.01522      74019.902      143.81362    
     22010   1339.0007     -5251.6414     -4985.9644     -280.13519      74026.678      143.99037    
     22020   1359.9806     -5255.7832     -4985.9436     -788.95302      74034.474      144.18529    
     22030   1352.4181     -5254.184      -4985.8448     -972.54921      74042.585      144.39013    
     22040   1332.0534     -5249.9678     -4985.6693     -956.70582      74050.732      144.59648    
     22050   1321.056      -5247.4841     -4985.3677     -974.53062      74058.885      144.79665    
     22060   1324.1649     -5247.6438     -4984.9105     -1140.3629      74066.666      144.98285    
     22070   1335.3047     -5249.2555     -4984.3119     -1333.4283      74073.367      145.14957    
     22080   1340.5272     -5249.5902     -4983.6104     -1444.4891      74078.488      145.29673    
     22090   1338.8092     -5248.4788     -4982.8398     -1395.1311      74081.937      145.42736    
     22100   1334.6801     -5246.8279     -4982.0082     -1255.9751      74083.764      145.54147    
     22110   1335.1849     -5246.0376     -4981.1178     -1181.8756      74084.016      145.63716    
     22120   1343.7809     -5246.807      -4980.1816     -1153.8078      74082.763      145.71589    
     22130   1353.9428     -5247.8745     -4979.2329     -1217.7105      74080.161      145.78328    
     22140   1366.4836     -5249.4558     -4978.3259     -1371.7844      74076.39       145.84435    
     22150   1379.624      -5251.2455     -4977.5083     -1566.1276      74071.526      145.90037    
     22160   1386.4428     -5251.9032     -4976.8131     -1720.1947      74065.418      145.94861    
     22170   1387.8293     -5251.63       -4976.2648     -1828.3451      74057.683      145.98367    
     22180   1382.1157     -5250.0787     -4975.8472     -1769.4658      74047.906      146.00163    
     22190   1374.7114     -5248.292      -4975.5296     -1586.6095      74035.989      146.00358    
     22200   1367.9078     -5246.6865     -4975.274      -1370.3155      74022.194      145.99331    
     22210   1367.0177     -5246.2833     -4975.0474     -1186.0842      74007.018      145.97376    
     22220   1377.9252     -5248.2469     -4974.8469     -1032.9161      73990.987      145.94709    
     22230   1387.3011     -5249.9568     -4974.6964     -916.34717      73974.503      145.91662    
     22240   1394.1493     -5251.2488     -4974.6296     -849.73535      73957.868      145.88578    
     22250   1399.0712     -5252.2639     -4974.6682     -811.69127      73941.233      145.8575     
     22260   1389.4823     -5250.5068     -4974.8137     -710.82092      73924.555      145.83371    
     22270   1371.6604     -5247.189      -4975.0319     -603.62087      73907.774      145.81495    
     22280   1362.3906     -5245.5813     -4975.2635     -589.32416      73891.069      145.80121    
     22290   1362.7546     -5245.8831     -4975.493      -778.37631      73874.648      145.79192    
     22300   1363.1854     -5246.1881     -4975.7126     -923.94884      73858.472      145.78528    
     22310   1359.8905     -5245.7527     -4975.9309     -1033.3898      73842.305      145.77774    
     22320   1359.9469     -5245.9841     -4976.1512     -1096.9332      73825.708      145.76198    
     22330   1347.7272     -5243.7675     -4976.3591     -1008.3724      73808.121      145.72986    
     22340   1337.1536     -5241.839      -4976.5286     -851.66158      73789.305      145.67831    
     22350   1333.135      -5241.1337     -4976.6206     -741.94574      73769.409      145.61126    
     22360   1328.5407     -5240.2266     -4976.6251     -654.47289      73748.789      145.53645    
     22370   1331.8687     -5240.7854     -4976.5236     -687.29844      73727.747      145.45978    
     22380   1349.501      -5244.0992     -4976.3389     -853.50689      73706.312      145.38295    
     22390   1355.994      -5245.1576     -4976.109      -908.27916      73684.363      145.30552    
     22400   1339.351      -5241.5728     -4975.8263     -813.57463      73662.072      145.22758    
     22410   1357.4249     -5244.8163     -4975.4838     -990.84549      73639.799      145.14823    
     22420   1380.8171     -5249.0691     -4975.0952     -1204.3071      73617.53       145.06683    
     22430   1375.6124     -5247.6595     -4974.7183     -1139.6924      73594.957      144.98268    
     22440   1357.2937     -5243.6689     -4974.3624     -911.34447      73571.776      144.89366    
     22450   1351.7291     -5242.1561     -4973.9537     -809.32943      73547.883      144.79793    
     22460   1362.1302     -5243.7166     -4973.4504     -778.35922      73523.379      144.69681    
     22470   1368.8059     -5244.4376     -4972.8469     -758.2824       73498.556      144.59454    
     22480   1378.8191     -5245.7369     -4972.1595     -837.1605       73473.663      144.49307    
     22490   1385.8476     -5246.3877     -4971.4157     -878.33558      73448.717      144.39305    
     22500   1391.7314     -5246.7894     -4970.65       -974.24161      73423.591      144.29325    
     22510   1408.2404     -5249.3218     -4969.9067     -1171.4893      73398.044      144.1897     
     22520   1432.8759     -5253.5728     -4969.2697     -1348.5951      73371.763      144.07816    
     22530   1450.7463     -5256.7119     -4968.8631     -1394.4046      73344.539      143.95779    
     22540   1447.482      -5255.9978     -4968.7967     -1289.2031      73316.449      143.83061    
     22550   1429.9989     -5252.8345     -4969.1022     -1025.9019      73287.918      143.69901    
     22560   1415.4808     -5250.6024     -4969.7507     -812.32827      73259.68       143.56614    
     22570   1413.9946     -5251.2784     -4970.7217     -747.86647      73232.295      143.43629    
     22580   1419.5886     -5253.6998     -4972.0331     -829.80404      73205.865      143.31252    
     22590   1413.0621     -5254.0367     -4973.665      -811.85109      73179.976      143.19203    
     22600   1397.4456     -5252.7964     -4975.5232     -722.50068      73154.285      143.07018    
     22610   1386.6239     -5252.5763     -4977.4503     -656.8754       73128.695      142.94348    
     22620   1377.5397     -5252.64       -4979.3164     -648.9747       73103.295      142.81109    
     22630   1367.8475     -5252.4159     -4981.0154     -653.50891      73078.372      142.67742    
     22640   1370.7608     -5254.5048     -4982.5262     -812.54354      73054.225      142.54874    
     22650   1374.8766     -5256.6859     -4983.8907     -926.83901      73030.771      142.42663    
     22660   1361.6005     -5255.2852     -4985.1241     -902.7275       73007.795      142.30862    
     22670   1345.0489     -5253.0996     -4986.2226     -813.3247       72985.352      142.19269    
     22680   1332.6164     -5251.5868     -4987.1766     -724.05447      72963.654      142.07949    
     22690   1323.962      -5250.6768     -4987.9837     -632.98591      72942.886      141.97112    
     22700   1335.352      -5253.6288     -4988.6758     -719.2086       72923.098      141.86955    
     22710   1352.6481     -5257.7003     -4989.3156     -870.76989      72903.973      141.77452    
     22720   1364.52       -5260.719      -4989.9787     -957.59667      72885.121      141.68366    
     22730   1363.3386     -5261.2046     -4990.6987     -876.00712      72866.508      141.59722    
     22740   1355.4354     -5260.4202     -4991.4824     -713.76271      72848.397      141.51907    
     22750   1347.096      -5259.5823     -4992.2991     -505.03536      72831.099      141.45273    
     22760   1337.9431     -5258.5898     -4993.1228     -333.9452       72814.786      141.39784    
     22770   1334.1468     -5258.6455     -4993.9317     -277.06501      72799.322      141.34976    
     22780   1338.2745     -5260.2598     -4994.7269     -342.36381      72784.37       141.30382    
     22790   1334.2321     -5260.2451     -4995.5144     -380.31065      72769.592      141.25804    
     22800   1318.2973     -5257.8435     -4996.2744     -364.83306      72754.877      141.21221    
     22810   1305.1257     -5255.9147     -4996.959      -393.55161      72740.265      141.16735    
     22820   1301.2232     -5255.7261     -4997.5447     -540.20375      72725.804      141.12521    
     22830   1298.2139     -5255.6049     -4998.0206     -765.88356      72711.4        141.08585    
     22840   1294.0311     -5255.1405     -4998.3862     -919.94218      72696.815      141.04854    
     22850   1281.8475     -5252.9626     -4998.6257     -1026.392       72681.771      141.01304    
     22860   1282.5226     -5253.1846     -4998.7137     -1182.4281      72665.931      140.97661    
     22870   1306.7178     -5257.9395     -4998.6679     -1419.6867      72648.826      140.93496    
     22880   1324.2248     -5261.2899     -4998.5447     -1527.9826      72630.006      140.88478    
     22890   1318.9107     -5260.0865     -4998.3958     -1355.9843      72609.447      140.8254     
     22900   1311.2898     -5258.3866     -4998.2079     -1151.742       72587.677      140.76036    
     22910   1317.6359     -5259.4036     -4997.9657     -1042.8519      72565.277      140.69316    
     22920   1315.3922     -5258.6708     -4997.6781     -941.59024      72542.392      140.62141    
     22930   1304.1338     -5256.0945     -4997.3356     -772.04856      72519.011      140.53967    
     22940   1301.9334     -5255.2375     -4996.9153     -654.88903      72495.193      140.44358    
     22950   1301.833      -5254.6901     -4996.3877     -569.9728       72470.915      140.32893    
     22960   1297.2139     -5253.1381     -4995.7522     -436.50025      72445.931      140.19217    
     22970   1295.892      -5252.1211     -4994.9976     -350.18323      72419.839      140.03393    
     22980   1305.6206     -5253.156      -4994.1022     -388.34446      72392.425      139.85833    
     22990   1322.3891     -5255.4749     -4993.0939     -506.9547       72363.902      139.67019    
     23000   1349.2712     -5259.7478     -4992.0331     -698.16831      72334.811      139.47444    
     23010   1377.1916     -5264.2896     -4991.035      -934.30237      72305.473      139.27556    
     23020   1385.1205     -5265.037      -4990.2093     -989.69096      72275.764      139.07624    
     23030   1370.0856     -5261.4606     -4989.616      -865.81424      72245.541      138.87932    
     23040   1349.4129     -5256.9547     -4989.2119     -637.45483      72214.91       138.68988    
     23050   1334.7771     -5253.7625     -4988.9236     -462.68149      72184.035      138.51288    
     23060   1332.6417     -5253.1139     -4988.6987     -390.98131      72152.976      138.35004    
     23070   1334.0441     -5253.2208     -4988.5274     -315.15939      72121.695      138.19867    
     23080   1324.3279     -5251.1667     -4988.4011     -108.00427      72090.164      138.05305    
     23090   1321.0862     -5250.4281     -4988.3057      41.985714      72058.458      137.90839    
     23100   1336.7207     -5253.4497     -4988.2252      70.444545      72026.735      137.76298    
     23110   1364.2266     -5258.9077     -4988.2256      11.093385      71995.211      137.61834    
     23120   1369.0695     -5260.0441     -4988.4011      100.45456      71964.182      137.47959    
     23130   1348.1338     -5256.2882     -4988.7992      358.83097      71934.102      137.35227    
     23140   1329.8754     -5253.2527     -4989.3864      568.645        71905.622      137.24071    
     23150   1333.5141     -5254.7542     -4990.1658      466.54751      71879.146      137.1468     
     23160   1345.3536     -5258.1281     -4991.1906      265.07912      71854.397      137.06863    
     23170   1342.3633     -5258.8656     -4992.5215      87.801413      71830.894      137.00475    
     23180   1338.7873     -5259.8167     -4994.1821     -117.62917      71808.216      136.95437    
     23190   1332.1202     -5260.4062     -4996.0945     -365.00373      71785.928      136.91524    
     23200   1322.5405     -5260.5205     -4998.1095     -627.28706      71763.8        136.8843     
     23210   1323.5489     -5262.6753     -5000.0642     -934.57407      71741.742      136.85638    
     23220   1326.0452     -5264.9465     -5001.8402     -1187.8022      71719.547      136.82443    
     23230   1321.0911     -5265.4911     -5003.3677     -1312.2888      71696.957      136.78238    
     23240   1312.9908     -5265.1432     -5004.627      -1298.8712      71673.741      136.72743    
     23250   1312.5414     -5266.0704     -5005.6434     -1332.1633      71649.728      136.66106    
     23260   1313.9634     -5267.1929     -5006.4837     -1350.7924      71624.728      136.58525    
     23270   1304.4775     -5266.0247     -5007.1976     -1228.5512      71598.575      136.50026    
     23280   1299.0254     -5265.5486     -5007.8033     -1087.6188      71571.339      136.40686    
     23290   1300.3005     -5266.3165     -5008.3183     -924.39195      71543.222      136.30664    
     23300   1298.4466     -5266.4019     -5008.7715     -764.81329      71514.512      136.20129    
     23310   1292.1126     -5265.5486     -5009.1749     -572.91352      71485.468      136.09216    
     23320   1284.9935     -5264.4785     -5009.5174     -484.31312      71456.289      135.98087    
     23330   1281.0932     -5263.9797     -5009.7925     -441.23546      71427.138      135.86853    
     23340   1272.0652     -5262.3845     -5009.9886     -356.67276      71398.274      135.75566    
     23350   1262.0127     -5260.4824     -5010.081      -303.77235      71370.125      135.64249    
     23360   1266.9825     -5261.4401     -5010.0526     -435.19867      71343.039      135.52928    
     23370   1288.937      -5265.6694     -5009.9259     -677.99839      71317.033      135.41587    
     23380   1315.5095     -5270.7894     -5009.7735     -985.49752      71291.722      135.30068    
     23390   1319.1296     -5271.4076     -5009.6734     -1128.753       71266.398      135.18078    
     23400   1313.0698     -5270.1874     -5009.6555     -1103.0745      71240.393      135.05418    
     23410   1307.5275     -5269.1334     -5009.7012     -1031.2052      71213.352      134.92079    
     23420   1298.8579     -5267.502      -5009.79       -928.51101      71185.281      134.78205    
     23430   1299.4794     -5267.7297     -5009.8944     -885.82263      71156.384      134.64161    
     23440   1319.5437     -5271.8511     -5010.0347     -898.20669      71126.757      134.501      
     23450   1345.0381     -5277.1567     -5010.2819     -971.15036      71096.382      134.35882    
     23460   1357.2216     -5280.0275     -5010.7353     -972.38244      71065.143      134.2113     
     23470   1360.1666     -5281.3315     -5011.455      -863.72088      71033.123      134.058      
     23480   1356.5609     -5281.6278     -5012.4667     -758.94476      71000.623      133.9023     
     23490   1342.1771     -5280.0542     -5013.747      -592.5218       70967.87       133.74638    
     23500   1321.6713     -5277.4424     -5015.2039     -435.75564      70935.029      133.58996    
     23510   1310.2486     -5276.7023     -5016.7302     -390.73701      70902.242      133.43223    
     23520   1302.8663     -5276.7407     -5018.2334     -461.26473      70869.494      133.27272    
     23530   1287.5377     -5275.0979     -5019.632      -372.14723      70836.63       133.11087    
     23540   1282.6807     -5275.355      -5020.8528     -367.64725      70803.828      132.9476     
     23550   1288.2592     -5277.5061     -5021.897      -382.5229       70771.447      132.78407    
     23560   1288.3058     -5278.4055     -5022.7872     -371.75926      70739.9        132.62064    
     23570   1291.1128     -5279.7308     -5023.5556     -459.67299      70709.534      132.45776    
     23580   1301.8748     -5282.5609     -5024.2503     -567.64102      70680.455      132.29615    
     23590   1299.0642     -5282.6587     -5024.9057     -602.04635      70652.564      132.13648    
     23600   1279.8837     -5279.4705     -5025.5232     -478.67591      70625.658      131.98083    
     23610   1262.9357     -5276.6422     -5026.0577     -384.8342       70599.534      131.83396    
     23620   1254.48       -5275.385      -5026.4782     -363.71047      70573.959      131.70044    
     23630   1252.9811     -5275.389      -5026.7796     -357.55591      70548.688      131.58297    
     23640   1245.2013     -5274.026      -5026.9602     -310.13241      70523.57       131.48053    
     23650   1242.544      -5273.5536     -5027.0151     -216.00377      70498.657      131.39062    
     23660   1249.2076     -5274.8082     -5026.9475     -236.36313      70474.121      131.31214    
     23670   1262.2154     -5277.2146     -5026.773      -301.40681      70450.006      131.24468    
     23680   1280.5664     -5280.6292     -5026.5464     -380.2847       70426.233      131.18668    
     23690   1294.5072     -5283.1659     -5026.3171     -487.17768      70402.682      131.13529    
     23700   1310.9282     -5286.2523     -5026.1454     -609.73109      70379.297      131.08841    
     23710   1316.9727     -5287.3923     -5026.0861     -626.90461      70356.045      131.04328    
     23720   1303.2503     -5284.7399     -5026.1563     -467.94048      70332.872      130.9959     
     23730   1284.7568     -5281.2319     -5026.3178     -208.45333      70309.967      130.94369    
     23740   1276.6056     -5279.8074     -5026.5105     -94.85034       70287.687      130.88481    
     23750   1293.0683     -5283.2966     -5026.7334     -233.77195      70266.182      130.81861    
     23760   1316.839      -5288.3269     -5027.0472     -459.50686      70245.13       130.74587    
     23770   1323.3156     -5290.1001     -5027.5353     -567.34822      70223.954      130.66619    
     23780   1312.6733     -5288.6917     -5028.2385     -588.06311      70202.199      130.57719    
     23790   1300.0948     -5287.0909     -5029.1335     -550.22489      70179.693      130.47685    
     23800   1292.2456     -5286.5867     -5030.1866     -562.72474      70156.442      130.36556    
     23810   1288.8413     -5287.0895     -5031.3649     -649.41455      70132.452      130.24513    
     23820   1282.1656     -5287.0389     -5032.6389     -762.2065       70107.747      130.11842    
     23830   1272.5111     -5286.4413     -5033.9568     -792.00533      70082.426      129.98765    
     23840   1268.0482     -5286.8416     -5035.2426     -865.87562      70056.684      129.85446    
     23850   1279.2107     -5290.288      -5036.4742     -1039.8075      70030.62       129.72009    
     23860   1290.9843     -5293.8069     -5037.6571     -1264.3265      70004.026      129.58372    
     23870   1288.3151     -5294.4177     -5038.7975     -1355.2273      69976.435      129.4427     
     23880   1281.1896     -5294.0658     -5039.8594     -1399.1398      69947.286      129.29293    
     23890   1277.3173     -5294.2573     -5040.8193     -1395.1994      69915.966      129.12908    
     23900   1270.1368     -5293.6743     -5041.661      -1347.7705      69882.047      128.94691    
     23910   1260.4592     -5292.4717     -5042.3785     -1316.2086      69845.52       128.74593    
     23920   1251.978      -5291.3628     -5042.9524     -1283.6085      69806.601      128.52727    
     23930   1253.0643     -5292.0322     -5043.4063     -1292.4045      69765.672      128.29313    
     23940   1248.292      -5291.4269     -5043.7479     -1152.3147      69723.249      128.04831    
     23950   1239.109      -5289.8467     -5043.9897     -942.61815      69679.973      127.79754    
     23960   1237.6306     -5289.6888     -5044.1252     -825.41495      69636.274      127.54229    
     23970   1250.0781     -5292.2168     -5044.1834     -819.03837      69592.166      127.2811     
     23980   1263.747      -5294.9528     -5044.2072     -825.4211       69547.471      127.01306    
     23990   1261.1928     -5294.4738     -5044.235      -708.13302      69502.104      126.73996    
     24000   1247.4416     -5291.7642     -5044.2539     -534.72663      69456.246      126.46537    
     24010   1239.3509     -5290.1385     -5044.2336     -454.24877      69410.245      126.19357    
     24020   1238.2728     -5289.8394     -5044.1483     -484.36919      69364.368      125.9278     
     24030   1236.8922     -5289.4146     -5043.9974     -574.63858      69318.581      125.66841    
     24040   1232.1466     -5288.2599     -5043.7844     -620.43153      69272.624      125.41434    
     24050   1228.1821     -5287.1818     -5043.4928     -586.63362      69226.25       125.16564    
     24060   1224.1585     -5285.9923     -5043.1017     -547.40243      69179.443      124.92433    
     24070   1218.627      -5284.3909     -5042.5978     -453.62993      69132.393      124.69241    
     24080   1214.3467     -5282.9019     -5041.9581     -332.61681      69085.394      124.46936    
     24090   1217.3182     -5282.7078     -5041.1744     -260.53543      69038.716      124.25189    
     24100   1231.0383     -5284.5187     -5040.2631     -295.46325      68992.485      124.03657    
     24110   1254.8297     -5288.2463     -5039.2702     -405.14742      68946.669      123.82161    
     24120   1284.0159     -5293.058      -5038.2908     -502.45279      68901.197      123.60512    
     24130   1296.1906     -5294.6166     -5037.4338     -460.6815       68856.044      123.38586    
     24140   1290.6275     -5292.839      -5036.76       -196.17608      68811.403      123.16434    
     24150   1288.9282     -5292.0022     -5036.2604      105.09062      68767.649      122.94422    
     24160   1290.3741     -5291.9388     -5035.9101      322.91827      68725.093      122.73204    
     24170   1295.2536     -5292.7126     -5035.7158      383.64678      68683.957      122.53306    
     24180   1307.9736     -5295.2186     -5035.6979      259.94635      68644.225      122.3469     
     24190   1318.0927     -5297.425      -5035.8966      79.337659      68605.494      122.16623    
     24200   1315.9058     -5297.4338     -5036.3393     -40.358759      68567.257      121.982      
     24210   1301.1371     -5295.1586     -5036.9943     -7.1054102      68529.344      121.79125    
     24220   1283.7832     -5292.524      -5037.8031      16.119256      68491.964      121.59705    
     24230   1271.1706     -5290.9156     -5038.6972      5.5242015      68455.28       121.40246    
     24240   1254.5741     -5288.5316     -5039.6061      123.37152      68419.206      121.20929    
     24250   1236.6976     -5285.8407     -5040.4622      215.68853      68383.767      121.01808    
     24260   1232.3632     -5285.7206     -5041.2021      239.00217      68349.209      120.82914    
     24270   1237.9332     -5287.4495     -5041.8258      154.88538      68315.813      120.64599    
     24280   1241.6732     -5288.7206     -5042.3548      70.188728      68283.64       120.47251    
     24290   1247.6732     -5290.3667     -5042.8105      23.818862      68252.574      120.31068    
     24300   1253.7717     -5291.9868     -5043.2206      31.490232      68222.577      120.16164    
     24310   1254.8954     -5292.5951     -5043.6059      82.298937      68193.707      120.02532    
     24320   1248.9649     -5291.7795     -5043.967       185.60921      68166.107      119.90012    
     24330   1240.5419     -5290.4227     -5044.2814      299.83808      68140.104      119.78722    
     24340   1249.6043     -5292.4955     -5044.5561      275.64952      68115.943      119.69092    
     24350   1261.7029     -5295.1703     -5044.8304      228.90966      68093.348      119.61108    
     24360   1263.9983     -5295.9313     -5045.1359      186.78078      68071.708      119.54125    
     24370   1267.8631     -5297.0544     -5045.4922      166.87099      68050.474      119.47419    
     24380   1275.7404     -5299.0342     -5045.909       49.237338      68029.339      119.40757    
     24390   1277.096      -5299.7985     -5046.4043     -3.1311816      68008.131      119.34433    
     24400   1270.0492     -5298.9745     -5046.9785      9.8898253      67986.778      119.28805    
     24410   1263.7425     -5298.3479     -5047.6033     -2.3639158      67965.308      119.23914    
     24420   1270.6862     -5300.3914     -5048.269      -103.7332       67943.775      119.19514    
     24430   1286.0521     -5304.1827     -5049.0116     -242.93104      67922.124      119.15314    
     24440   1278.1138     -5303.4543     -5049.8583     -126.79645      67900.22       119.11033    
     24450   1253.1401     -5299.3967     -5050.7558      69.538981      67878.13       119.0641     
     24460   1241.0233     -5297.859      -5051.6222      168.95893      67855.957      119.01151    
     24470   1246.5706     -5299.7805     -5052.4431      81.478557      67833.655      118.95035    
     24480   1249.9494     -5301.2424     -5053.2346     -9.5478287      67811.101      118.88063    
     24490   1246.681      -5301.3633     -5054.0039     -50.939085      67788.331      118.80501    
     24500   1243.4897     -5301.4775     -5054.7514     -144.48625      67765.517      118.72547    
     24510   1232.7856     -5300.0687     -5055.4664     -139.96393      67742.679      118.64175    
     24520   1214.2214     -5297.0314     -5056.1125     -89.882914      67719.739      118.55187    
     24530   1199.854      -5294.7169     -5056.6487     -70.186553      67696.565      118.45337    
     24540   1191.6798     -5293.5        -5057.0537     -113.81349      67672.89       118.34387    
     24550   1187.8237     -5293.0034     -5057.3222     -144.27348      67648.316      118.22188    
     24560   1179.0321     -5291.3855     -5057.4486     -91.971009      67622.491      118.08794    
     24570   1168.0164     -5289.1677     -5057.4165     -32.231016      67595.396      117.94517    
     24580   1172.5031     -5289.8529     -5057.2115     -59.307639      67567.217      117.79782    
     24590   1184.8055     -5291.9301     -5056.8477     -180.76158      67537.997      117.64805    
     24600   1189.8768     -5292.4537     -5056.3651     -219.49668      67507.518      117.49469    
     24610   1188.1335     -5291.5291     -5055.7864     -213.73497      67475.495      117.33531    
     24620   1195.4176     -5292.3054     -5055.1174     -178.7069       67441.692      117.16693    
     24630   1202.4862     -5292.9686     -5054.3782     -114.06231      67406.054      116.98699    
     24640   1202.8329     -5292.2505     -5053.5912      47.610345      67368.754      116.79384    
     24650   1207.5973     -5292.3845     -5052.7799      215.48235      67330.176      116.58613    
     24660   1215.2601     -5293.0895     -5051.9645      307.00477      67290.834      116.36502    
     24670   1217.9297     -5292.832      -5051.1773      417.13243      67251.23       116.13484    
     24680   1212.1219     -5290.9427     -5050.4404      573.32661      67211.774      115.8992     
     24690   1208.825      -5289.5966     -5049.7484      705.32997      67172.841      115.66092    
     24700   1213.3133     -5289.8339     -5049.0951      789.01095      67134.605      115.42195    
     24710   1221.288      -5290.8153     -5048.4943      885.2379       67097.017      115.18073    
     24720   1233.383      -5292.6859     -5047.9651      988.87384      67060.081      114.93551    
     24730   1255.1589     -5296.5853     -5047.5438      890.84329      67024.015      114.68882    
     24740   1285.7379     -5302.4081     -5047.2993      644.95137      66988.958      114.44593    
     24750   1309.7521     -5307.1945     -5047.3209      420.43901      66954.874      114.2122     
     24760   1315.3352     -5308.6472     -5047.6659      313.33421      66921.648      113.99       
     24770   1315.2803     -5309.306      -5048.3356      196.64115      66889.271      113.77818    
     24780   1314.4607     -5310.1047     -5049.2969      77.06774       66857.748      113.57475    
     24790   1296.2661     -5307.6874     -5050.4896      146.99206      66826.903      113.37823    
     24800   1273.3495     -5304.4277     -5051.777       233.95348      66796.504      113.18798    
     24810   1266.6842     -5304.3864     -5053.0581      192.62578      66766.35       113.00437    
     24820   1262.8303     -5304.8445     -5054.2809      124.25437      66736.36       112.82922    
     24830   1252.5839     -5303.9495     -5055.4189      169.38984      66706.561      112.66311    
     24840   1240.0969     -5302.5033     -5056.4503      246.3055       66677.091      112.50505    
     24850   1235.5553     -5302.5297     -5057.3778      329.17081      66648.065      112.35402    
     24860   1233.6225     -5302.9922     -5058.2238      452.489        66619.638      112.21048    
     24870   1229.0189     -5302.8673     -5059.0124      579.39924      66591.993      112.07607    
     24880   1222.5695     -5302.3326     -5059.7573      667.6461       66565.21       111.95263    
     24890   1222.1575     -5302.9651     -5060.4715      642.84339      66539.221      111.84028    
     24900   1230.8602     -5305.4033     -5061.183       516.93497      66513.64       111.73529    
     24910   1235.2154     -5307.0132     -5061.9288      380.57479      66487.976      111.6317     
     24920   1228.6442     -5306.5031     -5062.7225      335.25933      66461.856      111.52507    
     24930   1220.7961     -5305.7706     -5063.5472      296.84948      66435.072      111.414      
     24940   1222.325      -5306.9139     -5064.3871      211.91931      66407.488      111.29706    
     24950   1226.9144     -5308.6923     -5065.2549      92.260659      66379.089      111.1719     
     24960   1225.2783     -5309.269      -5066.1563      33.052905      66349.945      111.03734    
     24970   1222.008      -5309.5507     -5067.0868      6.5500079      66320.114      110.89388    
     24980   1216.4266     -5309.3939     -5068.0375      95.579331      66289.601      110.74135    
     24990   1208.834      -5308.83       -5068.98        178.50681      66258.313      110.57897    
     25000   1208.1466     -5309.6096     -5069.896       264.01585      66226.155      110.40809    
     25010   1210.5228     -5310.9763     -5070.7913      292.3197       66193.125      110.23219    
     25020   1211.7989     -5312.1079     -5071.6697      339.19863      66159.324      110.05484    
     25030   1209.4445     -5312.5042     -5072.533       426.23502      66125.042      109.87973    
     25040   1200.7941     -5311.6154     -5073.3606      544.96186      66090.798      109.71118    
     25050   1200.1128     -5312.2614     -5074.1418      748.40167      66057.242      109.5525     
     25060   1197.9446     -5312.5646     -5074.8752      900.38764      66024.923      109.40569    
     25070   1196.1048     -5312.8953     -5075.5709      1006.642       65993.945      109.27086    
     25080   1203.0306     -5314.9384     -5076.2398      1046.5972      65964.088      109.14647    
     25090   1207.3707     -5316.4629     -5076.9032      1060.6807      65935.127      109.02959    
     25100   1210.2609     -5317.7172     -5077.5841      989.2936       65906.87       108.91702    
     25110   1213.9077     -5319.1498     -5078.2931      866.70299      65878.967      108.80518    
     25120   1221.7647     -5321.4653     -5079.0497      614.95862      65851.083      108.69181    
     25130   1229.1458     -5323.7629     -5079.8828      325.61319      65822.889      108.57631    
     25140   1225.6798     -5323.9896     -5080.7972      195.02209      65794.126      108.45943    
     25150   1211.8261     -5322.2087     -5081.7651      167.02752      65764.842      108.34497    
     25160   1203.8364     -5321.5884     -5082.73        83.329191      65735.195      108.23703    
     25170   1203.5528     -5322.4728     -5083.6707      29.442285      65705.094      108.13653    
     25180   1202.0399     -5323.0811     -5084.5791      3.1794415      65674.366      108.04144    
     25190   1199.632      -5323.4747     -5085.4506      3.9170897      65642.866      107.948      
     25200   1193.2779     -5323.04       -5086.2766      4.2132892      65610.427      107.85136    
     25210   1183.2259     -5321.8063     -5087.0373      4.2996916      65576.888      107.74675    
     25220   1177.733      -5321.3899     -5087.7108     -24.833093      65542.171      107.63144    
     25230   1181.1622     -5322.6581     -5088.2986     -149.836        65506.248      107.50504    
     25240   1187.0294     -5324.3555     -5088.8318     -244.94393      65469.04       107.36805    
     25250   1189.0836     -5325.2596     -5089.3284     -253.22292      65430.536      107.22169    
     25260   1185.6159     -5325.0403     -5089.7971     -197.84235      65390.92       107.06737    
     25270   1186.9402     -5325.7449     -5090.2389     -88.792311      65350.478      106.90668    
     25280   1182.1382     -5325.2139     -5090.6607      130.20615      65309.484      106.74217    
     25290   1165.9658     -5322.3816     -5091.0373      444.00804      65268.293      106.57791    
     25300   1154.2535     -5320.359      -5091.3386      683.74795      65227.383      106.42013    
     25310   1151.9303     -5320.0876     -5091.5282      776.2216       65187.154      106.27298    
     25320   1156.2451     -5321.0343     -5091.6187      775.70412      65147.796      106.13454    
     25330   1166.7623     -5323.1415     -5091.6391      731.39598      65109.166      105.99797    
     25340   1175.9421     -5324.9399     -5091.6162      702.50469      65070.869      105.85575    
     25350   1180.7116     -5325.8584     -5091.5883      706.49686      65032.588      105.70482    
     25360   1173.4173     -5324.3811     -5091.5583      783.19847      64994.212      105.54841    
     25370   1163.0899     -5322.2823     -5091.5087      850.32153      64955.761      105.39095    
     25380   1168.9255     -5323.3513     -5091.4198      687.00016      64917.111      105.23223    
     25390   1184.2161     -5326.2708     -5091.3053      434.2219       64877.995      105.06725    
     25400   1199.1957     -5329.1455     -5091.2079      182.26723      64838.283      104.8908     
     25410   1203.0476     -5329.8798     -5091.1779      62.545471      64797.999      104.70157    
     25420   1189.3932     -5327.2251     -5091.2325      146.32099      64757.233      104.50139    
     25430   1168.7485     -5323.2305     -5091.334       406.31464      64716.145      104.29321    
     25440   1155.4318     -5320.6765     -5091.4223      618.64963      64675.008      104.08068    
     25450   1160.6991     -5321.7616     -5091.4623      634.46637      64634.01       103.86677    
     25460   1173.5028     -5324.3068     -5091.467       623.87995      64593.084      103.65284    
     25470   1173.7829     -5324.3573     -5091.462       735.51464      64552.048      103.43904    
     25480   1171.3915     -5323.8754     -5091.4545      871.03954      64510.806      103.22631    
     25490   1183.204      -5326.2136     -5091.449       977.19702      64469.272      103.01695    
     25500   1202.7728     -5330.1288     -5091.4814      935.73488      64427.393      102.81402    
     25510   1213.7854     -5332.4689     -5091.6365      968.52516      64385.158      102.62096    
     25520   1213.2034     -5332.7        -5091.983       1013.5663      64342.637      102.44029    
     25530   1203.8575     -5331.4189     -5092.5564      1129.5281      64299.833      102.2707     
     25540   1190.7892     -5329.6132     -5093.3435      1197.5271      64256.77       102.10942    
     25550   1185.3848     -5329.507      -5094.3096      1101.6207      64213.6        101.95599    
     25560   1188.575      -5331.2684     -5095.4381      886.61968      64170.46       101.80785    
     25570   1188.0361     -5332.4352     -5096.7118      656.79488      64127.314      101.6617     
     25580   1181.855      -5332.582      -5098.0851      517.14375      64084.023      101.51665    
     25590   1178.6067     -5333.3383     -5099.4858      423.38078      64040.416      101.37197    
     25600   1179.6892     -5334.9338     -5100.8666      356.97554      63996.269      101.22468    
     25610   1172.7109     -5334.8668     -5102.1842      425.75528      63951.38       101.07034    
     25620   1167.0444     -5334.9496     -5103.3913      584.84398      63905.814      100.90555    
     25630   1171.7038     -5336.9575     -5104.4747      670.27233      63859.929      100.72957    
     25640   1177.4388     -5339.087      -5105.4663      791.38448      63814.09       100.54507    
     25650   1177.7932     -5340.0824     -5106.3914      903.24686      63768.523      100.35653    
     25660   1182.488      -5341.9047     -5107.2821      955.24777      63723.231      100.16839    
     25670   1183.8868     -5343.0634     -5108.1633      1067.1171      63678.037      99.984973    
     25680   1172.4421     -5341.6593     -5109.03        1201.3818      63632.844      99.810904    
     25690   1160.6812     -5340.1465     -5109.8507      1288.9394      63587.679      99.650545    
     25700   1163.16       -5341.4052     -5110.6175      1222.4926      63542.562      99.505893    
     25710   1174.8802     -5344.467      -5111.354       1048.3474      63497.493      99.373445    
     25720   1182.9374     -5346.8137     -5112.102       941.74787      63452.5        99.244955    
     25730   1182.9734     -5347.6154     -5112.8965      897.4041       63407.556      99.114483    
     25740   1174.0676     -5346.6764     -5113.7246      989.83256      63362.524      98.980081    
     25750   1170.2443     -5346.7588     -5114.5656      1002.395       63317.438      98.841833    
     25760   1169.5685     -5347.4689     -5115.4097      989.32335      63272.385      98.699367    
     25770   1162.8924     -5346.9785     -5116.244       1060.3851      63227.408      98.552836    
     25780   1159.1117     -5347.0371     -5117.0527      1086.4221      63182.613      98.4032      
     25790   1160.6104     -5348.116      -5117.8342      1144.6676      63138.074      98.251328    
     25800   1160.639      -5348.8861     -5118.5987      1258.5462      63093.819      98.096851    
     25810   1156.7585     -5348.863      -5119.3456      1364.9451      63049.811      97.938429    
     25820   1155.0562     -5349.245      -5120.0653      1472.8097      63005.978      97.775886    
     25830   1157.2911     -5350.3887     -5120.7655      1403.3596      62962.259      97.612411    
     25840   1162.7881     -5352.1743     -5121.4605      1231.4853      62918.449      97.452216    
     25850   1165.753      -5353.4821     -5122.18        1030.2725      62874.236      97.297486    
     25860   1151.8154     -5351.4467     -5122.91        960.66301      62829.378      97.147049    
     25870   1127.0349     -5347.218      -5123.5982      983.1516       62783.867      96.998183    
     25880   1107.95       -5344.0045     -5124.1714      926.01797      62737.901      96.848461    
     25890   1105.0924     -5343.8566     -5124.5904      764.58759      62691.735      96.696954    
     25900   1115.6808     -5346.2377     -5124.8706      549.47259      62645.478      96.54418     
     25910   1124.5444     -5348.1738     -5125.0481      408.29097      62599.076      96.391688    
     25920   1128.162      -5348.9996     -5125.1561      482.23642      62552.441      96.240797    
     25930   1125.7545     -5348.5686     -5125.2028      641.39196      62505.656      96.093303    
     25940   1114.656      -5346.3439     -5125.1801      981.49385      62458.96       95.950682    
     25950   1096.9109     -5342.6909     -5125.0481      1388.1296      62412.71       95.813056    
     25960   1090.8663     -5341.2056     -5124.7621      1675.8045      62367.25       95.679456    
     25970   1111.0856     -5344.7629     -5124.3076      1693.9259      62322.764      95.549886    
     25980   1128.8313     -5347.7003     -5123.724       1694.6017      62279.246      95.426469    
     25990   1131.38       -5347.5461     -5123.0641      1782.7792      62236.659      95.311715    
     26000   1137.3395     -5348.0299     -5122.3655      1868.751       62195.019      95.206743    
     26010   1150.759      -5349.9675     -5121.6405      1840.7301      62154.26       95.110751    
     26020   1166.5216     -5352.3922     -5120.9376      1752.9064      62114.247      95.023189    
     26030   1173.7454     -5353.1997     -5120.3118      1776.2125      62074.982      94.94468     
     26040   1168.5135     -5351.6451     -5119.7953      1871.0529      62036.701      94.875632    
     26050   1157.202      -5348.9846     -5119.3792      2063.9348      61999.685      94.816077    
     26060   1148.6384     -5346.9379     -5119.0316      2234.785       61964.186      94.765827    
     26070   1149.2899     -5346.7559     -5118.7203      2290.173       61930.368      94.723781    
     26080   1149.7498     -5346.5698     -5118.443       2349.1934      61898.311      94.688206    
     26090   1148.5623     -5346.0956     -5118.2044      2400.7446      61868.118      94.658907    
     26100   1147.7971     -5345.7448     -5118.0054      2410.1024      61839.714      94.637       
     26110   1147.2037     -5345.4609     -5117.8393      2393.117       61812.8        94.623274    
     26120   1149.0586     -5345.703      -5117.7133      2318.839       61787.021      94.616079    
     26130   1160.0175     -5347.8007     -5117.6366      2165.2513      61762.182      94.611624    
     26140   1173.2401     -5350.4381     -5117.6505      1980.364       61738.116      94.605625    
     26150   1173.9529     -5350.7531     -5117.824       1899.595       61714.608      94.593713    
     26160   1166.9587     -5349.739      -5118.1977      1900.9922      61691.547      94.573252    
     26170   1157.8766     -5348.5609     -5118.8216      1861.0235      61668.832      94.543703    
     26180   1144.9674     -5346.8884     -5119.7105      1844.8647      61646.318      94.505043    
     26190   1138.9912     -5346.8763     -5120.8842      1720.277       61623.807      94.458247    
     26200   1141.3226     -5348.7865     -5122.3317      1551.007       61600.969      94.405151    
     26210   1145.792      -5351.3547     -5124.0132      1352.8093      61577.363      94.346623    
     26220   1152.359      -5354.4752     -5125.8307      1246.0708      61552.563      94.281569    
     26230   1156.1205     -5357.0504     -5127.6595      1196.9351      61526.293      94.208912    
     26240   1150.8142     -5357.7063     -5129.3683      1227.579       61498.456      94.128302    
     26250   1139.2801     -5356.901      -5130.8515      1333.7559      61469.218      94.040551    
     26260   1128.1571     -5355.9163     -5132.0737      1442.1986      61438.948      93.948211    
     26270   1125.5231     -5356.385      -5133.0651      1429.453       61408.123      93.855065    
     26280   1131.0923     -5358.3135     -5133.8886      1391.5462      61377.067      93.765061    
     26290   1136.3133     -5360.076      -5134.6152      1402.8914      61345.842      93.680444    
     26300   1133.8869     -5360.2701     -5135.2907      1581.5717      61314.475      93.600689    
     26310   1124.5501     -5359.0525     -5135.9256      1897.3874      61283.242      93.522918    
     26320   1117.2835     -5358.189      -5136.5039      2213.1769      61252.545      93.443176    
     26330   1121.1649     -5359.4861     -5137.0309      2378.8752      61222.772      93.359705    
     26340   1127.4591     -5361.2413     -5137.5373      2502.5291      61194.171      93.275573    
     26350   1128.5718     -5361.9712     -5138.0464      2581.5877      61166.857      93.196007    
     26360   1130.8388     -5362.9471     -5138.5725      2561.7267      61140.814      93.122579    
     26370   1137.0362     -5364.7357     -5139.1315      2446.8615      61115.985      93.053932    
     26380   1145.3753     -5367.0099     -5139.751       2292.6818      61092.369      92.990002    
     26390   1148.3725     -5368.3162     -5140.4626      2158.5695      61069.941      92.931503    
     26400   1138.3727     -5367.1293     -5141.2598      2111.5095      61048.548      92.877704    
     26410   1126.7322     -5365.6663     -5142.1065      2166.1439      61027.948      92.826556    
     26420   1122.3664     -5365.656      -5142.9624      2137.6371      61007.884      92.776596    
     26430   1119.6181     -5365.96       -5143.8117      2104.9591      60988.081      92.727667    
     26440   1112.3356     -5365.3403     -5144.637       2097.5482      60968.362      92.68037     
     26450   1105.0741     -5364.6749     -5145.4124      2069.0145      60948.61       92.634954    
     26460   1107.892      -5365.9479     -5146.1262      1943.8043      60928.672      92.592209    
     26470   1114.4378     -5367.9207     -5146.8002      1797.9204      60908.342      92.552623    
     26480   1112.1324     -5368.1096     -5147.4466      1696.4447      60887.46       92.514759    
     26490   1101.1917     -5366.5529     -5148.0607      1825.2987      60866.063      92.476049    
     26500   1087.6175     -5364.4065     -5148.6076      2021.7622      60844.426      92.43692     
     26510   1083.7249     -5364.0809     -5149.0544      2147.4454      60822.84       92.400691    
     26520   1095.8666     -5366.8491     -5149.4135      2076.1539      60801.473      92.370716    
     26530   1116.5626     -5371.274      -5149.732       1943.7167      60780.4        92.347903    
     26540   1128.8832     -5374.0591     -5150.0725      1771.5519      60759.684      92.331378    
     26550   1123.6103     -5373.4204     -5150.48        1755.4054      60739.301      92.319147    
     26560   1106.2475     -5370.4252     -5150.9298      1828.4697      60719.173      92.308175    
     26570   1099.2597     -5369.4913     -5151.3825      1851.0941      60699.132      92.294566    
     26580   1104.8161     -5371.0349     -5151.8236      1804.8629      60678.906      92.274777    
     26590   1109.693      -5372.45       -5152.271       1770.216       60658.173      92.246658    
     26600   1110.4128     -5373.0608     -5152.739       1818.2008      60636.701      92.209594    
     26610   1111.5014     -5373.7786     -5153.2408      1885.8139      60614.428      92.163901    
     26620   1110.4525     -5374.106      -5153.7763      2014.202       60591.448      92.109553    
     26630   1099.8118     -5372.5543     -5154.3359      2202.4142      60567.965      92.046496    
     26640   1086.9538     -5370.5596     -5154.8924      2433.0905      60544.175      91.976149    
     26650   1074.9973     -5368.6956     -5155.4007      2678.1428      60520.251      91.903427    
     26660   1068.3318     -5367.7987     -5155.8264      2746.1526      60496.299      91.834582    
     26670   1083.0891     -5371.0734     -5156.173       2583.7734      60472.169      91.772833    
     26680   1105.0033     -5375.7451     -5156.4966      2306.7926      60447.453      91.715106    
     26690   1111.2858     -5377.3469     -5156.8519      2168.71        60421.76       91.656202    
     26700   1104.848      -5376.4823     -5157.2646      2233.8703      60395.063      91.594385    
     26710   1091.6543     -5374.3147     -5157.7148      2402.4284      60367.704      91.531468    
     26720   1080.6188     -5372.577      -5158.1668      2618.4045      60340.276      91.470949    
     26730   1073.4827     -5371.5806     -5158.5862      2827.733       60313.455      91.416645    
     26740   1074.8523     -5372.2324     -5158.9663      2928.1357      60287.744      91.372477    
     26750   1082.6318     -5374.1415     -5159.3318      2980.4491      60263.34       91.34111     
     26760   1075.8308     -5373.1545     -5159.6943      3113.1061      60240.206      91.32238     
     26770   1058.7084     -5370.1058     -5160.0429      3287.5814      60218.195      91.314929    
     26780   1053.8416     -5369.4327     -5160.3355      3281.102       60197.121      91.315996    
     26790   1061.3882     -5371.1481     -5160.5534      3089.7457      60176.736      91.319221    
     26800   1070.8698     -5373.1912     -5160.7153      2792.674       60156.659      91.317428    
     26810   1075.5021     -5374.233      -5160.838       2579.6808      60136.393      91.306918    
     26820   1074.551      -5374.1327     -5160.9264      2506.598       60115.642      91.28744     
     26830   1074.8171     -5374.2268     -5160.9677      2529.1219      60094.419      91.261071    
     26840   1080.4845     -5375.3496     -5160.966       2486.9874      60072.865      91.231882    
     26850   1084.7024     -5376.1447     -5160.9242      2488.0444      60051.006      91.203859    
     26860   1082.9939     -5375.7382     -5160.8567      2566.3492      60028.798      91.179272    
     26870   1076.1138     -5374.266      -5160.7496      2744.4198      60006.35       91.158626    
     26880   1069.8398     -5372.8499     -5160.5783      2952.2859      59984.054      91.141487    
     26890   1074.1002     -5373.4406     -5160.3237      3019.257       59962.392      91.128083    
     26900   1085.9871     -5375.4752     -5159.9998      2988.9349      59941.611      91.119865    
     26910   1085.526      -5375.0189     -5159.635       3025.0853      59921.693      91.117392    
     26920   1076.9781     -5372.9224     -5159.2345      3120.1178      59902.617      91.117746    
     26930   1082.1646     -5373.5021     -5158.7851      3111.3375      59884.491      91.115602    
     26940   1104.7226     -5377.496      -5158.3032      2865.9129      59867.299      91.108046    
     26950   1123.0678     -5380.6904     -5157.8577      2660.1955      59850.727      91.097143    
     26960   1118.4812     -5379.4373     -5157.5146      2775.1499      59834.598      91.088769    
     26970   1105.3288     -5376.5969     -5157.2839      3005.8295      59819.091      91.089499    
     26980   1101.286      -5375.64       -5157.1291      3158.0354      59804.523      91.103959    
     26990   1109.3144     -5377.1418     -5157.038       3137.4783      59791.094      91.132883    
     27000   1118.2033     -5378.9169     -5157.0493      3125.4936      59778.805      91.173899    
     27010   1110.6108     -5377.5458     -5157.1847      3240.9704      59767.626      91.222156    
     27020   1113.3137     -5378.3397     -5157.4423      3241.5702      59757.656      91.272167    
     27030   1135.5922     -5383.1737     -5157.8559      3051.0301      59748.883      91.32077     
     27040   1157.845      -5388.2505     -5158.5174      2772.5216      59740.992      91.368396    
     27050   1171.5099     -5391.9613     -5159.517       2595.417       59733.513      91.417849    
     27060   1170.8315     -5393.2013     -5160.8916      2531.5888      59726.199      91.470855    
     27070   1154.0957     -5391.5398     -5162.5507      2684.3589      59719.067      91.526102    
     27080   1126.0162     -5387.7122     -5164.2944      3019.3459      59712.348      91.581966    
     27090   1099.2045     -5383.9885     -5165.8906      3323.339       59706.363      91.638041    
     27100   1089.7132     -5383.444      -5167.2293      3435.4224      59701.312      91.694542    
     27110   1091.8967     -5384.9824     -5168.3345      3384.3542      59697.074      91.752186    
     27120   1079.987      -5383.5454     -5169.2605      3450.1428      59693.397      91.811964    
     27130   1058.0484     -5379.9485     -5170.0165      3564.2228      59690.27       91.874363    
     27140   1046.7324     -5378.2932     -5170.6065      3585.824       59687.863      91.938952    
     27150   1044.5565     -5378.3038     -5171.0489      3545.3416      59686.278      92.005296    
     27160   1043.3444     -5378.38       -5171.3655      3482.3678      59685.454      92.071422    
     27170   1050.3407     -5379.9814     -5171.5788      3394.9954      59685.19       92.133583    
     27180   1063.0194     -5382.6456     -5171.7273      3118.111       59685.226      92.188712    
     27190   1070.1415     -5384.1819     -5171.8505      2830.5305      59685.285      92.237219    
     27200   1076.091      -5385.4885     -5171.9767      2528.4956      59685.267      92.282569    
     27210   1082.2138     -5386.86       -5172.1333      2203.5841      59685.214      92.329786    
     27220   1080.4809     -5386.7227     -5172.3398      1927.1213      59685.088      92.383629    
     27230   1068.4987     -5384.5931     -5172.5877      1863.9647      59684.732      92.447122    
     27240   1054.7144     -5382.1172     -5172.8467      1854.5875      59684.07       92.522216    
     27250   1043.033      -5380.0232     -5173.0705      1845.1896      59683.042      92.607695    
     27260   1035.0559     -5378.5986     -5173.2287      1858.3474      59681.595      92.698782    
     27270   1033.6871     -5378.3954     -5173.2971      1890.0737      59679.715      92.79101     
     27280   1038.0045     -5379.2267     -5173.2717      1943.3865      59677.384      92.88185     
     27290   1043.7645     -5380.2587     -5173.1608      2062.9916      59674.558      92.970315    
     27300   1055.2463     -5382.3611     -5172.9851      2177.1644      59671.196      93.056613    
     27310   1067.7104     -5384.6257     -5172.7767      2361.9203      59667.337      93.141788    
     27320   1068.647      -5384.6034     -5172.5685      2720.9703      59663.238      93.228574    
     27330   1072.9365     -5385.2673     -5172.3814      3004.2986      59659.313      93.31957     
     27340   1084.1725     -5387.3445     -5172.2291      3156.7789      59655.829      93.415784    
     27350   1094.4908     -5389.3151     -5172.1524      3120.4479      59652.881      93.516944    
     27360   1103.012      -5391.0542     -5172.2008      3038.596       59650.523      93.621408    
     27370   1095.2405     -5389.7117     -5172.4003      3001.3518      59648.679      93.726596    
     27380   1076.4266     -5386.3187     -5172.7403      2985.8592      59647.124      93.830617    
     27390   1064.9077     -5384.4587     -5173.1658      2895.5935      59645.63       93.93108     
     27400   1063.3589     -5384.6356     -5173.65        2686.9625      59643.934      94.023924    
     27410   1057.4483     -5383.9973     -5174.1844      2603.1574      59641.768      94.105982    
     27420   1036.8827     -5380.4722     -5174.7398      2787.1864      59639.066      94.176951    
     27430   1015.1887     -5376.6771     -5175.2492      2975.779       59635.989      94.238422    
     27440   1008.5181     -5375.7528     -5175.6484      2965.1478      59632.755      94.292309    
     27450   1021.8667     -5378.681      -5175.928       2722.3319      59629.455      94.339805    
     27460   1043.2246     -5383.1257     -5176.135       2364.6108      59625.959      94.383049    
     27470   1046.4589     -5383.9457     -5176.3132      2221.7065      59622.061      94.425581    
     27480   1036.0255     -5382.0417     -5176.4795      2307.5706      59617.725      94.469869    
     27490   1024.8991     -5379.9606     -5176.6059      2415.4282      59613.097      94.514997    
     27500   1027.509      -5380.5359     -5176.6634      2358.0755      59608.297      94.557856    
     27510   1040.9931     -5383.2001     -5176.6521      2226.8789      59603.354      94.595969    
     27520   1052.4337     -5385.4259     -5176.608       2131.8453      59598.248      94.6286      
     27530   1061.0902     -5387.1006     -5176.5651      2108.1362      59592.949      94.656113    
     27540   1070.4207     -5388.9532     -5176.5664      2044.0829      59587.455      94.679899    
     27550   1078.2188     -5390.5836     -5176.6496      1992.4838      59581.763      94.700068    
     27560   1080.301      -5391.2051     -5176.8579      1973.6559      59575.863      94.7146      
     27570   1077.006      -5390.9103     -5177.2169      2029.5211      59569.694      94.721852    
     27580   1071.3906     -5390.3225     -5177.7433      2170.3151      59563.283      94.723251    
     27590   1058.3613     -5388.4131     -5178.419       2353.6106      59556.797      94.721775    
     27600   1043.4148     -5386.2426     -5179.2141      2528.5288      59550.452      94.721043    
     27610   1039.0631     -5386.2477     -5180.0827      2523.4062      59544.441      94.724808    
     27620   1048.0308     -5388.9565     -5181.0122      2396.2307      59538.67       94.735459    
     27630   1060.1483     -5392.3656     -5182.017       2223.252       59532.737      94.753496    
     27640   1064.3649     -5394.2922     -5183.107       2097.8881      59526.129      94.77823     
     27650   1060.3687     -5394.653      -5184.2606      2062.6646      59518.52       94.807228    
     27660   1050.221      -5393.7806     -5185.4018      2171.1341      59509.855      94.836528    
     27670   1036.4594     -5392.1125     -5186.4642      2306.5809      59500.306      94.862143    
[...]
     48200   909.29166     -5380.9113     -5200.4948     -268.36869      64156.099      206.51144    
     48210   902.6798      -5379.9261     -5200.8215     -427.96638      64199.657      206.65808    
     48220   897.70312     -5379.2985     -5201.1813     -607.87379      64240.31       206.7917     
     48230   894.99249     -5379.1545     -5201.5752     -776.71816      64276.893      206.91129    
     48240   892.48295     -5379.0941     -5202.0127     -904.99796      64308.299      207.01706    
     48250   888.31448     -5378.7642     -5202.5098     -994.85146      64333.692      207.11037    
     48260   885.57931     -5378.8037     -5203.0921     -1074.9288      64352.487      207.19217    
     48270   886.4284      -5379.6654     -5203.7853     -1161.2604      64364.19       207.26098    
     48280   888.88136     -5380.9929     -5204.6261     -1268.1268      64368.273      207.31318    
     48290   891.75612     -5382.583      -5205.6458     -1354.1842      64364.126      207.34475    
     48300   893.64484     -5384.1647     -5206.8527     -1386.9058      64351.265      207.35312    
     48310   890.95975     -5384.9839     -5208.2047     -1327.4458      64329.587      207.33745    
     48320   882.96576     -5384.7993     -5209.6063     -1125.7113      64299.606      207.2985     
     48330   872.43613     -5384.038      -5210.9341     -844.80112      64262.684      207.23987    
     48340   863.41367     -5383.392      -5212.0783     -578.47829      64220.677      207.1675     
     48350   858.88309     -5383.4044     -5212.9897     -350.57481      64175.374      207.08773    
     48360   859.75022     -5384.2496     -5213.6629     -191.19805      64128.278      207.00548    
     48370   865.5046      -5385.8584     -5214.1299     -102.98377      64080.424      206.92365    
     48380   874.02171     -5387.8539     -5214.4355     -71.568499      64032.413      206.84407    
     48390   880.65212     -5389.3579     -5214.6239     -59.087514      63984.501      206.76847    
     48400   881.43815     -5389.615      -5214.725      -4.4158038      63936.818      206.69865    
     48410   878.02699     -5388.962      -5214.7489      57.482294      63889.71       206.63666    
     48420   874.92588     -5388.2827     -5214.6849      93.66808       63843.57       206.58306    
     48430   873.49781     -5387.8422     -5214.5277      96.160383      63798.619      206.53587    
     48440   872.1439      -5387.313      -5214.2671      125.98368      63754.912      206.4921     
     48450   870.27874     -5386.5718     -5213.896       156.74102      63712.61       206.44977    
     48460   868.9476      -5385.8232     -5213.4116      191.80239      63671.904      206.40802    
     48470   872.80668     -5385.9869     -5212.8096      184.85599      63632.96       206.36717    
     48480   881.73756     -5387.0577     -5212.1084      152.1189       63595.741      206.3279     
     48490   891.48736     -5388.2307     -5211.3469      132.62926      63560.049      206.29102    
     48500   900.45995     -5389.2297     -5210.5656      137.22816      63525.731      206.25744    
     48510   909.37242     -5390.2478     -5209.8153      178.82002      63492.797      206.2279     
     48520   918.40273     -5391.3596     -5209.1354      210.75294      63461.449      206.2032     
     48530   923.80507     -5391.8595     -5208.5633      327.22519      63431.943      206.18342    
     48540   920.13935     -5390.6821     -5208.1133      521.2445       63404.948      206.16975    
     48550   911.83087     -5388.6866     -5207.7663      753.98411      63381.629      206.16587    
     48560   905.61747     -5387.1804     -5207.4929      940.72785      63363.336      206.17734    
     48570   901.62934     -5386.1569     -5207.2607      1063.7572      63351.128      206.20956    
     48580   900.29992     -5385.6841     -5207.0517      1148.6014      63345.705      206.26786    
     48590   903.05352     -5386.0426     -5206.8639      1204.5665      63347.541      206.35697    
     48600   910.11931     -5387.2848     -5206.7041      1159.3811      63356.85       206.47922    
     48610   918.06601     -5388.754      -5206.5966      1063.8587      63373.308      206.63255    
     48620   920.29032     -5389.1682     -5206.5694      1000.0757      63396.306      206.81156    
     48630   914.31677     -5388.0366     -5206.6231      1016.6277      63425.408      207.01083    
     48640   904.78107     -5386.2565     -5206.7349      1042.0414      63460.588      207.22666    
     48650   896.38252     -5384.7206     -5206.8655      966.85474      63501.884      207.4555     
     48660   891.26764     -5383.8175     -5206.9772      846.63647      63548.86       207.69284    
     48670   890.81754     -5383.8032     -5207.0523      628.10482      63600.667      207.9348     
     48680   895.07506     -5384.6799     -5207.0842      357.49515      63655.925      208.17863    
     48690   901.9043      -5386.0382     -5207.0875      37.916466      63712.874      208.42205    
     48700   908.5831      -5387.3679     -5207.092      -228.65273      63769.558      208.66176    
     48710   911.85829     -5388.0535     -5207.1277     -449.52093      63824.268      208.89418    
     48720   911.99349     -5388.1611     -5207.2086     -601.97429      63875.623      209.11602    
     48730   912.14122     -5388.3267     -5207.3448     -676.15181      63922.686      209.32536    
     48740   912.27687     -5388.557      -5207.5482     -721.04521      63964.979      209.52186    
     48750   910.48439     -5388.4819     -5207.8288     -663.18281      64002.328      209.70599    
     48760   904.85112     -5387.7378     -5208.2024     -547.40006      64035.101      209.87927    
     48770   895.08609     -5386.2722     -5208.6743     -349.53522      64064.11       210.04309    
     48780   884.01811     -5384.6448     -5209.2429     -117.18955      64090.637      210.19854    
     48790   876.87262     -5383.8926     -5209.9085      34.027183      64116.161      210.34654    
     48800   877.7025      -5384.8286     -5210.6799      38.652136      64141.635      210.48702    
     48810   882.1064      -5386.6106     -5211.5881     -60.709142      64167.076      210.61912    
     48820   883.00645     -5387.8473     -5212.6462     -126.66546      64191.926      210.74214    
     48830   878.96625     -5388.2347     -5213.8352     -189.29548      64215.742      210.85682    
     48840   874.33037     -5388.5588     -5215.0792     -291.5196       64238.111      210.96342    
     48850   873.43904     -5389.5978     -5216.295      -445.58426      64258.407      211.06074    
     48860   874.13719     -5390.8619     -5217.4206     -592.16222      64275.707      211.14614    
     48870   872.95408     -5391.6222     -5218.4156     -676.72735      64289.102      211.21692    
     48880   869.79917     -5391.8342     -5219.2536     -716.05814      64298.041      211.27188    
     48890   868.08577     -5392.1682     -5219.9276     -787.17122      64302.264      211.3113     
     48900   868.53964     -5392.7692     -5220.4385     -879.43416      64301.368      211.33518    
     48910   868.53051     -5393.1372     -5220.8083     -968.70454      64294.801      211.34281    
     48920   865.94178     -5392.8549     -5221.0396     -999.59648      64282.071      211.3332     
     48930   861.44762     -5392.0605     -5221.137      -1003.3853      64262.975      211.30616    
     48940   856.66995     -5391.0692     -5221.0936     -1008.2844      64237.488      211.26185    
     48950   852.86928     -5390.1134     -5220.8919     -1017.5493      64205.611      211.20067    
     48960   852.23757     -5389.6216     -5220.5254     -1005.1389      64167.355      211.12374    
     48970   855.11351     -5389.6545     -5219.9878     -960.48449      64122.813      211.03225    
     48980   860.26698     -5389.979      -5219.2897     -872.18909      64072.32       210.92724    
     48990   866.3737      -5390.358      -5218.4571     -769.4075       64016.468      210.80947    
     49000   871.84203     -5390.5133     -5217.5274     -612.44039      63955.991      210.68004    
     49010   875.6833      -5390.2958     -5216.5477     -404.96714      63891.946      210.54168    
     49020   878.85916     -5389.9417     -5215.5634     -201.90747      63825.656      210.39877    
     49030   883.6736      -5389.9475     -5214.614       6.2040129      63758.472      210.25683    
     49040   888.42744     -5390.0101     -5213.7334      172.64206      63691.711      210.1215     
     49050   890.13127     -5389.5579     -5212.9431      363.55354      63626.506      209.99735    
     49060   889.13941     -5388.6559     -5212.2379      561.95413      63564.041      209.88947    
     49070   887.95225     -5387.788      -5211.6055      721.11676      63505.526      209.80308    
     49080   887.15396     -5387.0497     -5211.0256      901.82777      63451.996      209.74179    
     49090   885.86049     -5386.2458     -5210.4784      1076.2054      63404.546      209.70747    
     49100   886.33524     -5385.8108     -5209.9492      1196.3432      63364.182      209.70079    
     49110   891.89728     -5386.4044     -5209.4392      1243.8954      63331.588      209.72173    
     49120   900.89132     -5387.707      -5208.9573      1202.6546      63306.977      209.76949    
     49130   907.31622     -5388.5508     -5208.5262      1180.9288      63290.103      209.84181    
     49140   909.41851     -5388.6013     -5208.1597      1180.0244      63280.774      209.93612    
     49150   911.98831     -5388.8108     -5207.8592      1150.9731      63278.917      210.05054    
     49160   919.08476     -5389.9904     -5207.6308      1051.4052      63284.245      210.1834     
     49170   927.00441     -5391.4215     -5207.4906      944.01428      63296.109      210.33275    
     49180   929.58019     -5391.9012     -5207.4592      883.58599      63313.863      210.49699    
     49190   926.43039     -5391.3644     -5207.5473      889.35799      63337.094      210.67512    
     49200   920.32898     -5390.3481     -5207.7417      1005.4326      63365.818      210.8673     
     49210   911.16846     -5388.8097     -5208.0208      1144.1535      63400.693      211.07584    
     49220   898.23781     -5386.5751     -5208.3518      1259.3965      63442.536      211.30446    
     49230   886.62979     -5384.6056     -5208.6855      1293.6297      63492.028      211.55684    
     49240   882.65129     -5384.1086     -5208.978       1164.3232      63549.277      211.83304    
     49250   886.21364     -5385.0439     -5209.2065      885.77206      63613.408      212.12823    
     49260   892.84456     -5386.5319     -5209.3787      548.29272      63682.646      212.43424    
     49270   898.60246     -5387.8081     -5209.5125      198.79192      63754.807      212.74186    
     49280   900.60175     -5388.3215     -5209.6292     -92.026359      63827.637      213.04271    
     49290   897.05375     -5387.7349     -5209.7466     -244.42212      63899.287      213.33113    
     49300   888.99704     -5386.2404     -5209.8506     -310.03217      63968.719      213.60573    
     49310   881.38287     -5384.7986     -5209.9196     -351.54438      64035.439      213.86766    
     49320   876.91727     -5383.92       -5209.9271     -369.32394      64099.19       214.1193     
     49330   873.6742      -5383.1924     -5209.8429     -393.2552       64159.828      214.36362    
     49340   870.55501     -5382.3787     -5209.6481     -404.37035      64217.218      214.60294    
     49350   867.94149     -5381.5247     -5209.3126     -397.45259      64271.324      214.8381     
     49360   867.30962     -5380.89       -5208.8034     -420.91482      64322.179      215.06804    
     49370   870.20739     -5380.7501     -5208.0885     -455.80962      64369.693      215.29029    
     49380   875.45022     -5380.8607     -5207.1589     -543.54579      64413.612      215.50188    
     49390   880.81991     -5380.7955     -52CHGNet v0.3.0 initialized with 412,525 parameters
CHGNet will run on cuda:0
CHGNet will run on cuda:0
06.0282     -653.10966      64453.418      215.69982    
     49400   886.4873      -5380.6399     -5204.7481     -721.50726      64488.502      215.88169    
     49410   892.2966      -5380.4429     -5203.3984     -795.70783      64518.429      216.0466     
     49420   895.4138      -5379.7386     -5202.0757     -855.73995      64542.79       216.19421    
     49430   893.71613     -5378.1844     -5200.8584     -841.62184      64561.326      216.32402    
     49440   890.09763     -5376.3918     -5199.7837     -788.71613      64574.18       216.43562    
     49450   889.05951     -5375.2559     -5198.8537     -757.28052      64581.714      216.52849    
     49460   890.31735     -5374.7014     -5198.0497     -686.06955      64584.254      216.60221    
     49470   893.63445     -5374.663      -5197.3531     -649.63035      64582.269      216.65697    
     49480   902.04965     -5375.7323     -5196.7527     -638.42473      64576.077      216.69241    
     49490   913.32556     -5377.4703     -5196.2535     -676.59245      64565.79       216.70843    
     49500   920.18645     -5378.4459     -5195.8678     -679.43982      64551.278      216.70547    
     49510   920.11613     -5378.168      -5195.6037     -593.49677      64532.601      216.68504    
     49520   916.00626     -5377.1902     -5195.4414     -400.22518      64510.404      216.65017    
     49530   911.15767     -5376.1406     -5195.3539     -229.96461      64485.89       216.60564    
     49540   909.89035     -5375.8502     -5195.3149     -121.17139      64460.171      216.55557    
     49550   912.41444     -5376.3512     -5195.3151     -99.266113      64433.956      216.50227    
     49560   916.02733     -5377.118      -5195.3651     -114.40809      64407.419      216.44605    
     49570   919.00536     -5377.8256     -5195.4817     -109.28178      64380.468      216.38635    
     49580   919.98915     -5378.2119     -5195.6729     -66.057371      64353.175      216.32374    
     49590   919.23563     -5378.335      -5195.9454     -55.045532      64325.767      216.26033    
     49600   918.07312     -5378.4569     -5196.2981     -31.392184      64298.309      216.19804    
     49610   918.01079     -5378.8762     -5196.7297     -0.74146361     64270.948      216.13887    
     49620   918.32816     -5379.4537     -5197.2443      19.340706      64243.887      216.08467    
     49630   917.79431     -5379.9467     -5197.8431      8.2931924      64217.231      216.03647    
     49640   917.26137     -5380.5179     -5198.5202     -42.332314      64190.855      215.99372    
     49650   915.48242     -5380.9193     -5199.2745     -46.934944      64164.484      215.95465    
     49660   908.77577     -5380.3967     -5200.0826     -34.538126      64138.064      215.91747    
     49670   901.37391     -5379.7518     -5200.9063     -16.496837      64111.67       215.88002    
     49680   901.91992     -5380.6677     -5201.7139     -68.92816       64085.376      215.84014    
     49690   906.86749     -5382.4384     -5202.5029     -171.35082      64058.848      215.79547    
     49700   905.95743     -5383.0316     -5203.2767     -172.55838      64031.507      215.74493    
     49710   897.92285     -5382.1765     -5204.0158     -56.79008       64003.359      215.68973    
     49720   888.34994     -5380.9424     -5204.681       91.639042      63975.114      215.6331     
     49730   883.59445     -5380.5597     -5205.2419      149.09794      63947.638      215.57894    
     49740   883.85257     -5381.0636     -5205.6946      154.8324       63921.324      215.53058    
     49750   887.5209      -5382.1469     -5206.05        146.37392      63896.228      215.49014    
     49760   894.67504     -5383.8483     -5206.3319      72.762435      63872.222      215.45725    
     49770   901.95765     -5385.538      -5206.5766     -40.030274      63848.836      215.42963    
     49780   904.5905      -5386.2993     -5206.8156     -132.54055      63825.355      215.40507    
     49790   901.41084     -5385.9042     -5207.0514     -144.87365      63801.234      215.38277    
     49800   894.92927     -5384.8407     -5207.2739     -132.3679       63776.378      215.36304    
     49810   888.30606     -5383.7142     -5207.4616     -75.195571      63750.886      215.34583    
     49820   882.7326      -5382.7368     -5207.59       -33.519385      63725.054      215.33076    
     49830   879.1192      -5382.0758     -5207.646       22.207056      63699.184      215.31586    
     49840   877.72109     -5381.7755     -5207.6231      105.27387      63673.638      215.29856    
     49850   877.36147     -5381.5939     -5207.5128      257.95509      63648.943      215.2772     
     49860   877.33306     -5381.3932     -5207.3177      410.59302      63626.003      215.25333    
     49870   882.12992     -5382.0681     -5207.0409      529.10952      63605.786      215.23063    
     49880   894.54891     -5384.191      -5206.6997      536.42902      63588.979      215.21243    
     49890   907.26854     -5386.3579     -5206.3428      533.70743      63575.679      215.19952    
     49900   912.83629     -5387.1324     -5206.0127      609.48618      63565.894      215.19139    
     49910   912.1553      -5386.7197     -5205.7351      693.28556      63560.012      215.18826    
     49920   908.25666     -5385.717      -5205.5059      811.67513      63558.588      215.19211    
     49930   903.58407     -5384.5979     -5205.3139      873.58355      63562.29       215.20748    
     49940   901.11396     -5383.9314     -5205.1375      853.56442      63571.481      215.23956    
     49950   900.5662      -5383.6494     -5204.9642      791.43655      63586.036      215.29159    
     49960   899.55843     -5383.27       -5204.7847      675.56906      63605.544      215.36453    
     49970   899.31498     -5383.0309     -5204.5939      511.5141       63629.275      215.45684    
     49980   901.10144     -5383.1726     -5204.3812      352.52917      63656.227      215.5645     
     49990   902.85147     -5383.2854     -5204.1467      208.84315      63685.402      215.68243    
     50000   904.41859     -5383.3304     -5203.8808      51.811226      63715.85       215.80625    
Loop time of 4937.02 on 1 procs for 20000 steps with 1536 atoms

Performance: 0.350 ns/day, 68.570 hours/ns, 4.051 timesteps/s, 6.222 katom-step/s
138.1% CPU use with 1 MPI tasks x 1 OpenMP threads

MPI task timing breakdown:
Section |  min time  |  avg time  |  max time  |%varavg| %total
---------------------------------------------------------------
Pair    | 4871.5     | 4871.5     | 4871.5     |   0.0 | 98.67
Bond    | 0.0074515  | 0.0074515  | 0.0074515  |   0.0 |  0.00
Neigh   | 4.3866     | 4.3866     | 4.3866     |   0.0 |  0.09
Comm    | 0.62071    | 0.62071    | 0.62071    |   0.0 |  0.01
Output  | 58.824     | 58.824     | 58.824     |   0.0 |  1.19
Modify  | 1.5341     | 1.5341     | 1.5341     |   0.0 |  0.03
Other   |            | 0.1504     |            |       |  0.00

Nlocal:           1536 ave        1536 max        1536 min
Histogram: 1 0 0 0 0 0 0 0 0 0
Nghost:           2255 ave        2255 max        2255 min
Histogram: 1 0 0 0 0 0 0 0 0 0
Neighs:              0 ave           0 max           0 min
Histogram: 1 0 0 0 0 0 0 0 0 0
FullNghs:        36800 ave       36800 max       36800 min
Histogram: 1 0 0 0 0 0 0 0 0 0

Total # of neighbors = 36800
Ave neighs/atom = 23.958333
Ave special neighs/atom = 0
Neighbor list builds = 2000
Dangerous builds = 2000
System init for write_data ...
System init for write_restart ...
Total wall time: 2:04:44
