LAMMPS (29 Sep 2021 - Update 3)
OMP_NUM_THREADS environment is not set. Defaulting to 1 thread. (src/comm.cpp:98)
  using 1 OpenMP thread(s) per MPI task
units	metal
atom_style	full

read_data	structureA.data
Reading data file ...
  orthogonal box = (1.3126687 1.3195570 2.6243092) to (17.178710 17.171821 34.358448)
  2 by 2 by 4 MPI processor grid
  reading atoms ...
  432 atoms
  reading velocities ...
  432 velocities
Finding 1-2 1-3 1-4 neighbors ...
  special bond factors lj:    0        0        0       
  special bond factors coul:  0        0        0       
     0 = max # of 1-2 neighbors
     0 = max # of 1-3 neighbors
     0 = max # of 1-4 neighbors
     1 = max # of special neighbors
  special bonds CPU = 0.001 seconds
  read_data CPU = 0.017 seconds

pair_style	quip
pair_coeff	* * /ocean/projects/cts180021p/wuziqi/clease/mint-PD/PhaseDiagram-Clease/Liquid/GAP_potential/gap_LiKCl.xml "Potential xml_label=GAP_2021_9_27_0_1_17_37_618" 17 19 3

neighbor	0.3 bin
neigh_modify	delay 10

timestep	0.001
compute	msd all msd
thermo_style	custom step temp pe etotal press vol c_msd[4]
thermo	10
dump	1 all custom 10 xyz-melt.dump type id x y z
dump	2 all custom 10 force-melt.dump type id fx fy fz

fix     1 all npt temp 300 2000 $(100.0*dt) z 1.01325 1.01325 $(1000.0*dt) couple none
fix     1 all npt temp 300 2000 0.10000000000000000555 z 1.01325 1.01325 $(1000.0*dt) couple none
fix     1 all npt temp 300 2000 0.10000000000000000555 z 1.01325 1.01325 1 couple none
run     5000
Neighbor list info ...
  update every 1 steps, delay 10 steps, check yes
  max neighbors/atom: 2000, page size: 100000
  master list distance cutoff = 6.22
  ghost atom cutoff = 6.22
  binsize = 3.11, bins = 6 6 11
  1 neighbor lists, perpetual/occasional/extra = 1 0 0
  (1) pair quip, perpetual
      attributes: full, newton on
      pair build: full/bin
      stencil: full/bin/3d
      bin: standard
Per MPI rank memory allocation (min/avg/max) = 8.897 | 8.898 | 8.899 Mbytes
Step Temp PotEng TotEng Press Volume c_msd[4] 
       0    306.18835   -4393.3083   -4376.2502    465.06622    7981.5381            0 
      10    308.19897   -4393.4236   -4376.2535   -7.4255237    7981.4539 0.0024483481 
      20    306.26913   -4393.3245   -4376.2619   -3.5185006     7981.134 0.0088138174 
      30    307.85702   -4393.4219   -4376.2708    577.80098    7980.5636  0.017081933 
      40    304.55809   -4393.2438   -4376.2765    1436.0197    7979.8437  0.025474336 
      50    292.47628   -4392.5646   -4376.2704    2662.5419    7979.1457   0.03259747 
      60    286.09939   -4392.1782   -4376.2393    3594.8134    7978.8401  0.037307615 
      70    294.77828   -4392.5957   -4376.1733    3695.4656    7979.3365  0.039416917 
      80    305.56903   -4393.0928   -4376.0692    3035.1039    7980.7039  0.040064974 
      90     302.1417   -4392.7625   -4375.9298    2649.1995    7982.7647  0.040472675 
     100    299.84406   -4392.4591   -4375.7545    1956.1883    7985.4972  0.040592459 
     110    310.87328    -4392.853   -4375.5339    917.46842    7988.6985  0.040311445 
     120    311.00253   -4392.6008   -4375.2745    511.71722    7991.7649  0.040348052 
     130    307.61747   -4392.1408   -4375.0031    546.13308    7994.0528  0.040518847 
     140     313.4852    -4392.199   -4374.7343     266.6715    7995.0639    0.0400384 
     150    317.97804   -4392.2021   -4374.4872     3.062351    7994.3908  0.038454132 
     160    320.83148   -4392.1513   -4374.2774     165.7493     7991.743  0.035909083 
     170    315.55065   -4391.6796   -4374.0999    910.34438    7987.1913  0.034077973 
     180    315.30165   -4391.4985   -4373.9326    2079.4568    7981.4569  0.033755074 
     190    320.01199   -4391.5821   -4373.7539    3752.8333     7975.683  0.034634307 
     200    319.65671    -4391.369   -4373.5606    5215.6076    7971.1327  0.036173643 
     210    318.06285   -4391.0789   -4373.3593    5838.2415    7968.8362  0.037586577 
     220    324.27786   -4391.2166   -4373.1507    5485.6519    7969.2368  0.038422668 
     230    331.23812   -4391.3821   -4372.9285    4430.1717     7972.111  0.038807954 
     240    333.79201   -4391.2846   -4372.6887    3053.5378    7976.7563  0.039012459 
     250    333.41557   -4391.0025   -4372.4276    2080.1504    7982.1685  0.039311015 
     260    331.81704   -4390.6322   -4372.1463    1276.5574    7987.3324  0.039823367 
     270    330.35451   -4390.2532   -4371.8488    580.80423    7991.3552  0.040739109 
     280    341.73363   -4390.5788   -4371.5404    95.249571    7993.6586  0.042104487 
     290    350.44507   -4390.7491   -4371.2254    284.93516    7994.0758  0.043768345 
     300    342.08479   -4389.9758   -4370.9179    1553.5252    7992.7736  0.045209274 
     310    336.49935   -4389.3601   -4370.6134    2993.3993    7990.3345   0.04576647 
     320    343.75808   -4389.4445   -4370.2933    3901.0478    7987.6603   0.04575473 
     330    368.13943   -4390.4626   -4369.9531    4379.7059    7985.4755  0.045180661 
     340    381.92558   -4390.8832   -4369.6057    5008.7937    7983.9389  0.043801565 
     350    376.24521   -4390.2344   -4369.2733    6061.8108    7983.0522  0.041931603 
     360    369.06227   -4389.5154   -4368.9545    6770.6931    7983.0998   0.04047966 
     370    366.30823   -4389.0436   -4368.6361    6346.6478     7984.516  0.039955622 
     380    359.75716    -4388.351   -4368.3085    5711.2485    7987.2606  0.040356582 
     390     353.8752   -4387.6791   -4367.9644    4778.4941    7990.6293  0.041615298 
     400    363.85573   -4387.8666   -4367.5958    3448.5816    7993.7474  0.043096588 
     410    381.00437     -4388.43   -4367.2038    2353.7194    7996.1419  0.044242211 
     420    390.09073    -4388.538   -4366.8056    2230.0475    7997.7808  0.044744596 
     430     382.4174   -4387.7222   -4366.4173     2905.023    7998.7938  0.045118839 
     440    375.71906   -4386.9703   -4366.0386    3578.1992    7999.5148  0.045819509 
     450    378.33715   -4386.7295   -4365.6519    4164.4856    8000.3201  0.046795139 
     460    390.51896   -4387.0049   -4365.2486    4486.8821    8001.1831  0.047983289 
     470    416.55429   -4388.0344   -4364.8277    4566.3437     8001.567  0.049398721 
     480    429.64989   -4388.3416   -4364.4054    5159.5867      8000.93  0.051187008 
     490    409.61157   -4386.8269    -4364.007    7306.3305    7999.2065  0.052585614 
     500    389.46602   -4385.3225   -4363.6249     8791.145     7996.997  0.052033111 
     510    392.65753   -4385.1014    -4363.226    8759.5191    7995.0913   0.04946697 
     520    407.47513   -4385.4975   -4362.7966    7884.3877    7994.1731   0.04602402 
     530     419.1499    -4385.702   -4362.3507    6903.9975    7994.6888  0.042761767 
     540    427.21198   -4385.7016   -4361.9011    5726.4496    7996.3576  0.040523794 
     550    432.78029   -4385.5623   -4361.4516    5060.3942     7998.298  0.039676806 
     560    438.29345   -4385.4226   -4361.0048    4914.5826    7999.9787  0.040163735 
     570    448.19091   -4385.5281   -4360.5589    4629.1931    8001.2201  0.041483861 
     580    449.71735   -4385.1697   -4360.1154    4592.7543    8001.7129  0.043481981 
     590    435.98381    -4383.972   -4359.6828    5090.0309    8001.3387  0.045509058 
     600    422.31134   -4382.7804    -4359.253    5838.6414    8000.4249  0.046344345 
     610    422.49433   -4382.3446   -4358.8069    6716.8028    7999.4321  0.045883188 
     620    450.44849   -4383.4242   -4358.3292    7270.3023    7998.6513  0.044484256 
     630    470.92989   -4384.0633   -4357.8273    8168.2676    7998.2739  0.043257568 
     640    459.14254   -4382.9203    -4357.341    9116.3373     7998.674  0.043471312 
     650    453.15323   -4382.1209   -4356.8753    8896.3147    8000.1563  0.045142942 
     660    477.49836   -4383.0008   -4356.3989    7429.9274    8002.6747  0.047630241 
     670    489.36657   -4383.1698   -4355.9066    5898.6217    8005.7263  0.050934731 
     680    485.07773   -4382.4489   -4355.4247    5346.2408    8008.5048  0.053450555 
     690    489.84014   -4382.2407   -4354.9512    5169.2145    8010.3696  0.053975762 
     700    498.85578   -4382.2689   -4354.4771    5390.4792    8011.0921  0.053744248 
     710    489.01396   -4381.2529   -4354.0094     6604.393     8010.894    0.0541397 
     720    468.68856   -4379.6604   -4353.5492    7941.4996     8010.336    0.0544263 
     730    479.91119   -4379.8112   -4353.0748    8042.0886    8010.0599  0.053232115 
     740    505.50989   -4380.7281   -4352.5656    7665.8966    8010.1184  0.051449029 
     750    526.22383   -4381.3602   -4352.0437    7506.9807    8010.0923  0.049923154 
     760    532.30479   -4381.1894   -4351.5341    8217.8099    8009.7117  0.049271798 
     770    509.64948   -4379.4449   -4351.0517    10292.012    8009.4031  0.050116467 
     780    502.39189   -4378.5733   -4350.5845    10995.519     8009.922  0.051539704 
     790     527.2749   -4379.4706   -4350.0955    10297.031    8011.2617   0.05315165 
     800    537.43782   -4379.5312   -4349.5899    10124.333    8013.0793  0.055314757 
     810    517.67869   -4377.9401   -4349.0996    11012.137    8015.4464  0.057678773 
     820    498.75942   -4376.4076   -4348.6211    12276.441     8018.597  0.059109001 
     830    500.89446   -4376.0288   -4348.1234    12148.317    8022.4949  0.058910312 
     840     539.5692   -4377.6427   -4347.5827    10270.379    8026.6731  0.057201668 
     850    572.19115   -4378.8884    -4347.011     8296.794    8030.4829  0.055552207 
     860    581.82211   -4378.8737   -4346.4597    7716.3302    8033.2802  0.054716534 
     870     577.5719   -4378.1273   -4345.9501    8062.9877    8034.6737  0.054628664 
     880    577.00771   -4377.6181   -4345.4724    8620.8323    8034.8906  0.055432079 
     890    563.28207   -4376.3912   -4345.0102    9828.3958    8034.8419   0.05743133 
     900    542.54955   -4374.7818   -4344.5557    10748.019    8035.5423   0.06010008 
     910    553.03303   -4374.8912   -4344.0812    10160.534    8036.9645  0.062425051 
     920    574.79462   -4375.5923   -4343.5698    9250.9393    8037.9546  0.063537861 
     930    577.66145   -4375.2321   -4343.0499    9580.3762    8037.4994  0.063389147 
     940    564.05193   -4373.9667   -4342.5427    10757.874    8035.3725  0.062882162 
     950    565.47538    -4373.539   -4342.0357    11088.772     8031.801  0.061899924 
     960    589.52714   -4374.3482    -4341.505    11139.982    8027.2323  0.060203567 
     970    608.91837   -4374.8802   -4340.9567    12076.662    8022.4005  0.058605236 
     980    624.74706   -4375.2222   -4340.4168     13182.93    8018.0377  0.057527947 
     990    610.86539    -4373.935    -4339.903     14636.69    8014.6455  0.056702288 
    1000     599.4278   -4372.8107   -4339.4159    15696.322    8012.7684  0.055624044 
    1010    616.10387    -4373.253   -4338.9292    15718.389    8012.7543  0.055379698 
    1020    629.00742   -4373.4799   -4338.4372     15033.52    8014.5044  0.056920586 
    1030    633.71577   -4373.2624   -4337.9574    14393.625    8017.8171  0.059663291 
    1040    626.54108   -4372.3981   -4337.4928    14386.828    8022.6309  0.062851507 
    1050    619.25365   -4371.5298   -4337.0305    13795.257    8028.5758  0.065282817 
    1060    635.13877   -4371.9238   -4336.5395    12030.397    8034.2792  0.065926099 
    1070    668.35632   -4373.2665   -4336.0316    10306.579    8038.0184  0.064790564 
    1080    672.19286   -4372.9982   -4335.5496    10487.568    8039.1301  0.063854517 
    1090    643.44005   -4370.9573   -4335.1105    13176.538    8038.4852  0.064233022 
    1100    620.66819   -4369.2629   -4334.6848     15834.28    8038.1735  0.065067563 
    1110    622.09142    -4368.904   -4334.2466    16392.582    8040.1452  0.065372539 
    1120    643.39229   -4369.6238   -4333.7797    14531.508    8044.9181  0.064873655 
    1130    658.11268   -4369.9439   -4333.2797    13749.555    8051.4963  0.064523609 
    1140    649.05225   -4368.9263   -4332.7668    14617.831    8058.5648  0.065354868 
    1150    636.94412   -4367.7355   -4332.2506    15400.803    8065.2522   0.06733693 
    1160    673.50881   -4369.2308   -4331.7089    14419.181    8070.7631  0.069056549 
    1170    727.36454    -4371.673   -4331.1507    12851.785    8074.2561  0.070030546 
    1180    716.83965   -4370.5795   -4330.6435    13460.136    8075.3772  0.071969769 
    1190    679.88473   -4368.0856   -4330.2085     14669.61    8074.4374  0.074877664 
    1200    664.90965   -4366.8359   -4329.7931    15244.266    8071.9325  0.077141548 
    1210    668.10404   -4366.5789   -4329.3581    15375.844    8068.3805  0.077831523 
    1220    665.25748   -4365.9607   -4328.8985     15695.65    8063.9091  0.077280434 
    1230     670.1197   -4365.7467   -4328.4136    16135.612    8058.5827  0.076428731 
    1240    687.79867   -4366.2087   -4327.8906    16565.491    8053.1598  0.075627207 
    1250    712.94723   -4367.0627   -4327.3436    16845.086    8049.0859  0.075185422 
    1260    728.81267   -4367.4136   -4326.8106    16747.176    8047.2629  0.075236308 
    1270    718.76186   -4366.3579   -4326.3149    17033.312    8047.5341  0.075203812 
    1280    702.98192   -4365.0153   -4325.8514    16748.182    8049.6136  0.074084032 
    1290    681.25601   -4363.3464   -4325.3929    17063.106    8053.2993  0.072562202 
    1300    701.68442   -4363.9989   -4324.9073    16448.865    8058.0048  0.070780558 
    1310    751.35073   -4366.2336    -4324.375    14981.012    8062.4762  0.069515403 
    1320    773.45392   -4366.9394   -4323.8494    14827.125     8065.301  0.068839127 
    1330    739.85921   -4364.6027   -4323.3843    17030.974    8065.8429  0.068630709 
    1340    730.95092    -4363.681   -4322.9589     18481.78    8064.2953    0.0686205 
    1350    781.01633   -4366.0445   -4322.5332    18008.819    8060.7161  0.068415524 
    1360     789.3565   -4366.1071   -4322.1312    17787.619     8054.845  0.068220922 
    1370    734.30992   -4362.6764   -4321.7672    19414.204      8047.15  0.067819975 
    1380    738.13735   -4362.5175    -4321.395    19435.573    8038.9687  0.066472158 
    1390    770.65716   -4363.9151    -4320.981    18424.334    8031.2194  0.066038509 
    1400    759.50611   -4362.8633   -4320.5504     19554.13    8024.9676  0.067919202 
    1410    727.65332   -4360.6688   -4320.1304    22068.374    8021.9652  0.071156158 
    1420    753.25644   -4361.6798   -4319.7151    21360.511    8023.3625  0.073812068 
    1430    810.89073   -4364.4504   -4319.2747    18518.757    8028.4697  0.075392288 
    1440     823.5914   -4364.7266   -4318.8434     17686.01    8035.6642  0.077074572 
    1450    792.00809    -4362.587   -4318.4634     18572.45    8044.0129  0.079143901 
    1460    760.57237   -4360.4772   -4318.1049     19145.89    8053.0992  0.080444666 
    1470     769.1171   -4360.5699   -4317.7215     18420.75    8062.3295  0.081727317 
    1480    780.65169   -4360.7969   -4317.3059    17906.941    8071.1538  0.085146708 
    1490    762.57347    -4359.364   -4316.8802     18948.58     8079.579  0.090838966 
    1500    768.71472   -4359.2615   -4316.4355    18837.331    8087.9187  0.095710341 
    1510    783.81002   -4359.6104   -4315.9435    18235.924    8095.5238  0.097950283 
    1520    764.01656   -4357.9953   -4315.4311    18083.237    8100.9987  0.098264144 
    1530    769.34223   -4357.7775   -4314.9166    17752.943    8103.3092  0.096442579 
    1540    816.80745   -4359.8917   -4314.3865    16655.254    8102.2599  0.093520188 
    1550     878.7555   -4362.8181   -4313.8617    15531.523    8098.4701  0.090448042 
    1560    876.79367     -4362.25   -4313.4029    16813.903    8092.5843  0.088427404 
    1570    814.96299     -4358.42   -4313.0175    19883.706    8085.5986  0.088203059 
    1580    789.93669   -4356.6481   -4312.6399    21878.278    8079.3217  0.088586321 
    1590    801.76866   -4356.9009   -4312.2335    21510.176    8075.3505   0.08891538 
    1600    824.83071   -4357.7582   -4311.8059    20259.784    8073.5418  0.088901356 
    1610    850.04604   -4358.7237   -4311.3667    19932.683    8072.9609  0.088223653 
    1620    859.33813   -4358.8144   -4310.9397    20177.358    8073.7104  0.087415523 
    1630     865.8709   -4358.7837   -4310.5451    20964.074    8076.3861  0.087206261 
    1640    848.18277   -4357.4352    -4310.182    22117.158    8081.1391  0.088111668 
    1650    824.53363   -4355.7752   -4309.8395    23529.991    8087.9905  0.090068477 
    1660    831.72688   -4355.8217   -4309.4853    23466.634     8097.103   0.09243797 
    1670    839.45728   -4355.8572   -4309.0901    22502.369    8107.9264  0.094970133 
    1680    831.56555   -4354.9876   -4308.6602    21516.954    8119.4029  0.097801842 
    1690    830.99248   -4354.4971   -4308.2016     19840.65    8130.8844   0.10090872 
    1700    848.87177    -4354.998   -4307.7064     18358.98    8141.8866    0.1046302 
    1710    864.76482   -4355.3542   -4307.1772    17400.742    8151.5386   0.10968443 
    1720    843.69115   -4353.6482   -4306.6453    17589.592    8158.1361   0.11524347 
    1730    813.74011   -4351.4791   -4306.1447    18021.693    8160.0583   0.11891823 
    1740    841.46843   -4352.5331    -4305.654    17459.913    8156.9865   0.11905646 
    1750    894.68148   -4354.9959   -4305.1522    17264.944    8149.4583   0.11625336 
    1760    873.41884   -4353.3308   -4304.6717    20262.779    8138.3329   0.11323045 
    1770    841.39641   -4351.0739   -4304.1988    23545.823    8125.0836   0.11015302 
    1780     879.6873    -4352.698   -4303.6896    23576.647    8111.3172   0.10659031 
    1790    908.91723   -4353.7914   -4303.1546    23978.526     8097.927   0.10512713 
    1800    887.09624   -4352.0459   -4302.6248    26648.282    8085.9323   0.10670854 
    1810     863.8087   -4350.2318    -4302.108    28842.197    8077.1347   0.10903001 
    1820    879.97159   -4350.6301   -4301.6059    29325.508    8073.0024   0.10852329 
    1830    921.67884   -4352.4763   -4301.1285    27444.637    8074.0664     0.105946 
    1840    960.91964   -4354.2274   -4300.6935    24428.069    8079.7685   0.10537947 
    1850    974.22379   -4354.5764   -4300.3013    22296.823    8088.3598   0.10758317 
    1860    970.90527   -4354.0521   -4299.9618    21183.931    8097.9067   0.11035126 
    1870    948.17714   -4352.4939   -4299.6699    20885.786    8107.2481   0.11354684 
    1880     924.2653   -4350.8911   -4299.3993    20943.829    8115.5786   0.11702289 
    1890    878.62778   -4348.0743    -4299.125     21883.46     8122.199   0.11946887 
    1900    868.67092   -4347.2067    -4298.812    21944.565    8127.2372    0.1191027 
    1910    915.16379   -4349.4114   -4298.4266     20000.26    8130.5259   0.11681595 
    1920    962.30862   -4351.6124   -4298.0011     18990.15    8130.7689   0.11427377 
    1930    971.16078   -4351.7094   -4297.6049    21143.536    8127.0026   0.11184084 
    1940    940.67798   -4349.6449   -4297.2387    24816.687    8120.0571   0.10919824 
    1950       920.75   -4348.1541   -4296.8581    27706.395    8111.8306   0.10615548 
    1960    942.48425   -4348.9404   -4296.4336    28393.932    8103.9088   0.10261619 
    1970    1002.3167   -4351.8218   -4295.9816    27331.445    8097.3296  0.098578827 
    1980    979.85752    -4350.144   -4295.5551    28108.888    8093.0921  0.098009048 
    1990    926.38389   -4346.7963   -4295.1864    29574.427    8092.6079   0.10085279 
    2000    922.99849    -4346.253   -4294.8318    28691.108    8096.5774   0.10337063 
    2010    959.92144   -4347.9118   -4294.4335    26003.804    8103.9516   0.10456126 
    2020    992.14629   -4349.2731   -4293.9995    23986.665    8113.1157   0.10642222 
    2030    957.40165   -4346.8951   -4293.5572    24120.589    8122.5496   0.10990076 
    2040     949.9107     -4346.03   -4293.1094    23662.617    8130.7592   0.11294577 
    2050    976.02105   -4347.0147   -4292.6395    22231.103    8136.6237   0.11556856 
    2060    982.09052   -4346.8894   -4292.1761    21790.897    8139.7134   0.11798902 
    2070     992.0926   -4347.0082   -4291.7376    22356.744    8140.3323   0.11816826 
    2080    1006.8156    -4347.407   -4291.3161    24169.485     8139.282   0.11572386 
    2090    1015.8609   -4347.5151   -4290.9204    26444.553    8137.9651   0.11331354 
    2100    987.66052   -4345.5816   -4290.5579    28851.196    8137.8547   0.11327532 
    2110    939.12394   -4342.5339   -4290.2143    30284.838    8140.1615   0.11524456 
    2120    949.65433   -4342.7538   -4289.8474    29563.491    8145.2108   0.11680713 
    2130     984.5182   -4344.2814   -4289.4328    28024.503    8152.6237    0.1180248 
    2140     977.2966   -4343.4487   -4289.0024    27595.343     8162.113   0.12105995 
    2150    966.32561   -4342.3975   -4288.5624    26768.217     8173.379   0.12556154 
    2160    982.85544   -4342.8458   -4288.0898    25051.201    8185.7026   0.12955127 
    2170    1011.3764   -4343.9324   -4287.5875    23846.212    8198.2545   0.13279166 
    2180     995.3582   -4342.5301   -4287.0776    24134.087     8209.979   0.13750892 
    2190    1011.8724   -4342.9587   -4286.5862     24211.17     8220.116   0.14317288 
    2200     1021.732   -4343.0316   -4286.1098    25033.404    8228.4152   0.15003645 
    2210    994.73043   -4341.0853   -4285.6678    26688.531    8235.1351   0.15825225 
    2220    997.38171   -4340.8045   -4285.2392    27290.896    8240.9718   0.16558023 
    2230    1003.3588   -4340.6966   -4284.7984    27746.401    8246.1478   0.17160411 
    2240    981.36577   -4339.0267   -4284.3537    28947.126    8250.7416   0.17763063 
    2250    969.74475    -4337.926   -4283.9004    29782.805     8255.477   0.18387385 
    2260    964.76923   -4337.1624   -4283.4141    30076.946    8260.9436   0.19040137 
    2270    943.04347   -4335.4268   -4282.8888     30645.17    8267.1719   0.19776576 
    2280    977.86639   -4336.7989   -4282.3209    30066.409    8274.1685   0.20467246 
    2290    1013.0155   -4338.1452    -4281.709    28491.248    8281.8468   0.21169102 
    2300    999.45692   -4336.7903   -4281.1095    28477.757     8289.969   0.21943757 
    2310    986.52051   -4335.4982   -4280.5381    28884.725    8298.7792   0.22726775 
    2320     988.4276   -4335.0405   -4279.9741    28859.053    8308.8258   0.23536706 
    2330    1018.3009   -4336.1232   -4279.3926    28595.596     8320.259   0.24273755 
    2340    1049.2801   -4337.2495    -4278.793    28571.031    8332.3388   0.24981046 
    2350    1040.2791   -4336.1577   -4278.2026    28484.759    8344.1501   0.25891101 
    2360    1052.4238   -4336.2655   -4277.6338    26777.459    8355.2825   0.26932888 
    2370    1080.2945   -4337.2478   -4277.0634    25055.557    8365.2152   0.27911219 
    2380    1063.5398   -4335.7669   -4276.5159    25954.329    8373.2841   0.28770526 
    2390     1020.404   -4332.8475   -4275.9997    28602.925    8379.6961   0.29579808 
    2400    999.61159   -4331.1643   -4275.4748    31240.793    8385.6589   0.30355069 
    2410    1010.9088   -4331.2192   -4274.9004    31756.467    8392.4301    0.3107406 
    2420    1036.2668   -4331.9976    -4274.266    31100.354     8400.361   0.31814736 
    2430    1046.8639   -4331.9199   -4273.5979    30958.537    8409.2615   0.32633281 
    2440    1046.9766   -4331.2725   -4272.9442    31794.227    8419.7665   0.33596833 
    2450     1089.612   -4333.0229   -4272.3194    30304.303    8433.2395    0.3490716 
    2460    1122.6422   -4334.2524   -4271.7087    28967.716     8449.948   0.36833319 
    2470    1088.0622   -4331.7697   -4271.1525    29556.732    8469.3106   0.39317492 
    2480    1062.7842   -4329.8641   -4270.6552    28736.165    8491.2865   0.42036396 
    2490    1104.3598   -4331.6742    -4270.149    26383.826    8515.9636   0.44849276 
    2500    1076.0102   -4329.5472   -4269.6015    26030.815     8542.498   0.48000067 
    2510    1020.3118   -4325.8859   -4269.0432    26245.688    8569.9988    0.5145051 
    2520    1024.2353   -4325.4552   -4268.3939    25183.646    8597.6622   0.54909822 
    2530    1086.0219    -4328.092   -4267.5885    22775.832    8623.7693   0.58048664 
    2540    1123.7108   -4329.3019   -4266.6987    21853.187    8646.2524   0.60904333 
    2550    1130.5626   -4328.8296   -4265.8447    21893.025    8663.7751   0.63451079 
    2560    1134.0496   -4328.2561   -4265.0769    21795.173    8676.0987    0.6550632 
    2570    1156.6232   -4328.8248    -4264.388    21315.859    8684.1391   0.67158262 
    2580    1144.0256   -4327.4976   -4263.7626    22272.994    8689.1697   0.68585339 
    2590     1074.953   -4323.0722   -4263.1853    25404.197    8692.6466   0.69916286 
    2600    1041.6028   -4320.6279   -4262.5991    26926.856    8696.1917   0.71203708 
    2610    1072.7644   -4321.7098   -4261.9449    26887.592     8701.068    0.7261119 
    2620    1078.0423    -4321.297    -4261.238    26946.929    8708.2488   0.74403219 
    2630    1050.5016   -4319.0565   -4260.5319     26789.39     8718.666   0.76573511 
    2640    1053.1321   -4318.4833   -4259.8121    25765.092    8732.7266     0.791333 
    2650    1060.9847   -4318.1563   -4259.0476    25215.854    8749.7328   0.82056905 
    2660    1071.4117   -4317.9686   -4258.2791    25538.363    8769.1858   0.85340755 
    2670    1079.6345   -4317.6817   -4257.5341     25796.51     8791.484   0.89251859 
    2680     1107.463   -4318.4704   -4256.7724    25268.882    8816.4151    0.9382205 
    2690    1165.8554   -4320.9061    -4255.955    23578.719    8842.4021   0.98805323 
    2700    1199.1524   -4321.9545   -4255.1484    22462.125    8868.0032    1.0407912 
    2710     1200.859   -4321.3337   -4254.4325    22037.292    8893.1704    1.0980082 
    2720    1137.6103    -4317.163   -4253.7855    23151.583    8918.1107    1.1606961 
    2730    1107.4678   -4314.8185   -4253.1203    22940.494    8942.3471    1.2236821 
    2740    1120.4861    -4314.769   -4252.3454        21634    8964.2691    1.2813709 
    2750     1098.793   -4312.7312   -4251.5163    21365.924    8982.6164    1.3326558 
    2760    1107.4581   -4312.3642   -4250.6665    20646.329     8997.702    1.3749662 
    2770    1117.7915   -4312.0503   -4249.7768    20191.599    9010.3682    1.4088834 
    2780    1127.5385   -4311.6914    -4248.875    20090.259    9021.4175    1.4388684 
    2790    1113.4052   -4310.0075   -4247.9785    21044.978    9031.7741    1.4677057 
    2800    1086.1192   -4307.6104   -4247.1014    22319.286    9042.7406    1.4963785 
    2810     1097.965   -4307.3804   -4246.2115    21958.639    9055.0286    1.5269469 
    2820    1110.4486   -4307.1598   -4245.2954    20949.637    9068.3571     1.560056 
    2830    1123.6957   -4306.9543    -4244.352    20881.718    9082.2528    1.5923966 
    2840    1131.7266   -4306.4561   -4243.4063    21539.569    9096.4902    1.6219217 
    2850    1114.5291   -4304.5826    -4242.491    22421.654     9111.479    1.6523274 
    2860    1107.1864    -4303.275   -4241.5924    22784.981    9127.9759    1.6873476 
    2870    1171.8344   -4305.9248   -4240.6406    21583.336     9145.667    1.7261896 
    2880    1211.9772     -4307.15   -4239.6294    21205.676    9163.0436    1.7698839 
    2890    1186.6444   -4304.7644   -4238.6551    22362.267    9178.9039    1.8184732 
    2900    1153.9029   -4302.0201   -4237.7349    23059.292    9193.1869    1.8686079 
    2910    1117.9545   -4299.1018   -4236.8193    23451.759    9206.3417    1.9152975 
    2920    1139.9236   -4299.3675   -4235.8611    23282.674    9218.3831    1.9532256 
    2930      1172.24    -4300.148   -4234.8412    22685.401    9229.2657    1.9835255 
    2940    1198.9504   -4300.6011   -4233.8063    21773.571    9239.3035     2.009603 
    2950    1226.2167   -4301.0948   -4232.7809    21554.285    9248.8865    2.0327031 
    2960    1259.1897    -4301.938   -4231.7871    21222.572    9258.4609    2.0539789 
    2970    1230.6961   -4299.4018   -4230.8383    22244.652    9268.2434    2.0770931 
    2980    1250.5837   -4299.6085    -4229.937    22500.725    9278.5644     2.103414 
    2990    1298.0256    -4301.338   -4229.0236    21855.364    9289.3202    2.1322878 
    3000    1258.9562   -4298.2751   -4228.1372    23515.391    9299.4895     2.161387 
    3010    1219.6516   -4295.2444   -4227.2962    25338.791    9308.6459    2.1882173 
    3020    1237.0806   -4295.3578   -4226.4387    25464.169    9317.4615    2.2138501 
    3030    1276.0684   -4296.6313   -4225.5401    24828.245    9326.4953    2.2402496 
    3040     1289.259     -4296.46   -4224.6339    24250.619    9335.9708    2.2716088 
    3050    1294.2956   -4295.8774   -4223.7707    24019.783    9346.7691    2.3117698 
    3060    1287.1538   -4294.6769   -4222.9681    23922.631    9360.5965    2.3578192 
    3070    1287.3673    -4293.908   -4222.1873     23189.82    9378.0338    2.4074053 
    3080    1287.6633   -4293.1431   -4221.4059    22026.338    9398.2723    2.4671397 
    3090     1261.171   -4290.9089   -4220.6477    21202.488    9421.1331    2.5392354 
    3100    1278.4508   -4291.1433   -4219.9194    21030.396    9447.2848    2.6225912 
    3110    1300.8435   -4291.6536   -4219.1822    21647.474    9477.2182    2.7215025 
    3120    1316.5765   -4291.7675   -4218.4195    21812.388    9510.3303    2.8374161 
    3130    1316.5665   -4290.9893   -4217.6419    21288.597    9545.4143    2.9647741 
    3140    1276.4561   -4287.9874   -4216.8746    20733.345    9581.6881    3.0948407 
    3150    1288.7272   -4287.8799   -4216.0834    19445.877    9618.6777    3.2190245 
    3160    1322.1961   -4288.8638   -4215.2028    18516.696    9655.2376    3.3392068 
    3170    1293.6356   -4286.3808   -4214.3109     19236.72    9690.4984    3.4605881 
    3180    1285.2397   -4285.0135   -4213.4114    18715.797    9724.1698    3.5842181 
    3190    1303.4521   -4285.0642   -4212.4474     17591.79    9755.4192    3.7091885 
    3200    1317.8638   -4284.8621   -4211.4424    16644.759    9783.3338    3.8324438 
    3210    1291.5909    -4282.414    -4210.458    16577.024    9807.7627    3.9515496 
    3220    1261.7128   -4279.7945   -4209.5031     16932.26    9829.3944    4.0608781 
    3230    1258.8804   -4278.6692   -4208.5356    17114.382    9849.0737    4.1584409 
    3240    1295.9808   -4279.7257   -4207.5251    16373.926    9867.4656    4.2518503 
    3250    1337.5549   -4280.9829   -4206.4662    15793.564    9884.4072    4.3429284 
    3260    1354.2704   -4280.8778   -4205.4299     15780.28    9899.5691    4.4309554 
    3270    1360.2635   -4280.2316   -4204.4497    16036.427    9913.5158    4.5190186 
    3280     1362.565   -4279.4349   -4203.5249    16092.121     9927.077      4.60989 
    3290    1336.8862   -4277.1335   -4202.6541    16242.028    9941.1704    4.7049594 
    3300    1320.6334   -4275.4045   -4201.8306    15886.084    9957.3345    4.8012734 
    3310      1356.56   -4276.5837   -4201.0082    15036.564    9976.6758    4.8991398 
    3320    1363.1985   -4276.1274   -4200.1821    14831.074     9999.287    5.0065624 
    3330    1353.2684   -4274.7607   -4199.3686    15235.374    10024.871    5.1287748 
    3340    1349.4389   -4273.7111   -4198.5324    14877.604    10052.601    5.2640799 
    3350    1353.2195   -4273.0543    -4197.665    13456.825    10081.411    5.4059852 
    3360    1405.1283   -4275.0481   -4196.7668    10729.117    10110.778    5.5513799 
    3370    1419.7919   -4274.9559   -4195.8577    9687.7801    10140.127    5.6997373 
    3380    1403.4888   -4273.1893   -4194.9994    10354.585    10169.182    5.8532686 
    3390    1407.6451   -4272.6069   -4194.1854    11149.738    10198.202    6.0152567 
    3400    1400.0172   -4271.3857   -4193.3892    11729.919    10227.413    6.1822764 
    3410    1374.2341   -4269.1752   -4192.6151     12245.61    10257.078    6.3537499 
    3420    1359.9188   -4267.5758   -4191.8132    12060.609      10287.2    6.5283006 
    3430    1364.2373   -4266.9476   -4190.9444     11628.34    10317.026    6.6976904 
    3440    1409.3998   -4268.5358   -4190.0166    10148.031    10345.895    6.8613238 
    3450    1416.7724   -4267.9952   -4189.0652    8720.5229     10373.56    7.0220406 
    3460    1402.0534    -4266.237    -4188.127    7819.1432    10399.821    7.1763695 
    3470    1390.1217   -4264.6275   -4187.1823     7609.729    10424.195    7.3175724 
    3480    1418.3232    -4265.237   -4186.2206    7175.4219    10446.232    7.4415291 
    3490    1445.3128    -4265.772    -4185.252    6646.0083    10465.959    7.5510623 
    3500    1466.3372   -4266.0074   -4184.3161    6377.8192    10483.663     7.652899 
    3510    1454.6547   -4264.4819   -4183.4414    6836.7997    10500.244    7.7573236 
    3520    1491.4654   -4265.6977   -4182.6065    6128.8283    10516.705     7.873383 
    3530    1512.0031   -4266.0196   -4181.7842    4960.4785    10532.633    8.0043422 
    3540    1475.5895   -4263.2155   -4181.0087    4049.0411    10546.845    8.1407829 
    3550    1427.1451    -4259.776   -4180.2681    3470.9198    10558.645    8.2632914 
    3560    1446.3858   -4260.0924   -4179.5126     2288.396    10568.455    8.3614778 
    3570    1498.7214   -4262.2142   -4178.7187     1000.204    10577.201     8.443594 
    3580    1527.0565   -4263.0075   -4177.9335     219.1041    10585.751    8.5231317 
    3590    1499.2776   -4260.7196   -4177.1932    246.39866    10594.758     8.609365 
    3600    1480.1714   -4258.9439   -4176.4819   -215.28582    10604.312    8.7011427 
    3610    1468.4404   -4257.5584     -4175.75   -705.16073    10613.398    8.7835245 
    3620    1446.7987   -4255.5908    -4174.988    293.10951    10620.445    8.8413345 
    3630    1441.7616   -4254.5138   -4174.1916    2038.8359    10624.521    8.8719707 
    3640    1461.4259   -4254.7638   -4173.3461    2480.6756    10625.204    8.8835711 
    3650    1509.6072   -4256.5748   -4172.4729    1754.2968    10622.407    8.8871685 
    3660    1526.5988   -4256.6497   -4171.6012    1677.7444    10616.527    8.8825415 
    3670      1537.78    -4256.436   -4170.7645    2313.9594    10608.788    8.8649741 
    3680    1583.2674    -4258.163   -4169.9574    2473.8328    10600.558     8.834694 
    3690    1636.3182    -4260.372   -4169.2109    2546.0976    10592.888    8.8033079 
    3700    1675.9118   -4261.9431   -4168.5762    2317.3491    10586.664    8.7810581 
    3710    1679.6585   -4261.6783   -4168.1027    2333.0105    10582.131    8.7684767 
    3720    1650.2035   -4259.7244   -4167.7897     2602.036    10578.629    8.7632901 
    3730     1617.315   -4257.6874    -4167.585    2850.8205    10575.659    8.7645793 
    3740    1618.9284   -4257.6443    -4167.452    2286.8137    10573.894    8.7775775 
    3750    1607.8777   -4256.9468   -4167.3701    1795.6158    10574.379    8.8080862 
    3760    1628.5771    -4258.066   -4167.3362    898.37515     10577.84    8.8560428 
    3770    1646.5256   -4259.0968   -4167.3671   -272.79708    10584.109    8.9248028 
    3780    1613.0492   -4257.3257   -4167.4609   -949.26479     10592.12    9.0126316 
    3790    1556.3998   -4254.2879   -4167.5791   -994.19314    10600.994    9.1105423 
    3800    1547.2021    -4253.871   -4167.6746    -770.2956    10610.803     9.210076 
    3810    1616.4006   -4257.8048   -4167.7533   -1187.0535    10622.574    9.3102758 
    3820    1670.3393   -4260.9243   -4167.8679   -1593.6302    10636.969    9.4204765 
    3830    1657.7783   -4260.4125   -4168.0558   -616.13451     10653.82    9.5459805 
    3840    1647.7042   -4260.0937   -4168.2982    14.433798    10672.145    9.6774455 
    3850    1642.5725   -4260.0685   -4168.5589    -86.90631    10690.013    9.8022366 
    3860     1629.222   -4259.6279   -4168.8621   -149.90106    10705.759     9.918927 
    3870    1599.3633   -4258.3083    -4169.206   -862.10118    10719.643    10.037075 
    3880    1593.7482   -4258.3661   -4169.5766   -1397.8575    10733.408    10.169031 
    3890    1616.6602    -4260.037    -4169.971    -1353.629     10748.91    10.311933 
    3900    1605.5419   -4259.8462   -4170.3996   -1163.8843    10767.773    10.470492 
    3910    1606.7002   -4260.3505   -4170.8394   -2064.8854      10790.7    10.656196 
    3920    1598.5356   -4260.2722    -4171.216   -2955.1676    10815.991    10.869206 
    3930     1607.376    -4261.099   -4171.5503   -3861.4362    10841.836    11.099186 
    3940    1569.0186   -4259.2493   -4171.8375    -3606.578    10867.248    11.337015 
    3950    1536.7271   -4257.6387    -4172.026   -4089.4237    10891.254    11.567816 
    3960    1591.7715   -4260.7864    -4172.107   -5843.5986    10912.538     11.76337 
    3970    1625.2391   -4262.6686   -4172.1247   -6560.8677    10929.887    11.908161 
    3980    1598.8808   -4261.1917   -4172.1163   -5295.7207    10942.386    12.025966 
    3990    1625.0726   -4262.6253   -4172.0907   -4416.0622    10950.227    12.132514 
    4000    1625.5165   -4262.5966   -4172.0373   -2887.8971    10954.166    12.236207 
    4010    1582.1847   -4260.0909   -4171.9456   -1244.4944    10955.216      12.3387 
    4020    1564.2599   -4258.9106   -4171.7639   -770.26807     10954.38    12.434559 
    4030    1610.1928   -4261.1682   -4171.4625   -2076.9031    10952.072    12.516978 
    4040    1668.1715   -4263.9788   -4171.0431    -3661.047    10948.297     12.58941 
    4050    1721.7933   -4266.4823   -4170.5592    -4918.459    10943.079    12.658945 
    4060    1658.6728   -4262.4641   -4170.0575   -3515.2469    10936.574    12.719088 
    4070    1589.9539   -4258.0733   -4169.4952   -2142.5048     10929.85     12.77061 
    4080    1619.6406   -4259.0325   -4168.8005    -2362.833    10923.967     12.82603 
    4090    1676.1569   -4261.3323   -4167.9518    -3145.406    10918.982     12.87793 
    4100    1702.9755   -4261.8819   -4167.0072   -2883.1344    10914.943    12.913546 
    4110    1697.2106   -4260.5708   -4166.0173   -1725.5348     10912.38    12.944776 
    4120    1670.9354   -4258.1337    -4165.044     79.66286    10912.177    12.991637 
    4130    1659.0044   -4256.4929   -4164.0679    804.06366    10915.548     13.06437 
    4140    1725.7892   -4259.2253   -4163.0796    51.998538    10921.995    13.158316 
    4150    1794.5332   -4262.0941   -4162.1186   -1042.5489    10928.999    13.258387 
    4160    1789.0538   -4260.9736   -4161.3034    -1063.469    10934.508    13.355209 
    4170    1743.8374   -4257.8075   -4160.6564   -901.37931    10938.459    13.455298 
    4180    1757.1916   -4258.0278   -4160.1327   -1725.3597    10942.022    13.564246 
    4190    1738.8985   -4256.5686   -4159.6926   -1870.1701    10946.072    13.676928 
    4200    1690.0485   -4253.4654   -4159.3109   -1316.1987    10950.469    13.788957 
    4210    1725.0844   -4255.0452   -4158.9388   -1374.6705    10954.886    13.894601 
    4220    1852.6916   -4261.8157   -4158.6001   -2414.1167    10959.196    13.989367 
    4230    1885.5953     -4263.44   -4158.3913    -2619.035    10963.543    14.085093 
    4240    1905.8425   -4264.5547   -4158.3781   -3598.1094    10968.388    14.193009 
    4250    1857.0219    -4261.995   -4158.5382   -3729.1855    10973.203    14.308084 
    4260    1791.4199   -4258.6252   -4158.8232   -2956.4399     10978.67    14.423351 
    4270    1754.5181   -4256.9026   -4159.1564   -1821.2618    10987.055    14.538433 
    4280    1767.7879   -4257.9775   -4159.4921   -1192.3759    10999.914    14.667656 
    4290    1831.0928    -4261.859   -4159.8467   -2413.9486    11016.888    14.826443 
    4300    1839.7047   -4262.7273   -4160.2353   -3428.3633    11036.073    15.007292 
    4310     1812.212   -4261.6168   -4160.6565   -3792.7736    11055.661    15.183229 
    4320    1829.0994   -4263.0154   -4161.1142   -3850.2144    11074.546    15.338515 
    4330    1814.2695   -4262.7064   -4161.6315    -2652.615    11092.993     15.47904 
    4340    1797.4701   -4262.3392   -4162.2002   -1548.5091    11112.645    15.630596 
    4350    1754.5419   -4260.4961   -4162.7486   -1465.9695    11134.157    15.812197 
    4360    1768.0759    -4261.735   -4163.2335   -2624.9601    11156.954    16.024823 
    4370    1818.6549   -4265.0007   -4163.6814   -4142.0672    11180.196    16.259855 
    4380    1803.8291   -4264.6116   -4164.1182   -4164.3068    11203.074    16.496105 
    4390    1771.9284   -4263.2452    -4164.529   -4019.0626    11225.062    16.721361 
    4400    1829.8956   -4266.8528   -4164.9073   -4615.4151    11246.004    16.944854 
    4410    1900.8511   -4271.2106   -4165.3121    -6098.116    11265.713     17.16554 
    4420    1865.9804   -4269.7521   -4165.7962    -5711.206    11283.872    17.367167 
    4430    1759.1063   -4264.2933   -4166.2915   -4087.8582    11301.273    17.556197 
    4440    1795.7354   -4266.7464   -4166.7039   -4523.8849    11318.396    17.759538 
    4450    1909.0554    -4273.437   -4167.0814    -6371.351    11334.069    17.983894 
    4460    1840.5013   -4270.0166   -4167.4802   -5940.1174     11346.59    18.194786 
    4470    1787.4063   -4267.4332   -4167.8548   -5956.7504    11355.244    18.364229 
    4480    1844.4386    -4270.939   -4168.1833   -7151.6329    11358.967    18.482868 
    4490    1871.5884   -4272.7888   -4168.5205   -7224.4032    11356.828    18.552405 
    4500    1832.5505   -4270.9629   -4168.8695    -6172.396    11349.702     18.58901 
    4510    1764.8107   -4267.4493   -4169.1297   -4095.0039    11340.594    18.624744 
    4520    1801.7449   -4269.6647   -4169.2875   -3620.8888    11332.783     18.69278 
    4530    1833.6052    -4271.545   -4169.3928   -3307.6072    11326.695    18.792102 
    4540    1795.8536    -4269.515    -4169.466   -1874.6227      11321.6    18.892086 
    4550    1766.9158   -4267.9156   -4169.4787   -973.54793    11317.605     18.96346 
    4560     1737.583   -4266.2039   -4169.4012   -1054.2752    11315.293    19.021516 
    4570     1837.996   -4271.6544   -4169.2575   -3268.6366    11315.348    19.109249 
    4580    1919.9585   -4276.0631      -4169.1    -4181.913    11317.229     19.22825 
    4590    1900.5977   -4274.8967   -4169.0123   -3523.7309    11320.738    19.363969 
    4600    1921.5635   -4276.0537   -4169.0012   -4518.1522    11326.423    19.506191 
    4610    1906.7347   -4275.2667   -4169.0404   -4678.4763    11333.711     19.66431 
    4620    1868.5007   -4273.2077   -4169.1114   -4318.5466    11341.903    19.842551 
    4630     1841.284   -4271.7618   -4169.1818   -4506.4395    11350.885    20.024449 
    4640    1816.1288   -4270.4041   -4169.2256   -3935.0262    11361.386    20.203563 
    4650    1788.0935   -4268.8134   -4169.1967     -2485.98    11373.746     20.38374 
    4660    1847.0793   -4271.9773   -4169.0744   -2821.0462    11387.104    20.564624 
    4670    1933.8006   -4276.6324   -4168.8982   -4549.2653    11400.101     20.73913 
    4680    1924.0042   -4275.9342   -4168.7458   -4003.5836    11410.667    20.891511 
    4690    1900.9701   -4274.5456   -4168.6405    -2413.434    11418.311    21.018174 
    4700    1956.3595   -4277.5758   -4168.5848   -2307.9569    11425.265    21.142895 
    4710    1989.4739   -4279.4256   -4168.5898   -2864.6281    11433.554    21.285377 
    4720    1993.5608   -4279.7675    -4168.704   -3336.6721    11443.841    21.444108 
    4730    1925.3756    -4276.175   -4168.9101   -2976.6414    11456.313    21.622518 
    4740    1876.6379   -4273.6803   -4169.1307   -3321.4831    11470.544    21.815562 
    4750    1925.1508   -4276.5646   -4169.3123   -4893.8152    11485.008     22.01699 
    4760    1943.5019   -4277.7701   -4169.4954   -5806.8645    11497.509    22.215887 
    4770    1870.2414   -4273.8868   -4169.6936   -6076.7261    11506.858    22.391984 
    4780    1873.9802   -4274.2784   -4169.8768   -7224.2629    11513.209    22.527122 
    4790    1883.8112   -4274.9796   -4170.0304   -7337.4811    11516.001    22.637853 
    4800     1865.524     -4274.08   -4170.1495   -6401.5687     11514.64     22.73782 
    4810    1921.9027   -4277.3075   -4170.2362    -5092.319    11509.699    22.826028 
    4820    1922.2852   -4277.3966   -4170.3039   -3236.5524    11502.999    22.902101 
    4830    1848.2017   -4273.2928   -4170.3274   -1213.7756     11496.54    22.972213 
    4840    1916.3125    -4277.044    -4170.284   -1918.9088     11491.89    23.045051 
    4850    1951.6636   -4278.9106   -4170.1812   -2690.9537    11489.578     23.13393 
    4860    1942.0244   -4278.2407   -4170.0484   -2863.5881    11489.914    23.249567 
    4870    2008.5912   -4281.8029    -4169.902   -4591.9038    11493.391    23.384693 
    4880    2005.9413   -4281.5218   -4169.7686   -5450.9559    11499.474    23.522229 
    4890    1913.6236   -4276.2522   -4169.6421   -4931.6822    11507.331    23.660886 
    4900    1902.7239   -4275.4582   -4169.4553   -4989.4771    11515.675    23.792403 
    4910    1893.7434   -4274.6574   -4169.1548   -4017.6403    11523.501    23.905718 
    4920    1874.4915   -4273.1653   -4168.7353   -2806.2827    11531.605    24.012668 
    4930    1876.2757    -4272.694   -4168.1645   -2278.0436    11541.617    24.131658 
    4940    1968.7182    -4277.109   -4167.4295   -3918.2971    11554.133    24.255767 
    4950    2038.9314   -4280.1432   -4166.5521   -5116.3283     11567.62    24.375425 
    4960    2062.7199   -4280.5771   -4165.6607   -5245.2687    11580.484    24.500994 
    4970    2026.9864   -4277.7552   -4164.8295   -4273.2463     11592.66    24.639628 
    4980    2019.8283   -4276.5884   -4164.0615   -3061.7027    11605.943    24.796517 
    4990    2078.4067   -4279.1017   -4163.3113    -4121.294    11621.415    24.968205 
    5000    2153.2851   -4282.5643   -4162.6024   -6432.1585    11637.772    25.144784 
Loop time of 2130.53 on 16 procs for 5000 steps with 432 atoms

Performance: 0.203 ns/day, 118.363 hours/ns, 2.347 timesteps/s
96.1% CPU use with 16 MPI tasks x 1 OpenMP threads

MPI task timing breakdown:
Section |  min time  |  avg time  |  max time  |%varavg| %total
---------------------------------------------------------------
Pair    | 1415.9     | 1747.7     | 2039.5     | 429.2 | 82.03
Bond    | 0.00042725 | 0.0014786  | 0.0035264  |   2.1 |  0.00
Neigh   | 0.03107    | 0.03949    | 0.050311   |   3.1 |  0.00
Comm    | 87.712     | 334.16     | 535.66     | 690.3 | 15.68
Output  | 1.0908     | 1.0976     | 1.1952     |   2.4 |  0.05
Modify  | 2.1081     | 47.542     | 177.82     |1090.8 |  2.23
Other   |            | 0.02282    |            |       |  0.00

Nlocal:        27.0000 ave          49 max          15 min
Histogram: 2 3 6 0 1 0 0 2 1 1
Nghost:        339.688 ave         445 max         235 min
Histogram: 4 0 0 0 4 4 0 0 1 3
Neighs:         0.00000 ave           0 max           0 min
Histogram: 16 0 0 0 0 0 0 0 0 0
FullNghs:      1110.00 ave        2736 max         387 min
Histogram: 4 6 1 1 0 0 0 2 1 1

Total # of neighbors = 17760
Ave neighs/atom = 41.111111
Ave special neighs/atom = 0.0000000
Neighbor list builds = 499
Dangerous builds = 497
unfix   1

fix     2 all npt temp 2000 2000 $(100.0*dt) z 1.01325 1.01325 $(1000.0*dt) couple none
fix     2 all npt temp 2000 2000 0.10000000000000000555 z 1.01325 1.01325 $(1000.0*dt) couple none
fix     2 all npt temp 2000 2000 0.10000000000000000555 z 1.01325 1.01325 1 couple none
run     2000
Per MPI rank memory allocation (min/avg/max) = 8.898 | 8.899 | 8.900 Mbytes
Step Temp PotEng TotEng Press Volume c_msd[4] 
    5000    2153.2851   -4282.5643   -4162.6024   -6432.1585    11637.772    25.144784 
    5010    2143.0023   -4282.0825   -4162.6934    -6318.414    11637.752    25.194837 
    5020    2077.5878   -4278.6973   -4162.9526   -4797.5169    11637.757    25.244392 
    5030    1998.4977   -4274.6241   -4163.2855   -3279.9939    11637.763    25.287422 
    5040    2021.3472   -4276.2551   -4163.6436   -3407.9179    11637.764    25.321339 
    5050     2048.484   -4278.1622   -4164.0389   -4315.0636     11637.78    25.363221 
    5060    2027.8274   -4277.4761   -4164.5035   -3760.2061    11637.743    25.423973 
    5070    1983.2193   -4275.4974   -4165.0101    -2833.144    11637.691    25.487107 
    5080    1954.7497   -4274.4204   -4165.5191   -2373.2725    11637.909    25.550402 
    5090    1960.0407   -4275.2149   -4166.0188   -2973.7202     11638.83    25.632724 
    5100    1955.0146   -4275.4238   -4166.5077   -3780.4796    11640.777    25.745006 
    5110    1969.0467   -4276.7032   -4167.0054    -4290.081    11643.959    25.874939 
    5120     1966.967   -4277.1002   -4167.5182   -4936.5005    11648.425    26.002657 
    5130    1956.4783    -4277.033   -4168.0354   -5675.0773    11653.941     26.11359 
    5140    1959.1411   -4277.7049    -4168.559   -6285.4924    11660.196    26.207408 
    5150     1963.694   -4278.4874   -4169.0878   -7903.9147    11666.867    26.290907 
    5160    2014.6146   -4281.8918   -4169.6554   -9559.1268    11673.615    26.373865 
    5170    2049.7967   -4284.5498   -4170.3533   -10450.892    11680.238    26.467412 
    5180    1948.9909    -4279.764   -4171.1835   -9211.4403    11686.705    26.568982 
    5190    1881.7637   -4276.8933   -4172.0581   -9081.3711    11693.045    26.684766 
    5200    1893.6267   -4278.4256   -4172.9295    -9994.131     11699.08     26.82288 
    5210    1922.7453   -4280.9344   -4173.8161   -10230.294    11704.749    26.974518 
    5220    1978.3884   -4284.9823   -4174.7641    -10385.28    11710.178    27.128206 
    5230    1986.0652    -4286.434   -4175.7881   -8745.3199    11715.459     27.27945 
    5240    1938.2441   -4284.8737   -4176.8919   -7910.6462    11720.681    27.433519 
    5250    1895.9561   -4283.5564   -4177.9306   -8254.6191    11725.767    27.586187 
    5260    2001.0925   -4290.4572   -4178.9741   -10695.152    11730.508    27.724684 
    5270    2015.0041   -4292.3289   -4180.0707   -11697.003    11734.707    27.856806 
    5280    1905.2159   -4287.2618   -4181.1201   -10965.628    11738.303    27.986809 
    5290    1919.1608   -4288.9755   -4182.0569   -11980.585     11741.24    28.105915 
    5300    1916.0108   -4289.6109   -4182.8678    -13025.39    11743.247    28.210508 
    5310    1889.8003   -4288.8354   -4183.5525   -12784.701    11744.099     28.29555 
    5320    1835.4539   -4286.3296   -4184.0744   -12048.981    11743.695    28.354454 
    5330    1875.7855   -4288.9295   -4184.4274   -12070.911    11741.995    28.391138 
    5340    1934.3673   -4292.4049   -4184.6391   -11711.645    11739.045    28.425782 
    5350    1957.2017   -4293.8198   -4184.7819   -10833.508    11735.022    28.465853 
    5360    1871.8458   -4289.1325   -4184.8499   -8781.0297    11730.255    28.507698 
    5370    1836.0586   -4287.0643   -4184.7754   -7848.5151    11725.338    28.550272 
    5380    1894.2086   -4290.0776   -4184.5491   -9188.2894    11720.647    28.592983 
    5390    1889.6805   -4289.4913   -4184.2151    -9917.984    11715.874    28.632052 
    5400    1871.5404   -4288.0526    -4183.787   -10491.522    11710.575    28.665258 
    5410    1914.3082   -4289.9032   -4183.2549   -10435.193    11704.527    28.699467 
    5420    1901.1067   -4288.5367   -4182.6239   -9387.1823    11697.838    28.752592 
    5430     1909.487   -4288.2848   -4181.9052   -8750.7547    11690.946    28.811168 
    5440    1976.4381   -4291.2175    -4181.108   -8714.4764    11684.209    28.878232 
    5450    1998.8794   -4291.6652   -4180.3054   -8028.1752    11677.715    28.967576 
    5460     2037.658   -4293.0911   -4179.5708   -7917.4138    11671.365    29.077722 
    5470    2034.2863    -4292.267   -4178.9346   -8091.6491    11664.957    29.192564 
    5480    2049.0365   -4292.5698   -4178.4157   -8057.9093    11658.453    29.288917 
    5490    2049.4217   -4292.1835   -4178.0079   -8047.1542    11651.936    29.357886 
    5500    2041.4502   -4291.4461   -4177.7146   -7889.2645    11645.401    29.406057 
    5510    2037.1869   -4291.0078   -4177.5139   -7530.3183    11638.849    29.449998 
    5520    2025.9186   -4290.2453   -4177.3791   -6244.1017    11632.369      29.4924 
    5530     2029.493   -4290.3553     -4177.29   -4626.5558    11626.089    29.530597 
    5540    2066.3126   -4292.3613   -4177.2447   -3871.2868    11620.262    29.577213 
    5550    2061.2759   -4292.1006   -4177.2646   -4248.1321    11615.116    29.644876 
    5560    2027.8048   -4290.3064   -4177.3351   -5254.4008    11610.795    29.738399 
    5570    2019.5595   -4289.9452   -4177.4333   -7014.3588    11607.188    29.839736 
    5580    1954.1948   -4286.3952   -4177.5248   -6222.1578    11604.114    29.925069 
    5590     1921.157   -4284.6064   -4177.5766   -4608.4778    11601.483    29.978991 
    5600    1987.7185   -4288.2838   -4177.5458   -4517.2157    11598.986    30.020147 
    5610    2097.4332   -4294.3676   -4177.5173   -4958.8551     11596.19    30.081334 
    5620    2176.7191    -4298.868   -4177.6005    -5114.922    11592.882    30.171462 
    5630    2173.0699    -4298.948   -4177.8838     -5069.39    11589.148    30.262382 
    5640    2047.9082   -4292.3947   -4178.3035   -3927.1227    11585.253    30.318978 
    5650    2001.0786   -4290.2307   -4178.7484   -4911.6448     11581.49    30.340155 
    5660    2021.4942   -4291.8123   -4179.1925   -6393.5273    11577.918    30.355342 
    5670    1988.0249   -4290.3758   -4179.6207   -5934.0062    11574.594    30.388139 
    5680    2032.8369   -4293.2805   -4180.0289   -5450.2867    11571.633    30.458056 
    5690    2087.6568   -4296.7967    -4180.491   -6333.2904    11569.208    30.562606 
    5700     2064.415   -4296.0396   -4181.0287   -6138.7088    11567.611    30.679816 
    5710    2054.0413   -4296.0696   -4181.6367   -5721.7909    11567.166    30.792046 
    5720    2083.9537   -4298.4195   -4182.3201   -5538.2106     11568.12    30.890885 
    5730     2087.838   -4299.4152   -4183.0994   -5468.3867    11570.289     30.98333 
    5740    2009.4247   -4295.8812   -4183.9339    -4174.305    11573.193    31.087688 
    5750    1961.4554   -4293.9995   -4184.7247   -4279.5041     11576.68    31.201753 
    5760    2022.8093   -4298.1721   -4185.4791   -5656.6053    11580.734    31.322726 
    5770     2025.108   -4299.0447   -4186.2237   -5766.6298    11585.218    31.460528 
    5780      2001.41   -4298.4552   -4186.9544   -6111.2001    11590.063    31.611834 
    5790    2022.2638   -4300.3137   -4187.6511   -6699.7329    11595.147    31.769283 
    5800    2007.0442     -4300.14   -4188.3253   -6511.3041    11600.274    31.929139 
    5810     1978.706   -4299.1842   -4188.9482   -5834.1573    11605.434    32.094172 
    5820    2016.6134   -4301.8926   -4189.5448   -6155.0836    11610.871     32.26688 
    5830    1957.5962   -4299.1395   -4190.0797    -6197.837    11616.735     32.44235 
    5840    2006.8367   -4302.3425   -4190.5394   -8000.6916    11622.886    32.605693 
    5850     2101.532   -4308.0659   -4190.9871   -10017.798    11628.976    32.750438 
    5860    2091.6956    -4308.019   -4191.4883   -9262.8999    11634.735     32.87984 
    5870     2100.066    -4309.057   -4192.0599   -8456.8621    11640.092    33.011747 
    5880    2046.4704   -4306.6851   -4192.6739   -7927.2789    11645.108    33.163977 
    5890    1960.4446   -4302.4685   -4193.2499   -8139.7464    11649.974    33.335493 
    5900    1953.9387   -4302.5745   -4193.7183   -9253.6188    11654.788    33.520865 
    5910    1979.9589   -4304.3936   -4194.0878   -10210.972    11659.526    33.713263 
    5920    1984.8636   -4304.9575   -4194.3785   -10036.175    11664.062    33.901627 
    5930    2023.9364   -4307.3874   -4194.6317    -9859.109    11668.267    34.084638 
    5940    1985.8111   -4305.4944   -4194.8626   -8439.8874    11672.067    34.252969 
    5950    1973.5618   -4304.9999   -4195.0505   -7136.9768    11675.663    34.386376 
    5960    2030.8919   -4308.3572    -4195.214   -5770.4112    11679.362    34.482381 
    5970    2022.5387   -4308.0611   -4195.3832   -4295.7878     11683.49    34.567296 
    5980    2031.8148   -4308.7736   -4195.5789   -5371.0667    11688.452    34.657283 
    5990    1999.9552   -4307.1935   -4195.7737   -7933.3142    11694.246    34.752274 
    6000     1972.742   -4305.8283   -4195.9247   -10124.297    11700.374    34.843382 
    6010    2006.0716   -4307.7919   -4196.0314   -12692.488    11706.236    34.942499 
    6020    1986.3331   -4306.7674   -4196.1066   -14367.506    11711.386    35.054491 
    6030    2004.4702   -4307.8462   -4196.1749   -15848.072    11715.604    35.164439 
    6040    2009.6449   -4308.1977   -4196.2381   -16318.143     11718.67    35.264712 
    6050    1961.8674   -4305.6047   -4196.3069   -15036.713    11720.597    35.364049 
    6060    1936.5202   -4304.2205   -4196.3348   -13025.704     11721.83    35.460025 
    6070    2008.3199   -4308.2054   -4196.3197   -11537.144     11722.65    35.557423 
    6080    2020.3143   -4308.8497   -4196.2957   -10025.391    11722.935    35.675277 
    6090    2007.6341   -4308.1428   -4196.2953   -9219.2282    11722.615    35.811899 
    6100    2033.7623   -4309.6165   -4196.3133   -8788.4813    11721.833    35.949146 
    6110    2060.8413    -4311.178   -4196.3663   -7023.8972    11721.049    36.078478 
    6120    2037.4832   -4309.9848   -4196.4743   -5003.5379    11720.892    36.201037 
    6130    2076.1649   -4312.3135    -4196.648   -5012.2713    11721.779    36.296027 
    6140    2076.0329    -4312.563   -4196.9048   -5034.6077    11723.679    36.378886 
    6150    2031.3361   -4310.4144   -4197.2464   -4621.0658     11726.61    36.475871 
    6160    2033.7195   -4310.9361   -4197.6353   -5823.1953    11730.633    36.596683 
    6170    2030.9543   -4311.2183   -4198.0716   -6761.6048    11735.598    36.744838 
    6180    2029.1951   -4311.5994   -4198.5507    -6749.696    11741.297    36.916899 
    6190    2048.3496   -4313.1956   -4199.0797   -6727.5127    11747.478    37.095595 
    6200    2053.6698   -4314.0985   -4199.6863   -6077.8214    11753.927    37.274316 
    6210    2064.4378   -4315.4127   -4200.4006   -6154.6493    11760.651    37.463118 
    6220    2089.3902   -4317.6575   -4201.2553   -8279.7385    11767.827    37.665769 
    6230    2059.4376   -4316.9919   -4202.2583   -9895.4533    11775.409    37.871401 
    6240    2004.6549   -4315.0395   -4203.3579   -9795.6169    11783.118    38.069416 
    6250    2007.2548   -4316.3405   -4204.5141   -10180.706    11790.787    38.267743 
    6260    2071.9981   -4321.1886   -4205.7553   -11891.376    11798.342    38.469443 
    6270    2066.9432   -4322.2737    -4207.122   -12716.588    11805.613    38.651286 
    6280     1897.922   -4314.1703   -4208.4349   -11062.238    11812.515    38.804989 
    6290    1857.1444   -4312.9816    -4209.518   -10631.456     11819.18    38.941929 
    6300    1930.7992   -4317.9432   -4210.3762   -11404.284    11825.682    39.082152 
    6310    1964.3625   -4320.4969     -4211.06   -10686.077    11831.907    39.237084 
    6320    1962.0687   -4320.8999   -4211.5909   -9670.9368    11837.801    39.403261 
    6330    1965.4639   -4321.4831   -4211.9849   -9078.4304     11843.47    39.564223 
    6340    1964.9121   -4321.7397   -4212.2723   -9195.1014    11849.213    39.710532 
    6350    1939.6128     -4320.52    -4212.462   -9608.0467    11855.379    39.838442 
    6360    1962.8843   -4321.9198   -4212.5653   -11054.901     11862.15    39.951542 
    6370     2017.214   -4324.9919   -4212.6107   -12534.071    11869.412    40.059321 
    6380     2045.053   -4326.5787   -4212.6465   -13421.566    11876.754    40.168683 
    6390     2026.983   -4325.6336   -4212.7081   -13159.262    11883.782    40.291747 
    6400    1980.0255   -4323.0827   -4212.7732   -12941.564     11890.32    40.436869 
    6410    2005.5176   -4324.5607   -4212.8311   -13979.013    11896.327    40.588906 
    6420    1972.8238    -4322.787   -4212.8788   -13564.686    11901.936    40.731674 
    6430    1915.4004    -4319.605   -4212.8959    -12984.06    11907.458    40.865013 
    6440    1977.8981    -4323.038   -4212.8471   -13655.998    11913.121    40.998078 
    6450    2015.2813   -4325.0445   -4212.7709   -13880.781    11918.925    41.131361 
    6460    1916.7859   -4319.4769   -4212.6906   -13250.969    11924.837     41.25125 
    6470    1879.8034   -4317.2548   -4212.5288    -13345.21    11930.827    41.366571 
    6480    2020.2274   -4324.8072   -4212.2581   -16201.981    11936.627    41.485857 
    6490    2075.0744   -4327.5547   -4211.9499   -17269.565    11941.763    41.597391 
    6500    2109.7542   -4329.2751   -4211.7383   -16555.407    11946.071    41.702937 
    6510    2092.7562   -4328.2408    -4211.651   -15084.893    11949.663    41.820309 
    6520    2018.5444   -4324.1103   -4211.6549   -13450.303    11952.664    41.958812 
    6530     2065.832   -4326.8107   -4211.7209   -13597.888    11955.139    42.112947 
    6540    2055.9513   -4326.3863   -4211.8469   -12903.631    11957.171    42.259251 
    6550     2062.134   -4326.9346   -4212.0508    -11914.54    11958.903    42.374093 
    6560    2132.8646   -4331.1856   -4212.3613   -11999.022    11960.294    42.462994 
    6570    2148.3726   -4332.5395   -4212.8512   -11655.248    11961.251    42.547198 
    6580    2102.0392   -4330.6457   -4213.5387   -10081.483    11962.005    42.645804 
    6590    2108.7019   -4331.8834   -4214.4052   -9901.3173    11963.006    42.772094 
    6600    2102.4253   -4332.5887   -4215.4602   -10859.958    11964.576     42.93873 
    6610    2014.3638   -4328.8532   -4216.6307   -11690.411    11966.769    43.141393 
    6620     1923.913   -4324.9658   -4217.7825   -12680.746    11969.497     43.35154 
    6630    1913.8624    -4325.445   -4218.8216   -14030.977    11972.628    43.549179 
    6640    1911.5153   -4326.2262   -4219.7335   -15008.764    11975.922    43.720216 
    6650    1906.5912   -4326.7273    -4220.509   -14582.854    11979.208    43.854604 
    6660    1903.3224   -4327.1913   -4221.1551   -13361.669    11982.666    43.959965 
    6670    1902.4877    -4327.656   -4221.6662   -12759.083    11986.632    44.058496 
    6680    1941.8641   -4330.2315    -4222.048   -13370.627    11991.051    44.172933 
    6690    1992.8071    -4333.377   -4222.3555   -13648.643    11995.567    44.313169 
    6700    1988.5281   -4333.4239   -4222.6407    -13558.86    12000.153    44.467395 
    6710    1960.9958   -4332.1326   -4222.8833   -14521.924    12004.851    44.615708 
    6720    1984.1909   -4333.6221   -4223.0806   -16611.772    12009.194    44.739034 
    6730    1952.7632   -4332.0149   -4223.2243   -17697.114     12012.69    44.833468 
    6740    2019.4826    -4335.852   -4223.3443   -19443.242    12015.197    44.922384 
    6750    2076.4032   -4339.1662   -4223.4874   -19783.768    12016.446    45.022398 
    6760    2060.8958   -4338.5342   -4223.7194   -17287.343    12016.319    45.106439 
    6770    1957.9511   -4333.0807   -4224.0011   -14273.801    12015.295    45.164714 
    6780    1871.0847   -4328.4592   -4224.2189   -13329.598    12013.928    45.215481 
    6790    1877.7722   -4328.9353   -4224.3226   -14074.047    12012.296    45.265725 
    6800    1825.8261   -4326.0004   -4224.2816   -13895.512    12010.258     45.31675 
    6810    1832.6724   -4326.1658   -4224.0656   -14035.824    12007.852    45.364783 
    6820    1972.1474   -4333.5526    -4223.682   -15719.856    12004.929    45.404061 
    6830    2018.2653   -4335.6427   -4223.2029   -15649.274    12001.127    45.450843 
    6840    1963.1902   -4332.0696   -4222.6981   -14798.542    11996.292    45.500395 
    6850    1951.9042   -4330.8701   -4222.1273   -14011.809    11990.428    45.532726 
    6860    1976.6447   -4331.5599   -4221.4388   -13555.138    11983.382    45.543171 
    6870    1982.6267   -4331.0684    -4220.614   -12628.684    11974.984    45.548374 
    6880    1983.2823   -4330.1062   -4219.6153   -11759.569    11965.378     45.55657 
    6890    2014.0876   -4330.6219   -4218.4149   -12896.698    11954.842    45.553457 
    6900    2022.4381   -4329.6854   -4217.0131   -13245.255    11943.396    45.531978 
    6910    2071.1163   -4330.8219   -4215.4377   -13064.794    11931.037    45.491852 
    6920    2113.2292    -4331.503   -4213.7726   -12296.291    11917.757    45.431667 
    6930     2100.129   -4329.1567   -4212.1561   -10589.417    11903.567    45.343007 
    6940    2123.6284   -4328.9986   -4210.6889   -9357.2347    11888.626    45.222487 
    6950    2176.2895   -4330.6396   -4209.3961   -8519.2912    11873.322    45.080246 
    6960    2174.0749   -4329.4933   -4208.3732   -7235.3389    11858.218    44.929669 
    6970    2247.9408   -4332.9368   -4207.7015   -7189.6187    11843.505    44.776933 
    6980    2299.1938   -4335.4927    -4207.402   -7621.8723     11828.93    44.629766 
    6990    2310.2021   -4336.1932   -4207.4892   -8026.1979    11814.512    44.502514 
    7000    2215.2621   -4331.2713   -4207.8565   -6971.0462    11800.502    44.396952 
Loop time of 944.16 on 16 procs for 2000 steps with 432 atoms

Performance: 0.183 ns/day, 131.133 hours/ns, 2.118 timesteps/s
95.8% CPU use with 16 MPI tasks x 1 OpenMP threads

MPI task timing breakdown:
Section |  min time  |  avg time  |  max time  |%varavg| %total
---------------------------------------------------------------
Pair    | 424.56     | 634.61     | 935.15     | 628.4 | 67.21
Bond    | 0.00015998 | 0.00066969 | 0.0017796  |   0.0 |  0.00
Neigh   | 0.0087011  | 0.014271   | 0.027519   |   5.7 |  0.00
Comm    | 5.0743     | 231.37     | 376.31     | 856.3 | 24.51
Output  | 2.596      | 2.5985     | 2.635      |   0.6 |  0.28
Modify  | 1.2454     | 75.564     | 298.2      |1478.7 |  8.00
Other   |            | 0.009198   |            |       |  0.00

Nlocal:        27.0000 ave          49 max          15 min
Histogram: 3 5 4 0 0 0 0 0 0 4
Nghost:        338.375 ave         424 max         232 min
Histogram: 3 1 0 0 0 3 5 0 1 3
Neighs:         0.00000 ave           0 max           0 min
Histogram: 16 0 0 0 0 0 0 0 0 0
FullNghs:      1128.50 ave        2910 max         382 min
Histogram: 5 7 0 0 0 0 0 0 1 3

Total # of neighbors = 18056
Ave neighs/atom = 41.796296
Ave special neighs/atom = 0.0000000
Neighbor list builds = 200
Dangerous builds = 200
unfix   2

fix     3 all npt temp 2000 300 $(100.0*dt) z 1.01325 1.01325 $(1000.0*dt) couple none
fix     3 all npt temp 2000 300 0.10000000000000000555 z 1.01325 1.01325 $(1000.0*dt) couple none
fix     3 all npt temp 2000 300 0.10000000000000000555 z 1.01325 1.01325 1 couple none
run     10000
Per MPI rank memory allocation (min/avg/max) = 8.898 | 8.899 | 8.901 Mbytes
Step Temp PotEng TotEng Press Volume c_msd[4] 
    7000    2215.2621   -4331.2713   -4207.8565   -6971.0462    11800.502    44.396952 
    7010    2235.2344   -4332.5256   -4207.9982   -6743.4034    11800.922    44.443841 
    7020    2249.6897   -4333.7661   -4208.4333    -6916.918    11801.961    44.508052 
    7030    2213.6446   -4332.5011   -4209.1765   -7556.0731    11803.224    44.599661 
    7040     2195.742   -4332.5315   -4210.2043   -8162.7582    11804.584    44.723093 
    7050    2123.3176   -4329.7314    -4211.439   -8146.5732    11806.142    44.850556 
    7060     2161.206   -4333.2088   -4212.8055   -8713.5074    11807.877    44.942376 
    7070    2181.9426   -4335.8877   -4214.3292   -8932.7975    11809.637    45.003184 
    7080    2103.1871   -4333.0397   -4215.8688   -7636.1119    11811.367    45.068473 
    7090    2117.5794   -4335.2908   -4217.3181     -8262.29    11813.102    45.142686 
    7100    2114.5898   -4336.4592   -4218.6531   -8855.7972    11814.741    45.212489 
    7110    2065.5433   -4334.8912   -4219.8175   -9366.0196     11816.23    45.280351 
    7120    2053.9552   -4335.2426   -4220.8144   -10415.955    11817.529    45.332015 
    7130    1976.7653   -4331.7578   -4221.6299   -10319.514    11818.559    45.341149 
    7140    2004.4126    -4333.958     -4222.29   -11694.668     11819.18    45.306932 
    7150     2070.227   -4338.2325   -4222.8979   -14711.174    11818.947     45.27074 
    7160    2019.5641     -4336.02   -4223.5078   -15330.751    11817.373    45.251453 
    7170    2007.0624   -4335.9182   -4224.1025   -15379.556      11814.4    45.251857 
    7180    2056.6733   -4339.2978   -4224.7182     -16037.1    11810.174    45.272049 
    7190    1981.6345   -4335.7401    -4225.341   -16226.951    11804.984    45.299047 
    7200    1973.8984   -4335.9191    -4225.951   -16983.313    11798.994    45.325353 
    7210    2028.2876    -4339.577   -4226.5788   -18569.243    11792.014    45.348682 
    7220    2016.7547   -4339.6249   -4227.2692   -18800.563    11783.732    45.372995 
    7230    1975.5906   -4338.0456   -4227.9833   -18252.999    11774.106    45.401509 
    7240      2026.46   -4341.6078   -4228.7114   -17407.841    11763.349    45.430687 
    7250    2041.4281   -4343.2031   -4229.4728   -15244.972    11751.825    45.465937 
    7260    2046.2069   -4344.2939   -4230.2975   -12887.405    11739.974    45.507618 
    7270    1989.8284   -4342.0016   -4231.1461    -9955.809     11728.28    45.545903 
    7280    1940.8802   -4340.0892   -4231.9606     -8378.65    11717.208    45.581544 
    7290    1969.3956    -4342.463   -4232.7458   -9212.2852    11706.915    45.619829 
    7300    2009.5792   -4345.5082   -4233.5523   -11889.934     11697.25    45.670338 
    7310    1984.7246   -4344.9705   -4234.3992   -13219.683    11687.908    45.728916 
    7320    1932.1359   -4342.8596   -4235.2182   -12535.088    11678.737    45.786672 
    7330    1980.3492   -4346.3322   -4236.0047   -13020.343    11669.736    45.837724 
    7340    1991.0173   -4347.7179   -4236.7961   -12925.394    11660.882    45.881921 
    7350    1975.7428   -4347.6639    -4237.593   -12788.388    11652.124    45.925952 
    7360    1965.4106   -4347.9002   -4238.4049   -13068.888    11643.259    45.967428 
    7370    1923.7367   -4346.3501   -4239.1765   -13644.655    11634.058    45.991324 
    7380     1960.132   -4349.1213   -4239.9201   -15460.327    11624.401    46.003979 
    7390    1966.4514   -4350.2005   -4240.6473   -16579.423     11614.16    46.019705 
    7400    2000.9105   -4352.8821   -4241.4092   -17591.879    11603.179    46.035698 
    7410    1942.8645   -4350.4286   -4242.1894   -17014.104    11591.313    46.039215 
    7420    1906.5631   -4349.1333   -4242.9166    -16511.52    11578.592    46.033902 
    7430    1978.0484   -4353.7972   -4243.5979   -16087.281    11565.213    46.044042 
    7440    1971.8716   -4354.1391    -4244.284   -14160.904    11551.369    46.077169 
    7450    1886.6567   -4350.0392   -4244.9314   -12157.365     11537.28    46.115607 
    7460    1889.7633   -4350.7968    -4245.516    -12094.97    11523.037     46.13791 
    7470    1895.8055   -4351.6577   -4246.0402    -11806.63    11508.498    46.141205 
    7480    1936.7665   -4354.4144   -4246.5149   -11353.835    11493.656    46.128268 
    7490    1976.5629   -4357.1141   -4246.9976   -11859.056     11478.65    46.106206 
    7500     1939.614    -4355.557   -4247.4989   -11509.138     11463.54    46.086313 
    7510    1951.5318   -4356.7271   -4248.0051   -10272.385     11448.43    46.068875 
    7520    1961.5909   -4357.7943   -4248.5119   -8748.3301    11433.549    46.049186 
    7530    1952.8824   -4357.8671   -4249.0698   -7720.0911    11418.952    46.028585 
    7540    1896.0216   -4355.2541   -4249.6246   -7146.2275     11404.49    46.017617 
    7550    2017.6794   -4362.6011    -4250.194   -9111.2128     11390.12    46.015844 
    7560    2153.7432   -4370.9262   -4250.9387   -11442.357    11375.694    46.020684 
    7570     2119.013   -4369.9758   -4251.9232   -10397.492    11361.115    46.030556 
    7580     2075.214   -4368.6719   -4253.0594   -8387.3526    11346.624    46.030299 
    7590    2110.7074   -4371.8881   -4254.2982   -8026.3739    11332.473    46.023029 
    7600    2119.7914   -4373.7227   -4255.6268   -6335.9681    11318.882    46.011601 
    7610    1995.4741   -4368.0649   -4256.8948   -2316.5185    11306.293    45.988108 
    7620    1917.1172   -4364.7347     -4257.93    649.61001    11295.111     45.96683 
    7630    1996.8093   -4370.0261   -4258.7816    69.863448    11285.586    45.974824 
    7640     2045.215   -4373.5078   -4259.5665   -1361.4327    11277.812    46.009742 
    7650    2067.8836    -4375.567   -4260.3629   -1888.1622    11271.773    46.038652 
    7660    2104.5839   -4378.4696   -4261.2209   -3004.5958     11267.42    46.039283 
    7670    2104.4246   -4379.4372   -4262.1974   -4518.2953    11264.607    46.016946 
    7680    2032.5618   -4376.4772   -4263.2409   -5193.1145    11262.996    46.002168 
    7690    1995.5308   -4375.4662   -4264.2929    -6818.049    11262.224     46.01726 
    7700    1987.2819   -4376.0331   -4265.3194   -9361.4592    11261.911    46.061606 
    7710    2032.2125   -4379.5826   -4266.3658   -12776.666    11261.705    46.116026 
    7720    2041.5657    -4381.222   -4267.4841   -14988.104    11261.257    46.156262 
    7730    2002.1625   -4380.2014   -4268.6587   -15338.714    11260.285    46.171233 
    7740    1958.3942   -4378.9456   -4269.8412   -14806.827    11258.602    46.141393 
    7750    1904.4696   -4377.0668   -4270.9667   -13492.534    11256.114    46.059156 
    7760    1914.1415   -4378.6517   -4272.0127   -12645.891    11252.879    45.952208 
    7770    1932.3613   -4380.6878   -4273.0338   -11118.851    11248.961    45.860643 
    7780    1861.4526    -4377.689   -4273.9854   -9280.0123    11244.474    45.809782 
    7790    1939.8797   -4382.9596   -4274.8868   -10632.219    11239.516    45.810489 
    7800    1961.6091    -4385.107   -4275.8236   -11808.143    11234.154    45.866259 
    7810    1878.2689   -4381.3741   -4276.7336   -11722.481    11228.652    45.948282 
    7820    1974.6936   -4387.6781   -4277.6657   -14407.218    11223.108     46.01533 
    7830    1919.7543   -4385.6127    -4278.661    -15696.47    11217.192    46.056103 
    7840    1822.6636   -4381.1398   -4279.5972   -16097.489    11210.813    46.072825 
    7850    1858.0013   -4383.9651   -4280.4537   -18591.113    11204.087    46.086028 
    7860    1901.6235   -4387.2243   -4281.2827   -20367.738    11196.871    46.112229 
    7870    1890.6203   -4387.4657   -4282.1371   -19339.923    11189.008    46.142235 
    7880       1816.7   -4384.1479   -4282.9375   -16544.073    11180.494     46.15433 
    7890    1870.7166   -4387.8886   -4283.6689   -15304.353    11171.646     46.13718 
    7900    1890.3875   -4389.6811   -4284.3655   -13646.174     11162.98    46.091471 
    7910     1870.906   -4389.2909   -4285.0606   -11383.072    11154.893    46.017355 
    7920     1861.499   -4389.4652    -4285.759    -9912.848    11147.476    45.918395 
    7930    1811.6946     -4387.34   -4286.4084   -7621.6045    11140.798    45.829816 
    7940    1879.5289   -4391.7309   -4287.0203   -6866.2863    11135.179    45.804769 
    7950    1952.6548   -4396.4796    -4287.695   -8510.4272    11130.741    45.851748 
    7960      1880.18   -4393.2029   -4288.4559   -8787.0284    11127.229    45.945393 
    7970    1843.9471   -4391.9541   -4289.2258   -9792.3387    11124.485    46.059402 
    7980    1841.6942   -4392.5858    -4289.983   -11265.551    11122.488    46.165077 
    7990    1777.9596   -4389.7416   -4290.6894   -10352.924    11121.146    46.236763 
    8000    1757.8039   -4389.2332    -4291.304   -9504.1009    11120.366    46.275934 
    8010    1744.4721   -4388.9959   -4291.8094   -9958.8892    11120.192    46.287588 
    8020    1766.5588   -4390.6346   -4292.2177   -11984.851    11120.707    46.270934 
    8030    1810.2052   -4393.4105    -4292.562   -14027.301    11121.807    46.232155 
    8040    1802.0252   -4393.2712   -4292.8784   -14672.348    11123.154    46.189606 
    8050    1738.6836   -4390.0142   -4293.1502    -14075.93    11124.573    46.162172 
    8060    1730.2888   -4389.7339   -4293.3376    -14075.79    11126.158     46.14719 
    8070    1762.6772   -4391.6386   -4293.4378   -14951.065    11127.835    46.133079 
    8080    1765.2999   -4391.8103   -4293.4635   -15835.221    11129.303    46.104248 
    8090    1794.6726   -4393.4288   -4293.4456   -16720.036    11130.413    46.062107 
    8100    1789.3992   -4393.0852   -4293.3957   -16619.327    11131.225    46.043213 
    8110    1762.6986   -4391.5199   -4293.3179   -16129.728    11131.795    46.069404 
    8120    1787.9126   -4392.7927   -4293.1861   -16197.481    11132.242     46.12948 
    8130     1884.466   -4398.0251   -4293.0394   -16700.682    11132.703    46.202894 
    8140    1845.9469   -4395.7706   -4292.9308   -15112.927    11133.201    46.280079 
    8150    1808.6808   -4393.6458   -4292.8821   -13964.023     11133.75    46.341984 
    8160    1753.2629   -4390.4918   -4292.8156   -12622.146    11134.407    46.375319 
    8170    1838.0393   -4395.1195   -4292.7203   -13373.421     11135.37     46.37271 
    8180    1909.6477   -4399.0354   -4292.6468   -14046.262    11136.675    46.348941 
    8190    1831.1218   -4394.6805   -4292.6667   -12950.336    11138.325    46.333543 
    8200    1815.6834   -4393.9055   -4292.7517   -12831.739    11140.327    46.348907 
    8210    1824.0793   -4394.4945    -4292.873   -13538.301    11142.492    46.414539 
    8220    1807.7157   -4393.7474   -4293.0375    -13774.72     11144.59    46.520823 
    8230    1882.0179   -4398.1191   -4293.2698   -14630.878     11146.56    46.638127 
    8240    1984.0293   -4404.2235    -4293.691   -15588.654    11148.426    46.747552 
    8250    1965.9706   -4403.9487   -4294.4222   -15179.021    11150.154    46.829979 
    8260    1898.5013   -4401.2468   -4295.4791   -13304.426    11151.737    46.896588 
    8270    1848.0408   -4399.7062   -4296.7498   -11341.776    11153.294     46.97772 
    8280    1899.5543   -4404.0474   -4298.2211   -11492.765    11154.931    47.038752 
    8290    1835.2372   -4402.0532   -4299.8101   -12283.152     11156.64    47.070536 
    8300    1750.6068   -4398.8335   -4301.3052   -13728.431    11158.387    47.101792 
    8310     1721.199   -4398.4675   -4302.5775   -15372.209    11160.147    47.125524 
    8320    1754.1776   -4401.3538   -4303.6266   -17478.196    11161.825    47.112101 
    8330    1797.0176   -4404.6392   -4304.5254    -19249.54    11163.191    47.069484 
    8340    1749.4567   -4402.7577   -4305.2935   -18410.715    11164.159    47.019223 
    8350      1731.93   -4402.4029   -4305.9151   -17101.989    11164.889     46.97241 
    8360    1816.9406   -4407.6714   -4306.4476   -16835.705    11165.458    46.940426 
    8370    1856.4582   -4410.4101   -4306.9848   -16517.329    11165.832    46.935999 
    8380    1798.6284   -4407.7506    -4307.547   -16180.949     11166.05    46.952485 
    8390    1754.4834   -4405.8255   -4308.0812   -16741.508    11166.259    46.974735 
    8400    1790.2484    -4408.316   -4308.5792   -18003.308    11166.598    47.006724 
    8410    1849.8969   -4412.1513   -4309.0914   -17939.885    11166.963    47.050762 
    8420    1872.9616   -4414.0333   -4309.6885   -17020.954    11167.167    47.117324 
    8430    1816.5703    -4411.572   -4310.3688   -15342.515    11167.084    47.214042 
    8440    1757.2623   -4408.9557   -4311.0567   -13770.791    11166.855    47.330401 
[...]
   24900     308.2504   -4575.0632   -4557.8902   -20836.702    10064.204    51.315479 
   24910    308.73379   -4575.1455   -4557.9456   -21189.722    10069.639    51.339024 
   24920    303.40909   -4574.9252   -4558.0219   -22448.792    10079.814    51.389704 
   24930    304.71942   -4575.0617   -4558.0855   -24459.069    10093.087    51.463805 
   24940    304.83975   -4575.1033   -4558.1203   -26583.839    10107.196    51.552237 
   24950    302.35302    -4574.977   -4558.1325   -28239.941    10120.051    51.642191 
   24960    295.68718   -4574.6091    -4558.136   -29302.141    10129.937    51.718739 
   24970    288.86806   -4574.2353   -4558.1422   -29665.303    10135.526    51.764069 
   24980    295.11281   -4574.6064   -4558.1654   -29775.627    10135.994    51.762808 
   24990    299.27696   -4574.8815   -4558.2084   -29531.513    10131.349     51.71312 
   25000    304.48603   -4575.2205   -4558.2573   -28736.406    10122.712    51.630899 
   25010    303.15565   -4575.1761   -4558.2869   -27410.984    10112.319    51.542968 
   25020    305.50514   -4575.3151    -4558.295   -25855.245    10102.857    51.478287 
   25030    316.24645   -4575.9294    -4558.311   -24525.199    10096.317    51.451504 
   25040    311.27215    -4575.699   -4558.3576   -23529.339    10093.516    51.451715 
   25050    307.03901   -4575.5414   -4558.4359   -23308.533    10094.461    51.462265 
   25060    310.73398   -4575.8512   -4558.5399   -23840.518     10098.61    51.477145 
   25070    301.04613   -4575.4297   -4558.6581   -24761.289    10105.073    51.501841 
   25080    297.74676   -4575.3634   -4558.7756   -26071.238    10112.659    51.546055 
   25090    295.65048   -4575.3561   -4558.8851   -27100.174    10119.762    51.610635 
   25100    290.01131   -4575.1475   -4558.9906   -27496.905    10124.904    51.681428 
   25110    297.48136   -4575.6754   -4559.1024    -27641.61    10127.511    51.735971 
   25120    304.78412   -4576.2082   -4559.2283   -27765.434    10128.131    51.760181 
   25130    298.72691   -4576.0086   -4559.3662   -27885.132    10127.814    51.759574 
   25140    291.05716   -4575.7214   -4559.5062   -28065.111    10127.239    51.754602 
   25150    285.19098   -4575.5288   -4559.6405   -27992.737    10126.356    51.762511 
   25160    277.83461   -4575.2382   -4559.7597   -27158.128    10124.797    51.786458 
   25170    282.63771   -4575.6063   -4559.8603   -26213.369    10122.528    51.816883 
   25180    293.48894   -4576.2988   -4559.9482   -25682.023    10119.927    51.838147 
   25190    289.52712   -4576.1588    -4560.029   -25384.576    10117.535    51.839269 
   25200    280.35647   -4575.7164   -4560.0974   -25348.287    10115.895     51.82083 
   25210    285.92659    -4576.081   -4560.1517   -25773.356    10115.426    51.794793 
   25220    294.59595   -4576.6104   -4560.1981   -26238.221    10116.388    51.777555 
   25230    290.46608   -4576.4254   -4560.2433   -26246.481    10118.899    51.781275 
   25240    280.24058   -4575.8955    -4560.283   -25796.811    10123.058    51.809061 
   25250    288.61828   -4576.3903   -4560.3111   -25778.569    10128.971    51.858816 
   25260    301.04822    -4577.099   -4560.3273   -26244.894    10136.235    51.925059 
   25270    288.14154   -4576.3853   -4560.3326    -26812.32    10143.922     51.99707 
   25280    278.89097    -4575.858   -4560.3206   -27371.701    10151.089    52.063172 
   25290    277.69064   -4575.7496   -4560.2792   -27847.978    10156.717     52.11575 
   25300    269.55824   -4575.2207   -4560.2033   -28098.659     10159.73    52.149499 
   25310    281.01625   -4575.7437    -4560.088   -28729.197    10159.545    52.160159 
   25320    297.95959   -4576.5215   -4559.9218   -29092.312    10156.226    52.143211 
   25330    296.89127   -4576.2529   -4559.7128   -28750.752     10150.55     52.09826 
   25340    299.36862   -4576.1506   -4559.4725   -28435.356    10143.826    52.033881 
   25350    303.41771   -4576.1183   -4559.2146   -28158.025    10137.186    51.959704 
   25360    304.24465   -4575.9126   -4558.9628    -27694.76    10131.359    51.878994 
   25370    306.81387   -4575.8281   -4558.7351   -26974.672    10126.759    51.796548 
   25380    300.74486   -4575.2933   -4558.5385   -26102.036     10123.52    51.725414 
   25390    298.72306   -4575.0144   -4558.3722   -25798.956      10121.5    51.679661 
   25400     303.0059   -4575.1071   -4558.2263   -25571.443    10120.276    51.663991 
   25410    295.54603   -4574.5633   -4558.0981   -25177.147    10119.722    51.672055 
   25420    299.90238    -4574.692   -4557.9841   -25079.514    10120.331    51.693461 
   25430     316.8751    -4575.538   -4557.8845   -25442.979    10122.734    51.722673 
   25440    304.19021   -4574.7565   -4557.8097   -25384.422    10127.257    51.757086 
   25450    298.16287   -4574.3664   -4557.7554    -25668.91    10133.947    51.791412 
   25460    311.03343   -4575.0316   -4557.7036   -26333.718    10142.447    51.825771 
   25470     316.6806   -4575.2998   -4557.6572   -26749.712    10152.014    51.868076 
   25480    312.01872   -4575.0032   -4557.6203   -27075.564    10161.848    51.926201 
   25490    313.51033   -4575.0559   -4557.5899   -27452.823    10170.926    51.999345 
   25500    316.38868   -4575.1993   -4557.5729    -27918.29    10178.392    52.081746 
   25510    312.05791    -4574.961   -4557.5759   -28684.089    10183.924    52.166434 
   25520    317.90872    -4575.312   -4557.6009   -29579.154    10187.533    52.244813 
   25530    314.70598   -4575.1826     -4557.65     -29948.7    10189.304    52.308074 
   25540    303.36473   -4574.6177    -4557.717   -29652.511    10189.429    52.351927 
   25550    303.83674   -4574.7205   -4557.7934   -29603.905     10188.29    52.378652 
   25560     299.2743   -4574.5457   -4557.8728   -29334.862    10186.463    52.392715 
   25570    303.64908   -4574.8699   -4557.9533   -28939.247    10184.814    52.400872 
   25580    315.29237   -4575.6113    -4558.046   -28806.805    10183.939    52.410595 
   25590    312.82305   -4575.5844   -4558.1567     -28614.6    10183.801    52.422594 
   25600    322.79293   -4576.2744   -4558.2912   -28482.313    10184.144    52.431275 
   25610    320.25922    -4576.299    -4558.457   -28163.657    10184.615    52.431303 
   25620    291.71135   -4574.8813   -4558.6298   -27284.012    10185.026    52.425294 
   25630    290.94013   -4574.9957   -4558.7871   -26656.242    10185.991    52.425687 
   25640    302.58152   -4575.7955   -4558.9383   -26598.536    10188.385    52.446388 
   25650    293.65502   -4575.4427   -4559.0829   -27103.948      10192.6    52.493788 
   25660    288.01179   -4575.2528   -4559.2073   -28131.223     10198.31    52.560952 
   25670    290.39323   -4575.4811    -4559.303   -29137.745    10204.515    52.628668 
   25680    294.88116   -4575.8025   -4559.3744   -29702.333    10209.882    52.680694 
   25690    303.15944   -4576.3255   -4559.4362   -29712.198    10213.439    52.712651 
   25700     310.7599   -4576.8158    -4559.503   -29373.257    10214.956    52.725185 
   25710    301.06141    -4576.349   -4559.5765   -28813.986     10214.78    52.720468 
   25720    283.00847   -4575.4075   -4559.6407   -28391.069    10213.604    52.702104 
   25730    279.57318   -4575.2578   -4559.6824   -28303.141    10212.049    52.674666 
   25740    288.01447   -4575.7475   -4559.7019   -28480.511    10210.427    52.647262 
   25750    293.33531   -4576.0493   -4559.7072   -28208.297    10208.822    52.629858 
   25760    292.78012   -4576.0158   -4559.7047   -27600.861    10207.182     52.62334 
   25770    291.82627   -4575.9529    -4559.695   -26704.385    10205.319    52.614159 
   25780    294.46498   -4576.0836   -4559.6786    -26197.83    10203.071    52.584598 
   25790    295.17202   -4576.1017   -4559.6574   -26381.153    10200.245    52.531465 
   25800    295.83037   -4576.1135   -4559.6324   -26560.847    10196.679    52.469763 
   25810     302.8585   -4576.4779   -4559.6053   -26541.907    10192.367    52.417977 
   25820    306.44402   -4576.6531   -4559.5808   -26485.131    10187.463    52.386009 
   25830    296.09829   -4576.0534   -4559.5574   -26162.107    10182.383    52.373513 
   25840    301.80577   -4576.3439   -4559.5299   -25714.099     10177.98    52.369863 
   25850    306.30686   -4576.5689   -4559.5042   -25226.142    10175.166    52.364269 
   25860    290.42636   -4575.6644   -4559.4844   -24745.257    10174.481    52.357562 
   25870    298.01237   -4576.0675   -4559.4649   -25263.493    10175.964    52.354829 
   25880    306.01574     -4576.49   -4559.4415   -26226.677     10178.89    52.359116 
   25890    291.12307   -4575.6339   -4559.4151   -26758.898    10182.171    52.373795 
   25900     297.7018   -4575.9668   -4559.3815   -27247.757    10184.838    52.396692 
   25910    308.75681    -4576.544   -4559.3428   -27247.899    10186.106    52.416153 
   25920    299.18133   -4575.9758    -4559.308   -26352.619     10185.87    52.422386 
   25930    303.44892   -4576.1781   -4559.2726   -25526.879    10184.772    52.414625 
   25940        318.2   -4576.9623    -4559.235   -25052.136    10183.567    52.396831 
   25950    317.24367   -4576.8814   -4559.2074   -24517.675    10183.019    52.375415 
   25960    315.30194   -4576.7658   -4559.1999    -24587.82    10183.859     52.35648 
   25970    307.52274   -4576.3426   -4559.2101   -25279.444    10186.196    52.342754 
   25980    306.04391   -4576.2848   -4559.2348   -26170.652    10189.683    52.339135 
   25990    299.77253   -4575.9705   -4559.2699   -26719.647    10193.664    52.351908 
   26000    288.62565    -4575.387   -4559.3073   -26735.032    10197.049    52.380634 
   26010     294.4785   -4575.7537    -4559.348   -26983.806    10198.811    52.418872 
   26020    285.75832   -4575.3113   -4559.3914   -26975.936    10198.316    52.452677 
   26030    281.84487   -4575.1328   -4559.4309   -27029.724    10195.519    52.464743 
   26040    300.08306   -4576.1797   -4559.4617   -27159.056    10190.783    52.443088 
   26050    311.54899   -4576.8494   -4559.4926   -26735.215    10184.722    52.389041 
   26060     303.5445   -4576.4424   -4559.5316   -25755.117    10178.125    52.321792 
   26070    284.71516   -4575.4297   -4559.5679   -24907.426    10171.905    52.265458 
   26080    285.19376   -4575.4789   -4559.5904   -24856.279    10166.736    52.231586 
   26090    304.41618   -4576.5663   -4559.6069   -25082.482    10162.614    52.218006 
   26100    295.86273   -4576.1056   -4559.6228   -24786.824    10159.357    52.217282 
   26110     295.4169   -4576.0958   -4559.6378   -24717.905    10157.297    52.225712 
   26120    304.47618   -4576.6168   -4559.6541   -24875.769    10156.753     52.24286 
   26130    293.64664    -4576.032   -4559.6726   -24818.351    10157.721    52.265998 
   26140    295.11895   -4576.1313   -4559.6899   -25273.902    10159.974    52.288825 
   26150    294.20035   -4576.0906   -4559.7003   -25904.213    10162.951    52.304594 
   26160    282.80077   -4575.4556   -4559.7004   -26219.985     10166.06    52.311903 
   26170    288.64611   -4575.7668    -4559.686   -26450.588    10169.104     52.31735 
   26180    291.72278   -4575.9091   -4559.6569   -26368.544    10172.066    52.328431 
   26190    285.02983   -4575.4937   -4559.6144   -26421.258    10174.921    52.346366 
   26200    295.64171    -4576.027   -4559.5565   -27088.812    10177.403    52.363961 
   26210    302.70663   -4576.3504   -4559.4863   -27586.716    10178.821    52.371022 
   26220    305.85332   -4576.4568   -4559.4174   -27726.621    10178.525    52.359312 
   26230     313.9583   -4576.8484   -4559.3574   -27505.757    10176.179    52.321385 
   26240    307.78365   -4576.4556   -4559.3086   -26469.606    10172.021    52.255145 
   26250    297.85832    -4575.857    -4559.263   -25570.885    10167.036    52.173635 
   26260    296.02105   -4575.7019   -4559.2102   -25243.007    10162.323    52.102221 
   26270    295.90213    -4575.634    -4559.149   -25398.297      10158.7    52.063893 
   26280    297.34733   -4575.6476    -4559.082   -25669.985    10156.611     52.06588 
   26290    298.18642   -4575.6246   -4559.0123    -25789.36    10156.275    52.098157 
   26300    288.04328   -4574.9854   -4558.9382   -25742.689    10157.644    52.140549 
   26310    288.98379   -4574.9512   -4558.8516   -26010.064    10160.238    52.174055 
   26320    305.95837   -4575.7921   -4558.7468   -26535.813    10163.417    52.194175 
   26330    310.28528   -4575.9214    -4558.635   -26793.245     10166.62    52.212188 
   26340    315.08776   -4576.0856   -4558.5317   -26494.969    10169.469    52.242396 
   26350    313.78014   -4575.9228   -4558.4418   -25899.404    10172.065    52.292476 
   26360    309.85349   -4575.6287   -4558.3664   -25479.486    10174.775    52.358095 
   26370    319.64961   -4576.1112   -4558.3032   -25442.408    10177.709    52.425991 
   26380    316.87553   -4575.9095    -4558.256   -25627.609    10180.704    52.484559 
   26390    308.22085   -4575.3994   -4558.2281   -25633.947    10183.717    52.529594 
   26400     301.6554   -4575.0163   -4558.2107   -25600.175    10186.948    52.560865 
   26410    293.72652   -4574.5566   -4558.1927   -25539.304    10190.538    52.580518 
   26420    306.24624   -4575.2306   -4558.1692    -25753.56     10194.28    52.595185 
   26430    317.22589    -4575.821    -4558.148   -26105.296    10197.839    52.613226 
   26440    314.75263   -4575.6774   -4558.1421   -26515.986    10201.018    52.639168 
   26450    322.33125   -4576.1154   -4558.1579    -27223.23    10203.777    52.673072 
   26460    320.51309    -4576.059   -4558.2029    -27763.68    10206.079    52.709616 
   26470    302.67765   -4575.1361   -4558.2736    -27816.74     10207.91    52.743179 
   26480    298.82439   -4575.0068    -4558.359   -27644.067    10209.207    52.770384 
   26490    301.45147   -4575.2487   -4558.4545   -27521.718    10209.749    52.790579 
   26500    312.29686   -4575.9696   -4558.5712   -27952.585    10209.282    52.804166 
   26510    309.07283   -4575.9382   -4558.7194   -28327.284    10207.661    52.810868 
   26520    292.82523   -4575.1984   -4558.8848   -28232.288    10204.963    52.811902 
   26530    302.76536   -4575.9272   -4559.0598   -28247.053    10201.577    52.809095 
   26540    303.40356   -4576.1524   -4559.2494   -27968.674    10197.977    52.801647 
   26550    290.32793   -4575.6103   -4559.4358   -27178.111    10194.718    52.790398 
   26560    300.06309   -4576.3305   -4559.6137   -26729.507    10192.575    52.784251 
   26570    306.53185    -4576.871   -4559.7938   -26670.535    10192.215    52.788481 
   26580    298.38317   -4576.5921   -4559.9689   -26595.623    10193.832    52.798161 
   26590     302.1519    -4576.965   -4560.1318   -26423.893    10197.154    52.807989 
   26600    301.12433   -4577.0585   -4560.2826   -26016.923    10201.856    52.827074 
   26610    291.79221   -4576.6727   -4560.4166   -25901.081    10207.974    52.873624 
   26620    286.44438   -4576.4867   -4560.5286   -26421.213    10215.697    52.954476 
   26630    276.30475    -4576.002   -4560.6088    -27055.65    10224.861    53.056481 
   26640    276.13249   -4576.0317   -4560.6481   -27748.471    10234.792    53.157992 
   26650    284.59909   -4576.5029   -4560.6476   -28665.181    10244.215    53.240123 
   26660    278.56019   -4576.1395   -4560.6206   -29017.688    10251.739    53.291422 
   26670    278.37253   -4576.0885     -4560.58   -29042.997    10256.695    53.308554 
   26680    290.09847   -4576.6908   -4560.5291   -29482.198    10259.145    53.298457 
   26690    296.10168   -4576.9707   -4560.4745   -29969.797    10259.547    53.281758 
   26700    287.15875    -4576.417    -4560.419   -29646.767    10258.516    53.277879 
   26710    284.71145   -4576.2183   -4560.3567    -28750.52    10256.764    53.292236 
   26720     290.6642   -4576.4754   -4560.2822    -27483.89    10254.908    53.321736 
   26730    287.82774   -4576.2343   -4560.1991   -26355.837    10253.433    53.359629 
   26740    282.19845   -4575.8316     -4560.11    -25982.74    10252.593    53.392589 
   26750    276.65684   -4575.4227   -4560.0099    -26265.22    10252.414     53.40742 
   26760    278.83042   -4575.4284   -4559.8945   -26822.394    10252.806    53.403495 
   26770    295.45723   -4576.2251   -4559.7649       -27273    10253.641    53.393572 
   26780    301.29896   -4576.4195   -4559.6338   -27105.194    10254.822    53.391009 
   26790    292.79867   -4575.8276   -4559.5154   -26553.374    10256.306    53.398705 
   26800    290.99995   -4575.6174   -4559.4055   -26487.748    10257.984    53.408979 
   26810    297.71668   -4575.8843   -4559.2982   -27316.081    10259.423    53.409291 
   26820    297.82615   -4575.7903   -4559.1981   -28131.458     10260.18    53.394168 
   26830     300.8908   -4575.8725   -4559.1095   -28560.758    10260.116    53.367167 
   26840    308.18339   -4576.2018   -4559.0326   -28400.805    10259.086    53.332493 
   26850    318.35635   -4576.7101   -4558.9741   -27626.311    10257.038    53.294544 
   26860    318.65806   -4576.6929   -4558.9401   -26881.426    10254.252    53.256291 
   26870     308.9106   -4576.1367   -4558.9269   -26400.604    10251.219    53.219287 
   26880    309.36851   -4576.1621   -4558.9269   -26200.117    10248.536    53.186065 
   26890    298.35803   -4575.5554   -4558.9335   -26110.567    10246.669    53.156749 
   26900    289.95262   -4575.0921   -4558.9385   -26435.284    10245.717     53.13072 
   26910    298.38124   -4575.5602    -4558.937   -27048.626    10245.553    53.113511 
   26920    295.95819   -4575.4199   -4558.9317    -27137.34    10246.002    53.113703 
   26930    287.10834   -4574.9159   -4558.9207   -27314.693    10246.986    53.133784 
   26940    300.58804   -4575.6473   -4558.9012   -27834.027    10248.317    53.166197 
   26950    311.17124   -4576.2171   -4558.8814   -27958.663    10249.854    53.199979 
   26960    301.25048   -4575.6538   -4558.8708   -27341.433     10251.72    53.229032 
   26970    300.28938   -4575.5946   -4558.8651   -27262.908    10254.114    53.255855 
   26980    304.78341     -4575.84   -4558.8601   -27613.267    10256.923    53.287253 
   26990    297.59995   -4575.4367   -4558.8571    -27941.97    10259.778    53.322048 
   27000    285.75932   -4574.7701   -4558.8501   -27908.082    10262.373    53.351739 
Loop time of 4032.6 on 16 procs for 10000 steps with 432 atoms

Performance: 0.214 ns/day, 112.017 hours/ns, 2.480 timesteps/s
95.3% CPU use with 16 MPI tasks x 1 OpenMP threads

MPI task timing breakdown:
Section |  min time  |  avg time  |  max time  |%varavg| %total
---------------------------------------------------------------
Pair    | 716.71     | 2160.1     | 3909.3     |2305.7 | 53.57
Bond    | 0.00077581 | 0.0025471  | 0.0050755  |   2.3 |  0.00
Neigh   | 0.033593   | 0.07657    | 0.15494    |  16.0 |  0.00
Comm    | 117.39     | 1402.2     | 2396.6     |2200.9 | 34.77
Output  | 4.8913     | 4.9032     | 5.0769     |   2.0 |  0.12
Modify  | 0.6423     | 465.23     | 1858.6     |3729.4 | 11.54
Other   |            | 0.04283    |            |       |  0.00

Nlocal:        27.0000 ave          50 max          13 min
Histogram: 3 2 6 1 0 0 0 0 1 3
Nghost:        368.312 ave         484 max         212 min
Histogram: 4 0 0 0 0 0 8 0 0 4
Neighs:         0.00000 ave           0 max           0 min
Histogram: 16 0 0 0 0 0 0 0 0 0
FullNghs:      1344.50 ave        3342 max         287 min
Histogram: 4 3 5 0 0 0 0 0 1 3

Total # of neighbors = 21512
Ave neighs/atom = 49.796296
Ave special neighs/atom = 0.0000000
Neighbor list builds = 997
Dangerous builds = 976
unfix   4

write_data  structureB.data
System init for write_data ...
            
Total wall time: 3:15:45
