LAMMPS (29 Sep 2021 - Update 3)
OMP_NUM_THREADS environment is not set. Defaulting to 1 thread. (src/comm.cpp:98)
  using 1 OpenMP thread(s) per MPI task
units	metal
atom_style	full

read_data	mixed.data
Reading data file ...
  orthogonal box = (0.0000000 0.0000000 0.0000000) to (15.857269 15.758596 73.856324)
  2 by 1 by 8 MPI processor grid
  reading atoms ...
  864 atoms
Finding 1-2 1-3 1-4 neighbors ...
  special bond factors lj:    0        0        0       
  special bond factors coul:  0        0        0       
     0 = max # of 1-2 neighbors
     0 = max # of 1-3 neighbors
     0 = max # of 1-4 neighbors
     1 = max # of special neighbors
  special bonds CPU = 0.002 seconds
  read_data CPU = 0.022 seconds

pair_style	quip
pair_coeff	* * /ocean/projects/cts180021p/wuziqi/clease/mint-PD/PhaseDiagram-Clease/Liquid/GAP_potential/gap_LiKCl.xml "Potential xml_label=GAP_2021_9_27_0_1_17_37_618" 17 19 3

neighbor	0.3 bin
neigh_modify	delay 10

timestep	0.001
compute	msd all msd
thermo_style	custom step temp pe etotal press vol c_msd[4]
thermo	10
dump	1 all custom 10 xyz-mix.dump type id x y z
dump	2 all custom 10 force-mix.dump type id fx fy fz

fix     1 all nve
run     2000
Neighbor list info ...
  update every 1 steps, delay 10 steps, check yes
  max neighbors/atom: 2000, page size: 100000
  master list distance cutoff = 6.22
  ghost atom cutoff = 6.22
  binsize = 3.11, bins = 6 6 24
  1 neighbor lists, perpetual/occasional/extra = 1 0 0
  (1) pair quip, perpetual
      attributes: full, newton on
      pair build: full/bin
      stencil: full/bin/3d
      bin: standard
Per MPI rank memory allocation (min/avg/max) = 8.896 | 8.907 | 8.915 Mbytes
Step Temp PotEng TotEng Press Volume c_msd[4] 
       0            0   -6680.0933   -6680.0933   -8281.1165    18455.831            0 
      10    70.089017   -6687.9205    -6680.102   -9637.9304    18455.831 0.00053514082 
      20    180.09083   -6700.2003   -6680.1109   -11326.743    18455.831 0.0066144209 
      30    218.60542   -6704.4933   -6680.1075   -10699.378    18455.831  0.022432956 
      40    219.14865   -6704.5494    -6680.103   -8951.3193    18455.831  0.042690684 
      50    240.47609   -6706.9311   -6680.1056   -8003.5149    18455.831  0.059191698 
      60    253.66901   -6708.4039   -6680.1068    -7626.627    18455.831   0.07070925 
      70     242.9182   -6707.2018   -6680.1039   -7466.6829    18455.831  0.079364222 
      80    245.92472    -6707.537   -6680.1038   -7609.4954    18455.831  0.086633288 
      90    257.49674   -6708.8305   -6680.1063   -7851.5904    18455.831  0.095173812 
     100    252.46946   -6708.2676   -6680.1043   -7551.0395    18455.831   0.10676573 
     110    248.46405   -6707.8212   -6680.1047   -7097.6705    18455.831   0.12025968 
     120    250.68872   -6708.0687    -6680.104   -6824.8497    18455.831   0.13340609 
     130      258.818   -6708.9777   -6680.1062   -6596.3887    18455.831   0.14573975 
     140    253.60976   -6708.3953   -6680.1047   -6185.2051    18455.831   0.15889724 
     150    247.40375   -6707.7026   -6680.1043   -5947.5032    18455.831   0.17318983 
     160    248.95468   -6707.8762   -6680.1049   -5851.7986    18455.831   0.18766652 
     170    251.06346   -6708.1121   -6680.1056   -5590.4969    18455.831   0.20144657 
     180    246.23782    -6707.572   -6680.1038   -5247.2261    18455.831   0.21382042 
     190    251.48989   -6708.1586   -6680.1045   -5416.1608    18455.831   0.22371169 
     200    260.44308   -6709.1586   -6680.1058   -5793.9896    18455.831   0.23141162 
     210    257.82494   -6708.8658    -6680.105   -6133.6533    18455.831   0.23844771 
     220    250.73963   -6708.0747   -6680.1043   -6257.2025    18455.831   0.24564622 
     230    248.07271   -6707.7773   -6680.1044   -6243.0592    18455.831   0.25309034 
     240    248.93862   -6707.8742   -6680.1047   -6226.9294    18455.831   0.26091643 
     250    248.99388   -6707.8804   -6680.1047   -6334.5414    18455.831   0.26913526 
     260    251.27669   -6708.1344   -6680.1041   -6551.8246    18455.831   0.27705303 
     270    260.34527   -6709.1477   -6680.1058        -6764    18455.831   0.28421607 
     280    260.83001   -6709.2011   -6680.1051   -6639.8092    18455.831   0.29163604 
     290    256.24266   -6708.6893    -6680.105   -6449.9322    18455.831   0.29974682 
     300    250.69638     -6708.07   -6680.1044   -6471.1016    18455.831   0.30849754 
     310    250.05901    -6707.999   -6680.1046   -6562.0942    18455.831   0.31777754 
     320    252.23509   -6708.2423   -6680.1051   -6693.6464    18455.831   0.32755563 
     330    250.81469   -6708.0833   -6680.1046   -6713.8004    18455.831   0.33779883 
     340    250.65515   -6708.0657   -6680.1047     -6614.52    18455.831   0.34801692 
     350    252.94275   -6708.3202   -6680.1041   -6588.7327    18455.831   0.35730468 
     360    261.50627   -6709.2774    -6680.106   -6797.9362    18455.831   0.36504658 
     370    261.10007   -6709.2316   -6680.1055   -6831.7443    18455.831   0.37190178 
     380    253.99916   -6708.4387   -6680.1047   -6726.1215    18455.831   0.37827271 
     390    253.05009   -6708.3325   -6680.1044    -6835.806    18455.831   0.38397661 
     400    258.03703   -6708.8906   -6680.1062   -6768.7818    18455.831   0.38955387 
     410      252.036   -6708.2195   -6680.1045   -6292.4532    18455.831   0.39652014 
     420    250.52201   -6708.0507   -6680.1046   -5826.2725    18455.831   0.40500255 
     430    256.29495   -6708.6954   -6680.1053    -5546.315    18455.831    0.4145153 
     440    262.43605   -6709.3808   -6680.1057   -5439.0868    18455.831   0.42473971 
     450    264.26046   -6709.5844   -6680.1058   -5272.9671    18455.831   0.43527985 
     460    262.52327   -6709.3894   -6680.1046   -5195.9426    18455.831   0.44476232 
     470    267.68384   -6709.9661   -6680.1056   -5304.7962    18455.831   0.45177569 
     480    270.55653   -6710.2863   -6680.1053   -5291.2639    18455.831   0.45687774 
     490    270.72724   -6710.3054   -6680.1053   -5218.7322    18455.831   0.46120142 
     500    269.05227   -6710.1187   -6680.1055   -5175.8745    18455.831   0.46642946 
     510    263.94553   -6709.5489   -6680.1053   -5239.9274    18455.831   0.47407361 
     520    257.63711   -6708.8446   -6680.1048   -5291.7388    18455.831   0.48412853 
     530    257.06548   -6708.7811   -6680.1051   -5321.5334    18455.831   0.49506416 
     540    260.38526   -6709.1518   -6680.1055   -5376.0867    18455.831   0.50501047 
     550    260.91759   -6709.2118    -6680.106    -5479.615    18455.831   0.51322197 
     560    255.01677   -6708.5518   -6680.1043   -5675.0057    18455.831   0.52041437 
     570     259.1908   -6709.0183   -6680.1051   -6233.3417    18455.831    0.5272333 
     580    265.73933   -6709.7494   -6680.1058   -6810.0612    18455.831   0.53425593 
     590    267.07214   -6709.8973    -6680.105   -7271.0617    18455.831   0.54173358 
     600    270.59769   -6710.2906    -6680.105   -7669.4363    18455.831   0.54966243 
     610    275.51295   -6710.8394   -6680.1055   -7859.4286    18455.831   0.55825095 
     620    275.26386   -6710.8118   -6680.1057   -7564.3126    18455.831   0.56786247 
     630    267.62803    -6709.959   -6680.1047   -6980.9593    18455.831   0.57832835 
     640    265.09163   -6709.6761   -6680.1047   -6568.2152    18455.831   0.58820723 
     650    267.67247   -6709.9653    -6680.106    -6347.284    18455.831   0.59641333 
     660    264.01415   -6709.5562    -6680.105   -5916.0469    18455.831   0.60309646 
     670    263.52965    -6709.502   -6680.1049   -5671.0684    18455.831   0.60844331 
     680    269.00124    -6710.113   -6680.1055   -5692.2827    18455.831    0.6132683 
     690    271.45591    -6710.387   -6680.1057   -5574.8525    18455.831   0.61933075 
     700     270.0884   -6710.2336   -6680.1048   -5412.3704    18455.831   0.62727776 
     710    274.16504    -6710.689   -6680.1055   -5445.9009    18455.831   0.63604213 
     720    276.77226   -6710.9801   -6680.1057   -5459.4182    18455.831   0.64454539 
     730    275.88502   -6710.8806   -6680.1052    -5417.932    18455.831   0.65171241 
     740    275.85971   -6710.8783   -6680.1057   -5536.9233    18455.831   0.65662341 
     750    272.97993   -6710.5569   -6680.1056   -5708.1328    18455.831    0.6598394 
     760    268.28422    -6710.033   -6680.1055   -5761.8441    18455.831   0.66298993 
     770    264.14144   -6709.5705   -6680.1051   -5775.8492    18455.831   0.66717813 
     780    263.51726    -6709.501   -6680.1053   -5700.2554    18455.831   0.67265545 
     790    266.55703   -6709.8409    -6680.106    -5605.591    18455.831   0.67864068 
     800    265.59911   -6709.7343   -6680.1063   -5512.5062    18455.831   0.68325498 
     810    257.26872   -6708.8037    -6680.105    -5609.846    18455.831   0.68551207 
     820    257.02246   -6708.7759   -6680.1047   -5957.2323    18455.831   0.68532325 
     830    268.49996   -6710.0576    -6680.106   -6395.3276    18455.831   0.68384718 
     840      275.603   -6710.8497   -6680.1057   -6790.5333    18455.831   0.68323699 
     850    277.81756   -6711.0961   -6680.1052   -7039.0507    18455.831   0.68429619 
     860    281.61629     -6711.52   -6680.1053    -7112.387    18455.831   0.68675849 
     870    285.63694   -6711.9688   -6680.1055   -6936.0551    18455.831    0.6904508 
     880    286.29079   -6712.0419   -6680.1057   -6480.6542    18455.831   0.69538495 
     890    281.96956   -6711.5596   -6680.1055   -6039.8274    18455.831   0.70113257 
     900    274.65893   -6710.7442   -6680.1055     -5564.23    18455.831   0.70667182 
     910    267.20366   -6709.9114   -6680.1045   -5257.3591    18455.831   0.71136984 
     920     269.3838   -6710.1555   -6680.1053    -5367.122    18455.831   0.71512054 
     930    273.08823   -6710.5689   -6680.1055   -5720.7294    18455.831   0.71853359 
     940    275.14424   -6710.7982   -6680.1055   -5917.6904    18455.831   0.72236347 
     950    276.67291   -6710.9689   -6680.1056   -5610.0935    18455.831   0.72713733 
     960    276.62748   -6710.9635   -6680.1053   -5046.3658    18455.831   0.73337224 
     970     278.3434   -6711.1556   -6680.1059   -4610.3497    18455.831   0.74121898 
     980    276.50421   -6710.9503   -6680.1058   -4305.2609    18455.831   0.75038076 
     990    274.46428   -6710.7216   -6680.1047   -4327.9119    18455.831   0.75935205 
    1000    282.87647   -6711.6614   -6680.1061   -4696.6429    18455.831   0.76641954 
    1010    286.63377   -6712.0812   -6680.1068   -4990.2699    18455.831   0.77271728 
    1020    279.06324   -6711.2352   -6680.1053   -4771.2676    18455.831   0.78024384 
    1030    275.82234   -6710.8738   -6680.1054    -4403.339    18455.831   0.78871428 
    1040    278.66942   -6711.1919   -6680.1059   -3941.2604    18455.831   0.79675694 
    1050    279.04998   -6711.2352   -6680.1068   -3356.1301    18455.831   0.80429238 
    1060    270.39607   -6710.2685   -6680.1054   -2836.7873    18455.831   0.81167046 
    1070    268.92869   -6710.1046   -6680.1052   -2775.6081    18455.831   0.81774479 
    1080    276.86697   -6710.9921   -6680.1072   -2982.0197    18455.831   0.82183502 
    1090    273.51021   -6710.6167   -6680.1062   -3002.8881    18455.831   0.82504043 
    1100    268.10286   -6710.0129   -6680.1056    -3041.916    18455.831   0.82859974 
    1110    268.86345   -6710.0983   -6680.1061   -3274.5241    18455.831   0.83307382 
    1120    271.12867   -6710.3511   -6680.1063   -3502.0504    18455.831   0.83788345 
    1130    271.41072   -6710.3825   -6680.1063   -3567.0764    18455.831   0.84210043 
    1140    271.86949   -6710.4327   -6680.1053   -3657.0206    18455.831   0.84510588 
    1150    281.86599   -6711.5491   -6680.1065   -4076.7437    18455.831    0.8468347 
    1160    288.73127   -6712.3154    -6680.107   -4317.2032    18455.831    0.8485126 
    1170    284.72713   -6711.8682   -6680.1065   -4221.6867    18455.831   0.85124425 
    1180    277.76624   -6711.0907   -6680.1055   -3786.2546    18455.831   0.85522238 
    1190    278.42764   -6711.1658   -6680.1068   -3453.5254    18455.831   0.86063272 
    1200    274.57485   -6710.7358   -6680.1066   -3135.4804    18455.831   0.86799772 
    1210    268.17301   -6710.0207   -6680.1056   -3061.7485    18455.831   0.87596914 
    1220    269.73514   -6710.1951   -6680.1058   -3498.6687    18455.831   0.88197829 
    1230    275.57277   -6710.8475    -6680.107   -3998.6686    18455.831   0.88464671 
    1240    273.28864   -6710.5919   -6680.1062   -4275.4959    18455.831   0.88485118 
    1250    269.21341   -6710.1371    -6680.106   -4301.1389    18455.831   0.88413656 
    1260    268.47841   -6710.0549   -6680.1057   -4311.1873    18455.831   0.88296339 
    1270    272.54156   -6710.5085   -6680.1061   -4356.8217    18455.831   0.88172746 
    1280    277.77621   -6711.0926   -6680.1063   -4588.2508    18455.831   0.88180594 
    1290    280.19269   -6711.3629    -6680.107   -4852.3632    18455.831   0.88389526 
    1300    274.38994   -6710.7142   -6680.1056   -4801.0391    18455.831   0.88737003 
    1310    272.68687   -6710.5248   -6680.1062   -4600.8128    18455.831   0.89133871 
    1320    273.33879   -6710.5972   -6680.1059   -4506.2257    18455.831   0.89528436 
    1330    275.86937     -6710.88   -6680.1064   -4590.7459    18455.831   0.89889495 
    1340    276.57557   -6710.9584    -6680.106   -4592.8619    18455.831   0.90245999 
    1350    276.61512   -6710.9634   -6680.1066   -4506.7758    18455.831   0.90646299 
    1360    272.26073   -6710.4771    -6680.106   -4467.2196    18455.831   0.91136845 
    1370    268.73878   -6710.0839   -6680.1057   -4589.1112    18455.831   0.91701889 
    1380    269.83102   -6710.2061    -6680.106   -4803.1401    18455.831   0.92344131 
    1390    271.01809   -6710.3391   -6680.1066   -4995.7936    18455.831   0.93117145 
    1400    266.53417   -6709.8383   -6680.1061   -4887.7324    18455.831   0.93925395 
    1410    264.34979   -6709.5941   -6680.1054   -4661.6641    18455.831   0.94440069 
    1420    271.24246   -6710.3639   -6680.1064   -4782.1646    18455.831   0.94464645 
    1430    278.14891   -6711.1341   -6680.1062   -5345.1098    18455.831   0.94130273 
    1440    284.26073    -6711.816   -6680.1063   -5956.3496    18455.831    0.9366539 
    1450    286.06102   -6712.0176    -6680.107   -6473.9841    18455.831   0.93338269 
    1460    278.13817   -6711.1322   -6680.1055    -6637.014    18455.831   0.93336514 
    1470    274.95588   -6710.7774   -6680.1057   -6848.7234    18455.831   0.93597431 
    1480    275.34081   -6710.8209   -6680.1062   -7017.9963    18455.831   0.93943367 
    1490    271.96867   -6710.4442   -6680.1057   -6827.7136    18455.831   0.94245071 
    1500    271.43894   -6710.3851   -6680.1057   -6399.8258    18455.831   0.94456699 
    1510    273.11981   -6710.5738   -6680.1069   -5919.9683    18455.831   0.94612167 
    1520    266.58025   -6709.8431   -6680.1057   -5429.0631    18455.831   0.94681802 
    1530    264.24493   -6709.5825   -6680.1056   -5386.7007    18455.831   0.94511663 
    1540    268.14703   -6710.0187   -6680.1065   -5636.8718    18455.831   0.94138542 
    1550    270.20911    -6710.248   -6680.1058   -5845.7424    18455.831   0.93815309 
    1560    276.27553   -6710.9252   -6680.1062   -5792.6983    18455.831   0.93754478 
    1570    281.48981   -6711.5074   -6680.1068   -5440.6487    18455.831   0.94039184 
    1580    279.21915   -6711.2534    -6680.106   -4999.2991    18455.831   0.94601391 
    1590     277.1071   -6711.0177    -6680.106   -4867.2447    18455.831   0.95254979 
    1600    278.30993   -6711.1519    -6680.106   -4854.7315    18455.831   0.95811089 
    1610    283.09805   -6711.6862   -6680.1062   -4922.4033    18455.831   0.96206314 
    1620    285.07138   -6711.9077   -6680.1076   -4696.0901    18455.831   0.96577017 
    1630    273.23535   -6710.5854   -6680.1056   -4246.7962    18455.831   0.97096923 
    1640     267.7179   -6709.9697   -6680.1053   -4035.6486    18455.831     0.977191 
    1650    272.52244   -6710.5064   -6680.1061   -4111.8074    18455.831   0.98346373 
    1660     277.8589   -6711.1018   -6680.1062   -4253.7363    18455.831   0.98934697 
    1670    281.07361    -6711.461   -6680.1068   -4561.0787    18455.831   0.99446833 
    1680    278.83973   -6711.2107   -6680.1057   -4801.2753    18455.831   0.99855733 
    1690    282.27607   -6711.5942   -6680.1059   -5070.8212    18455.831    1.0013333 
    1700    288.92729   -6712.3376   -6680.1074   -5075.7299    18455.831    1.0032748 
    1710    283.97303   -6711.7838   -6680.1062   -4524.3033    18455.831    1.0056492 
    1720    280.32496   -6711.3763   -6680.1056   -4088.2037    18455.831    1.0090707 
    1730    285.00962   -6711.9005   -6680.1072   -4166.6509    18455.831    1.0129097 
    1740    281.71349    -6711.532   -6680.1064   -4428.6075    18455.831    1.0162807 
    1750    277.27178   -6711.0355   -6680.1055   -4669.9286    18455.831    1.0185587 
    1760    282.23006   -6711.5895   -6680.1063   -4723.6015    18455.831    1.0199448 
    1770    285.90961   -6712.0006   -6680.1069   -4414.9618    18455.831      1.02094 
    1780    282.38129   -6711.6061    -6680.106   -3873.7091    18455.831    1.0213084 
    1790    282.44165    -6711.613   -6680.1062   -3619.8434    18455.831    1.0208436 
    1800    287.55602   -6712.1841   -6680.1067   -3726.4708    18455.831    1.0207901 
    1810    288.11308   -6712.2473   -6680.1079    -3934.633    18455.831    1.0230701 
    1820    276.98552   -6711.0034   -6680.1052    -4186.202    18455.831    1.0283135 
    1830    277.15263   -6711.0235   -6680.1067   -4345.9838    18455.831    1.0350393 
    1840    276.23823   -6710.9215   -6680.1067   -4368.7653    18455.831    1.0414724 
    1850    273.19513   -6710.5804   -6680.1051   -4416.5455    18455.831    1.0455768 
    1860    283.83055   -6711.7684   -6680.1067   -4696.8368    18455.831    1.0462471 
    1870    291.37755   -6712.6113   -6680.1077   -4729.2468    18455.831    1.0448258 
    1880    283.33807   -6711.7134   -6680.1066   -4658.1696    18455.831    1.0428769 
    1890    273.10669    -6710.571   -6680.1055   -4806.2478    18455.831     1.040683 
    1900    272.25017   -6710.4761   -6680.1062   -4992.1727    18455.831    1.0384095 
    1910    274.11365   -6710.6842   -6680.1065    -4851.611    18455.831    1.0367748 
    1920     274.3815    -6710.714   -6680.1064   -4374.9654    18455.831    1.0362621 
    1930    273.80361   -6710.6496   -6680.1064   -3953.3671    18455.831    1.0369737 
    1940    273.81216   -6710.6506   -6680.1064   -3660.7249    18455.831     1.038631 
    1950     274.0972   -6710.6826   -6680.1067   -3555.6748    18455.831    1.0408007 
    1960     275.1804   -6710.8028    -6680.106   -3995.0323    18455.831    1.0431217 
    1970    281.99645   -6711.5638   -6680.1067   -4818.7611    18455.831    1.0450424 
    1980     287.0536   -6712.1285   -6680.1072   -5430.2829    18455.831    1.0464652 
    1990    282.90097   -6711.6645   -6680.1064   -5324.8363    18455.831    1.0478613 
    2000    278.29624   -6711.1501   -6680.1058   -5003.2499    18455.831    1.0492005 
Loop time of 1542.4 on 16 procs for 2000 steps with 864 atoms

Performance: 0.112 ns/day, 214.222 hours/ns, 1.297 timesteps/s
97.7% CPU use with 16 MPI tasks x 1 OpenMP threads

MPI task timing breakdown:
Section |  min time  |  avg time  |  max time  |%varavg| %total
---------------------------------------------------------------
Pair    | 713.06     | 1170.7     | 1541.6     | 564.8 | 75.90
Bond    | 0.00015521 | 0.00055011 | 0.0018175  |   0.0 |  0.00
Neigh   | 0.018722   | 0.03013    | 0.049617   |   3.9 |  0.00
Comm    | 0.53931    | 331.51     | 789.97     |1004.5 | 21.49
Output  | 0.14354    | 23.585     | 56.193     | 446.8 |  1.53
Modify  | 0.010442   | 0.012001   | 0.015321   |   1.1 |  0.00
Other   |            | 16.54      |            |       |  1.07

Nlocal:        54.0000 ave          86 max          35 min
Histogram: 1 1 3 7 2 1 0 0 0 1
Nghost:        537.750 ave         662 max         448 min
Histogram: 3 1 1 5 0 0 3 1 1 1
Neighs:         0.00000 ave           0 max           0 min
Histogram: 16 0 0 0 0 0 0 0 0 0
FullNghs:      2646.75 ave        5387 max        1216 min
Histogram: 2 2 3 4 3 1 0 0 0 1

Total # of neighbors = 42348
Ave neighs/atom = 49.013889
Ave special neighs/atom = 0.0000000
Neighbor list builds = 199
Dangerous builds = 198
unfix   1

velocity    all create 1012.5 1312343 dist gaussian
fix     2 all npt temp 1012.5 1012.5 $(100.0*dt) aniso 0.0 1.01325 $(1000.0*dt)
fix     2 all npt temp 1012.5 1012.5 0.10000000000000000555 aniso 0.0 1.01325 $(1000.0*dt)
fix     2 all npt temp 1012.5 1012.5 0.10000000000000000555 aniso 0.0 1.01325 1
run     3000
Per MPI rank memory allocation (min/avg/max) = 8.897 | 8.909 | 8.917 Mbytes
Step Temp PotEng TotEng Press Volume c_msd[4] 
    2000       1012.5   -6711.1501   -6598.2042   -263.25873    18455.831    1.0492005 
    2010    878.66711   -6696.1777   -6598.1611    2870.7623    18455.953    1.0583619 
    2020    693.30916   -6675.2443   -6597.9046     6949.916     18458.55    1.0790436 
    2030    645.51847   -6669.2967   -6597.2881     7421.537    18466.742    1.0982696 
    2040    616.95843   -6665.0672   -6596.2445    6617.3017    18481.153    1.1176712 
    2050    589.77878   -6660.7832   -6594.9925    6019.5211    18501.238    1.1378171 
    2060    603.20724   -6661.0694   -6593.7807     5001.215     18526.45      1.15696 
    2070    625.58401   -6662.4526   -6592.6678    4377.6599     18556.02    1.1768132 
    2080    645.39747   -6663.5658   -6591.5707    3936.6257    18589.404    1.1982017 
    2090    648.42743   -6662.7038   -6590.3707    3228.7593      18626.2    1.2195288 
    2100    662.48393   -6662.9214   -6589.0203    1879.7834     18665.77    1.2395814 
    2110    701.44241   -6665.7067   -6587.4597   -200.69908    18706.899    1.2604273 
    2120    705.86974   -6664.5032   -6585.7624   -873.41849    18747.919    1.2852332 
    2130    664.04431   -6658.1652   -6584.0901    47.610604    18788.219    1.3137176 
    2140    661.12861    -6656.196   -6582.4461    357.00676    18828.379    1.3410137 
    2150    675.73985   -6656.0928    -6580.713   -370.99893    18868.607     1.365699 
    2160    678.92304   -6654.6408    -6578.906   -1572.2666    18908.252    1.3891693 
    2170    696.60447   -6654.7502   -6577.0429   -2332.8221    18946.286    1.4124682 
    2180    715.14405   -6654.8874    -6575.112   -2599.6219    18982.007    1.4366228 
    2190    706.40971   -6651.9735   -6573.1725   -2452.3282    19015.149    1.4615642 
    2200      704.285   -6649.8113   -6571.2473   -2281.7613    19045.807    1.4859252 
    2210    719.24169   -6649.5148   -6569.2823   -2439.6773    19074.094    1.5085267 
    2220    722.67773   -6647.8968    -6567.281    -2523.413    19099.915    1.5289443 
    2230    724.76105   -6646.1183   -6565.2701   -2952.7285    19123.162    1.5469051 
    2240    720.83854   -6643.6569   -6563.2463   -3503.7292    19143.488    1.5626425 
    2250    731.03722   -6642.7587   -6561.2104   -3837.3205    19160.447    1.5754588 
    2260     739.5097    -6641.634   -6559.1405   -3774.6922    19173.766    1.5855144 
    2270    749.70678   -6640.6981   -6557.0672   -3380.5217    19183.534    1.5922689 
    2280    775.68353   -6641.4879   -6554.9592   -3098.6254    19190.107    1.5970075 
    2290    788.45714   -6640.7848   -6552.8312   -2416.1585    19193.838    1.6043695 
    2300    790.84291   -6638.9349   -6550.7152   -1822.1818    19195.317    1.6144667 
    2310    797.22068   -6637.5443   -6548.6131   -1718.8348    19195.094    1.6222694 
    2320    826.60206   -6638.6875   -6546.4788   -1905.6353    19193.291    1.6255806 
    2330    827.28901   -6636.6299   -6544.3445   -1742.2709    19189.809    1.6289827 
    2340    831.46237   -6634.9917   -6542.2408   -1877.0003    19184.745    1.6376719 
    2350    847.07537   -6634.6227   -6540.1301   -1954.4857     19178.02    1.6523276 
    2360    859.75505   -6633.9154   -6538.0084   -1530.0288    19169.639    1.6692118 
    2370    846.86252   -6630.3842   -6535.9155   -916.67778    19159.972    1.6833575 
    2380    842.36788   -6627.8166   -6533.8492   -30.849087    19149.606     1.691943 
    2390    856.88482   -6627.3486   -6531.7618    213.93822    19139.257     1.696362 
    2400    862.45279   -6625.8687   -6529.6608   -75.986362    19129.181    1.7017048 
    2410    873.63329   -6625.0175   -6527.5624    -501.5357    19119.138    1.7113349 
    2420    869.41875   -6622.4619   -6525.4769   -565.10515    19108.765    1.7241952 
    2430    873.53923   -6620.8603   -6523.4157   -573.03853    19097.985    1.7378594 
    2440    905.52574   -6622.3428   -6521.3301   -674.42734     19086.79    1.7531373 
    2450    937.27167   -6623.7809   -6519.2268   -370.48689    19075.137    1.7725501 
    2460    961.44325    -6624.405   -6517.1545    530.97218    19063.316    1.7967515 
    2470    961.91494   -6622.4521   -6515.1491    1551.8977     19052.09    1.8256305 
    2480    951.46809   -6619.3765   -6513.2388    2645.4616    19042.388    1.8557927 
    2490    948.48114   -6617.1919   -6511.3874    3318.1102    19035.125    1.8798155 
    2500    972.24061   -6618.0067   -6509.5518    3505.4535    19030.864      1.89358 
    2510    988.92805   -6618.0543   -6507.7379    3536.2869    19029.774    1.9028279 
    2520    998.77106   -6617.4081   -6505.9937    3293.8721     19031.83    1.9143868 
    2530    993.42946   -6615.1473   -6504.3288    3582.3628    19036.876    1.9327451 
    2540    1005.1898   -6614.8742   -6502.7437    3369.3865     19045.05    1.9564043 
    2550    1026.9229   -6615.7626   -6501.2078    2829.3233    19056.158    1.9800893 
    2560    1024.8588   -6614.0989   -6499.7744    3056.8706    19069.765    2.0010526 
    2570    1007.3738   -6610.8335   -6498.4595    3943.6081    19086.066    2.0206202 
    2580    1003.1314    -6609.125   -6497.2241    4396.0088    19105.769    2.0405966 
    2590    1037.7643   -6611.7837   -6496.0196    3762.7738    19129.218    2.0610785 
    2600    1042.0897   -6611.1027   -6494.8561    2472.9732    19155.841     2.084445 
    2610     1052.861   -6611.2269   -6493.7787    1174.8068    19184.488    2.1117971 
    2620    1073.1514   -6612.5019   -6492.7903    684.19559    19214.035    2.1445893 
    2630    1044.8765   -6608.5041   -6491.9465    1706.3011    19244.074    2.1835155 
    2640    1015.9294   -6604.5624   -6491.2339    2244.3959     19275.35    2.2256416 
    2650    1018.5423   -6604.1746   -6490.5547    1777.8533    19308.285    2.2699373 
    2660    1014.5363   -6603.0494   -6489.8763    1103.1002    19342.489    2.3138811 
    2670    1026.4793   -6603.7082   -6489.2029     332.2221    19377.318    2.3542107 
    2680    1014.1284    -6601.662   -6488.5344    96.911312    19412.079     2.395826 
    2690    992.69144   -6598.6165   -6487.8803   -211.26936    19446.468    2.4370641 
    2700    992.21624    -6597.878   -6487.1948   -833.30395    19480.152     2.474322 
    2710    989.60193   -6596.8437   -6486.4521   -897.16581    19512.633    2.5083847 
    2720    1006.7951   -6597.9838   -6485.6743   -1029.5168    19543.773    2.5396742 
    2730    1007.5555   -6597.2602   -6484.8659   -1433.7724    19573.437    2.5678985 
    2740    1035.0679   -6599.5207   -6484.0573    -2220.544    19601.226    2.5934066 
    2750     1034.257   -6598.6411   -6483.2682   -2758.2118    19626.481    2.6214608 
    2760    1032.6904   -6597.7401    -6482.542    -3284.198    19648.697    2.6543028 
    2770    1042.7403   -6598.1907   -6481.8714   -3445.6579    19667.466    2.6925274 
    2780     1036.417   -6596.8851   -6481.2712   -3419.7687    19682.647    2.7370444 
    2790    1027.3822    -6595.342    -6480.736   -3298.9819    19694.306    2.7842704 
    2800    1048.7222   -6597.2457   -6480.2592   -3414.4482    19702.583    2.8297988 
    2810    1053.1744   -6597.3397   -6479.8566   -3099.5772     19707.51    2.8729411 
    2820    1024.9294   -6593.8813   -6479.5489   -2353.3637    19709.436    2.9164013 
    2830    1002.1931   -6591.0848   -6479.2886   -1815.8324    19709.069    2.9602168 
    2840    989.19497   -6589.3533   -6479.0071   -1451.7664    19706.966    3.0024102 
    2850     1002.396   -6590.5076   -6478.6889   -799.21853    19703.539    3.0377233 
    2860    1013.2391   -6591.3637   -6478.3353    -85.71685    19699.418    3.0641385 
    2870    1034.7781   -6593.4253   -6477.9943      184.163    19695.257    3.0879094 
    2880    1029.0186   -6592.4651   -6477.6766     582.4814     19691.38    3.1167568 
    2890    1029.3029   -6592.2277   -6477.4074    314.11149     19688.05    3.1523852 
    2900    1002.4817   -6588.9896   -6477.1613    587.95448    19685.133    3.1923521 
    2910    986.93928   -6587.0035   -6476.9089    1419.3851    19682.865    3.2340982 
    2920    978.80308   -6585.7822   -6476.5952     1927.831    19681.958    3.2758418 
    2930     1011.748   -6589.0814   -6476.2194    1349.9674    19682.822    3.3164868 
    2940     1035.815   -6591.3639   -6475.8172    218.02995    19684.924    3.3590464 
    2950    1046.0836    -6592.148   -6475.4558   -775.84145    19687.216    3.4016297 
    2960    1052.9864   -6592.6362    -6475.174   -1250.7073    19688.792    3.4411909 
    2970     1035.141   -6590.4419   -6474.9704   -695.09455    19689.259    3.4788128 
    2980    1048.7144   -6591.8314   -6474.8458   -142.72533    19689.045    3.5172835 
    2990    1040.0193   -6590.8028   -6474.7871    323.02219      19688.7    3.5602809 
    3000    1013.4176   -6587.8416   -6474.7933    515.11076    19688.644    3.6070244 
    3010    999.55256   -6586.3045   -6474.8029     751.9219    19689.121    3.6529853 
    3020    1007.0556     -6587.13   -6474.7914    814.64258    19690.307    3.6944188 
    3030    1002.6894   -6586.6011   -6474.7496    1022.5483    19692.293    3.7311306 
    3040    1018.9422    -6588.366   -6474.7015    552.44091    19695.177    3.7662882 
    3050    1033.2132   -6589.9261   -6474.6696    315.03401    19698.579    3.8062878 
    3060    1007.9302   -6587.0986   -6474.6625    1155.0848    19702.374    3.8536346 
    3070    1002.0962   -6586.4464   -6474.6611    1275.8207    19707.169    3.9014306 
    3080    1022.5325   -6588.7056   -6474.6405     234.4455    19713.046    3.9483357 
    3090    1054.6682   -6592.2994   -6474.6496   -766.08824    19719.098    3.9933697 
    3100    1008.8727   -6587.2609   -6474.7196   -112.82681    19724.518    4.0371926 
    3110    978.98332   -6584.0084   -6474.8013    429.81272    19729.762    4.0778141 
    3120    978.39207   -6583.9528   -6474.8117    841.58315    19735.378    4.1148245 
    3130    1000.1157   -6586.3252   -6474.7608    1099.9384     19741.74    4.1498644 
    3140    1009.0124   -6587.2224   -6474.6655    1190.0971    19749.091    4.1886527 
    3150    1006.3722   -6586.8245   -6474.5621    962.51663    19757.502    4.2305307 
    3160     1005.452   -6586.6014   -6474.4418    684.85865    19766.783    4.2711362 
    3170    1010.4693   -6587.0294     -6474.31    550.82741    19776.673    4.3098842 
    3180    995.78209   -6585.2498   -6474.1688    611.47954    19787.049    4.3477324 
    3190    993.89202   -6584.8702        -6474    608.90921    19797.934    4.3818039 
    3200    1007.0926   -6586.1327     -6473.79    315.99007    19809.309    4.4105676 
    3210    1012.4255   -6586.5006   -6473.5631    251.89181    19820.951    4.4402734 
    3220     988.2878   -6583.5684   -6473.3234    787.21057    19832.829    4.4758248 
    3230     994.4691   -6583.9871   -6473.0526    1297.9696    19845.418    4.5110597 
    3240    1016.1476   -6586.0889   -6472.7361    1157.4329    19859.144    4.5416407 
    3250    1023.6381   -6586.6056   -6472.4172    882.80774    19873.927    4.5685817 
    3260    1027.7861   -6586.7639   -6472.1128    193.59886    19889.465    4.5963815 
    3270    1048.5305   -6588.8053   -6471.8402   -746.57636    19905.085    4.6257009 
    3280    1062.3552   -6590.1457   -6471.6384    -1532.292    19919.909    4.6571822 
    3290    1049.8893   -6588.6494   -6471.5327   -1618.0883    19933.228    4.6922478 
    3300    1046.3932   -6588.2623   -6471.5355   -1392.9971    19944.916        4.728 
    3310    1018.6821   -6585.2349   -6471.5994   -901.18163    19955.208    4.7617791 
    3320    1002.5135   -6583.5242   -6471.6923   -510.07409    19964.554    4.7953733 
    3330    974.84865   -6580.4974   -6471.7516    157.87272    19973.398    4.8317176 
    3340    974.68269   -6580.4748   -6471.7474    463.16937    19982.304    4.8685389 
    3350     989.4319   -6582.0375   -6471.6648    303.54093    19991.599    4.9039409 
    3360    992.91607   -6582.2693   -6471.5081   -238.84926    20001.144    4.9342493 
    3370    996.94165   -6582.5213   -6471.3109   -1170.1096    20010.377    4.9530764 
    3380    995.90435   -6582.1741   -6471.0794   -2144.0835    20018.406    4.9591979 
    3390    1003.0495   -6582.7011   -6470.8094   -2365.8042    20024.373    4.9605496 
    3400    1042.3574   -6586.8011   -6470.5245   -3029.4552    20027.922    4.9620147 
    3410    1070.8431   -6589.7507   -6470.2966    -3246.549    20028.492    4.9668939 
    3420    1034.7989   -6585.6171   -6470.1838    -2064.394    20025.977    4.9776008 
    3430    1028.6508   -6584.8882   -6470.1406   -1438.8371    20021.344    4.9898489 
    3440    1031.2596   -6585.1726   -6470.1341   -1136.8354    20015.271    5.0048477 
    3450    1031.7464   -6585.2673   -6470.1745   -1017.0474     20008.07    5.0278899 
    3460    1001.7187   -6581.9853    -6470.242   -516.34154    19999.926    5.0577069 
    3470    1003.5269   -6582.2468   -6470.3019   -389.06007    19991.247    5.0848453 
    3480    1021.3006   -6584.2742   -6470.3466   -702.80791    19982.137     5.111337 
    3490    1016.7323    -6583.823    -6470.405   -709.34735    19972.368    5.1396411 
    3500    997.16491   -6581.7101   -6470.4749   -170.73613    19961.961     5.166402 
    3510     972.3197   -6578.9621   -6470.4984    727.18903     19951.45    5.1855722 
    3520    1011.8883   -6583.3425   -6470.4648    388.56869    19941.562    5.1934273 
    3530    1038.5469   -6586.2659   -6470.4144   -189.06312    19932.063    5.1923523 
    3540    1049.0685   -6587.4422    -6470.417   -662.58747    19922.389    5.1863287 
    3550    1069.7815   -6589.8469   -6470.5112   -818.85326    19912.092    5.1810255 
    3560    1076.6666   -6590.8381   -6470.7343   -51.020431    19901.095    5.1856482 
    3570     1058.039   -6589.1107   -6471.0848    1051.9097     19890.09     5.206776 
    3580    1037.6023   -6587.2802   -6471.5341    2130.7673    19880.132    5.2433462 
    3590    1035.9932   -6587.6092   -6472.0426     2296.776    19872.187    5.2848242 
    3600    1040.5548   -6588.6904   -6472.6149    1972.3009    19866.451    5.3220266 
    3610    1021.9968    -6587.235   -6473.2297    2117.8094    19862.705    5.3546726 
    3620    1022.8379   -6587.9668   -6473.8677    1631.5312    19860.966    5.3874779 
    3630    1044.9692   -6591.1073   -6474.5394    1000.6011    19860.813     5.427212 
    3640    1037.8601   -6591.0522   -6475.2773    1466.5102     19861.75    5.4730152 
    3650    1019.0394   -6589.7213   -6476.0459    2043.1895    19864.146    5.5159904 
    3660    1032.0233   -6591.9591   -6476.8353    1484.1175    19868.448    5.5500692 
    3670    1032.9808   -6592.8916    -6477.661    877.44529    19874.226    5.5781913 
    3680    1000.0078   -6590.0411   -6478.4887    743.79576    19880.935    5.6027722 
    3690    988.29606   -6589.5039    -6479.258   -22.795686    19888.341    5.6235402 
    3700    1023.7365   -6594.1853   -6479.9859    -1270.345    19895.697    5.6446748 
    3710    1030.2433   -6595.6523   -6480.7271   -1322.0303    19901.923    5.6753265 
    3720    1004.9241   -6593.5749   -6481.4742   -312.12421    19906.968    5.7172982 
    3730    994.75776    -6593.155   -6482.1882    50.798326    19911.653    5.7648827 
    3740    989.44555   -6593.2161    -6482.842   -145.77732    19916.345    5.8113405 
    3750     954.8086    -6589.916   -6483.4057   -109.76196    19920.933    5.8509271 
    3760    936.07924   -6588.2568   -6483.8357   -163.10027    19925.416    5.8836763 
    3770    938.88011   -6588.8354   -6484.1019   -372.43626    19929.746    5.9132137 
    3780      966.782   -6592.0794   -6484.2334   -717.20317    19933.706    5.9418568 
    3790    984.80026   -6594.1167   -6484.2608   -542.51749    19937.029    5.9744149 
    3800    991.87449   -6594.8705   -6484.2254   -397.80059    19939.813    6.0100871 
    3810    987.65568   -6594.3131   -6484.1386   -162.44477    19942.224    6.0404011 
    3820     990.4385   -6594.4885   -6484.0036    84.778232    19944.482    6.0594808 
    3830    990.45029   -6594.3059   -6483.8197    292.73184    19946.829    6.0674088 
    3840    988.73846   -6593.8833    -6483.588    492.18912    19949.489    6.0717987 
    3850    989.30133    -6593.669    -6483.311     603.4789    19952.642    6.0851933 
    3860    974.48912   -6591.6761   -6482.9704    657.26152    19956.407    6.1154743 
    3870     985.8107   -6592.5306   -6482.5619    361.83381    19960.794    6.1585619 
    3880    991.38523   -6592.6732   -6482.0826    518.68751     19965.61    6.2053206 
    3890    985.87444   -6591.5354   -6481.5597    1358.2774    19971.013    6.2494573 
    3900    992.33542   -6591.6914   -6480.9949    2168.0477    19977.791    6.2912905 
    3910    1038.5786   -6596.2474   -6480.3924    1528.0298    19986.623    6.3290713 
    3920    1064.0294   -6598.5113   -6479.8172    850.26144    19997.011    6.3644063 
    3930    1046.5495   -6596.0822    -6479.338    718.57564    20008.345     6.401649 
    3940     1030.681   -6593.9226   -6478.9486    564.95042     20020.45    6.4444282 
    3950     1021.219   -6592.5227   -6478.6042    290.05671    20033.155    6.4912265 
    3960    1007.5525   -6590.6726   -6478.2786   -411.80358    20046.152    6.5387763 
    3970    998.36848   -6589.3094   -6477.9399   -1359.0464    20058.776    6.5846898 
    3980    989.27061   -6587.9148   -6477.5602   -2123.4669    20070.112    6.6288314 
    3990    990.39555   -6587.6106   -6477.1304   -2448.2452    20079.415    6.6745923 
    4000    1005.2835    -6588.795   -6476.6541   -2474.1263    20086.327    6.7233735 
    4010    1009.7692   -6588.8012   -6476.1599   -2060.9397     20090.83    6.7760776 
    4020    992.72936   -6586.3971   -6475.6567   -1210.3383    20093.348     6.831967 
    4030    1001.3922   -6586.8367   -6475.1299   -975.07156    20094.603    6.8797468 
    4040    1026.9081   -6589.1337   -6474.5806   -1180.7103    20094.845    6.9083574 
    4050    1033.1618    -6589.305   -6474.0542   -907.96056    20093.959    6.9232471 
    4060    1032.4432   -6588.7493   -6473.5787   -452.72338    20092.174    6.9372263 
    4070    1017.0021   -6586.5963   -6473.1482   -371.92834    20089.887    6.9571376 
    4080     1014.228   -6585.8778   -6472.7391    -680.5034    20087.186    6.9809276 
    4090    1020.1706   -6586.1439   -6472.3423   -1363.4933    20083.751    7.0061885 
    4100     992.0073    -6582.611   -6471.9511   -1411.7416    20079.009    7.0319448 
    4110    1001.4717   -6583.2561   -6471.5404   -2096.2259    20072.743    7.0552675 
    4120    1022.7083   -6585.1802   -6471.0955   -2800.1264    20064.356    7.0752244 
    4130    1023.4053   -6584.8362   -6470.6738   -2780.3571    20053.186    7.0935706 
    4140    1002.0676   -6582.0555   -6470.2733   -1827.5413    20039.287    7.1130777 
    4150    1012.0443   -6582.7592   -6469.8642   -1440.8653    20023.441    7.1319041 
    4160    1027.8427   -6584.1096   -6469.4522   -1447.4804    20006.074    7.1488504 
    4170    1033.0778   -6584.3155   -6469.0742   -1560.6507    19987.186    7.1657104 
    4180    1021.1786   -6582.6439   -6468.7299   -842.65802    19966.769    7.1860482 
    4190    1006.4556   -6580.6643   -6468.3927    194.60262     19945.48    7.2111479 
    4200    1022.3429   -6582.0849    -6468.041    515.05401    19924.249    7.2336923 
    4210    1038.5157   -6583.5327   -6467.6847    721.69829    19903.486    7.2415196 
    4220    1036.5245   -6582.9999    -6467.374    541.95044    19883.342    7.2338789 
    4230    1016.1259   -6580.4557   -6467.1053    352.20128    19863.713    7.2231526 
    4240     1038.555   -6582.7256   -6466.8732   -294.88932    19844.347    7.2203461 
    4250    1041.1997   -6582.8279   -6466.6805    -183.8372    19824.767    7.2283507 
    4260    1034.9188   -6581.9972   -6466.5504   -103.92936    19804.978    7.2401271 
    4270    1033.4089   -6581.7526   -6466.4743     132.6066    19785.091    7.2526888 
    4280    1043.9741   -6582.9113   -6466.4544    614.51672    19765.339    7.2693128 
    4290    1034.2403   -6581.8572   -6466.4862    1631.7363     19746.22    7.2923374 
    4300    1039.2593   -6582.4953   -6466.5644    2572.0661     19728.65    7.3179536 
    4310    1066.5277   -6585.6938    -6466.721    2805.7365    19713.517    7.3495936 
    4320     1054.524   -6584.6313   -6466.9975     2752.919    19701.064    7.3885943 
    4330    1041.6995   -6583.5894   -6467.3863    2537.1387    19691.219    7.4262625 
    4340    1015.4094   -6581.1121   -6467.8416    2586.6661    19683.824    7.4613411 
    4350    1004.6659   -6580.3748   -6468.3028    2585.4109    19678.908    7.4899866 
    4360    1035.1583   -6584.2521   -6468.7786    2208.8915    19676.453    7.5108569 
    4370    1027.8365   -6583.9564   -6469.2997    1921.8022    19676.132    7.5258254 
    4380    1021.9271   -6583.8612   -6469.8637    1642.9394    19677.668    7.5379439 
    4390    1031.5462   -6585.5238   -6470.4533    1308.6239    19680.776    7.5511993 
    4400    1039.3236   -6587.0266   -6471.0885    1578.7975    19685.209    7.5666566 
    4410    1038.6325   -6587.6336   -6471.7726    1851.7359    19691.164    7.5846705 
    4420    1040.6334   -6588.5955   -6472.5112    1842.6161    19698.892    7.6106267 
    4430    1033.6483   -6588.5983   -6473.2933    1650.3404     19708.41    7.6470173 
    4440    996.86901   -6585.2603   -6474.0581    1499.8018    19719.582    7.6834275 
    4450    991.19523    -6585.315   -6474.7457    839.91815     19732.21    7.7063712 
    4460      1010.77    -6588.116   -6475.3631     161.9357    19745.696    7.7177823 
    4470    1002.6335   -6587.7857   -6475.9404   -73.370038    19759.419    7.7278561 
    4480    982.57601   -6586.0586   -6476.4508   -156.69944    19773.131    7.7414088 
    4490    981.31667   -6586.3446   -6476.8773   -217.04295    19786.737    7.7593549 
    4500    998.56594   -6588.6141   -6477.2226   -539.62067     19800.16    7.7792126 
    4510    1014.9841   -6590.7629   -6477.5399   -706.29021    19813.115    7.8009465 
    4520    992.21162   -6588.5285   -6477.8458   -206.17412    19825.488    7.8274983 
    4530    986.09574   -6588.1078   -6478.1074   -346.71655    19837.655    7.8594299 
    4540    999.86476   -6589.8598   -6478.3234     -1022.83    19849.472    7.8953623 
    4550    1003.6747   -6590.4649   -6478.5034    -1054.308    19860.378    7.9327493 
    4560    1012.3509   -6591.6036   -6478.6743    -763.0276    19870.291    7.9693872 
    4570    997.88132   -6590.1565   -6478.8413   -105.29673    19879.514    8.0061522 
    4580    972.70701   -6587.4814   -6478.9745    657.56204     19888.67    8.0389377 
    4590    969.48603   -6587.1838   -6479.0361    979.38629    19898.471    8.0679115 
    4600    971.22297    -6587.346   -6479.0047    1185.7518    19909.264    8.1039605 
    4610    963.89863   -6586.4136   -6478.8893    1260.6342    19921.242    8.1548975 
    4620    968.12234   -6586.6663   -6478.6708    873.90008    19934.491    8.2132448 
    4630    996.49166   -6589.5098   -6478.3496   -259.05533    19948.584    8.2662248 
    4640    998.43559   -6589.3206   -6477.9436   -690.68664    19962.561    8.3058646 
    4650    1007.6174   -6589.8886   -6477.4874    -916.2786    19975.896    8.3319102 
    4660    1006.9747   -6589.3095   -6476.9799   -766.43375    19988.406    8.3512089 
    4670    999.66587   -6587.9607   -6476.4465   -547.66838    20000.207    8.3772693 
    4680    1002.8656   -6587.7482    -6475.877   -551.22262    20011.482    8.4254868 
    4690     1000.973   -6586.9258   -6475.2657   -540.22661    20022.255    8.4963163 
    4700    1000.3153   -6586.2165   -6474.6299    -917.9486    20032.484     8.575054 
    4710    988.29006   -6584.2025   -6473.9572   -913.57882    20041.894    8.6484359 
    4720    1015.7391   -6586.5663   -6473.2591   -820.23175    20050.407    8.7110834 
    4730     1016.164    -6585.919   -6472.5644   -165.03949    20058.171      8.76759 
    4740    1006.4999   -6584.1913   -6471.9147    215.85341    20065.765    8.8205309 
    4750     1041.609   -6587.4858   -6471.2927   -45.719432    20073.547    8.8697869 
    4760    1050.1863   -6587.8967   -6470.7468   -52.202982    20081.336    8.9172446 
    4770    1054.3456   -6587.9401   -6470.3262    189.88846    20089.128    8.9622488 
    4780    1043.9867   -6586.4875   -6470.0292    643.01011     20097.15    9.0015722 
    4790    1026.6875   -6584.3644   -6469.8358    1305.8236    20105.874     9.032309 
    4800    1040.2586   -6585.7319   -6469.6895    702.51286    20115.808    9.0493301 
    4810    1048.0941   -6586.5096   -6469.5931   -46.279683     20126.46    9.0596086 
    4820    1014.6069   -6582.7373   -6469.5564   -499.74368    20137.123    9.0740881 
    4830    1028.0543   -6584.2185   -6469.5375   -1380.6313    20147.271    9.0907125 
    4840    1058.4177   -6587.6378   -6469.5697   -1992.0949    20156.062    9.1138529 
    4850    1028.8486    -6584.459   -6469.6894   -1701.5636    20162.952    9.1492318 
    4860    1000.3219   -6581.4414    -6469.854   -2039.6684    20168.076    9.1920564 
    4870    986.17003   -6579.9983   -6469.9895   -2667.9486    20171.128    9.2422089 
    4880    985.67751   -6580.0267   -6470.0729   -3153.7363    20171.505    9.2986014 
    4890    971.02902   -6578.3973   -6470.0775   -3428.0195    20168.715    9.3500239 
    4900    971.07451   -6578.3141   -6469.9893   -3283.9771    20162.523    9.3922717 
    4910    1009.3024   -6582.4207   -6469.8315   -3121.4775    20153.032    9.4298247 
    4920    1017.3504    -6583.144    -6469.657   -2634.0988    20140.442    9.4697646 
    4930    1017.3874   -6582.9756   -6469.4845   -2383.6596    20125.215    9.5203642 
    4940    1036.8721   -6584.9773   -6469.3127   -2509.3816    20107.613    9.5832634 
    4950    1037.6411   -6584.9159   -6469.1655   -2036.3472     20087.61    9.6573053 
    4960    1019.9542   -6582.8213   -6469.0439   -1513.6699    20065.654    9.7311416 
    4970    1026.0094   -6583.4001   -6468.9472   -1323.0851    20042.247    9.7875095 
    4980    1023.5736   -6583.0354   -6468.8542   -718.25427    20017.662    9.8231395 
    4990    1017.5947    -6582.278   -6468.7638   -38.648483    19992.504    9.8457315 
    5000    1024.7415    -6582.974   -6468.6625   -22.122164    19967.397    9.8684864 
Loop time of 2479.28 on 16 procs for 3000 steps with 864 atoms

Performance: 0.105 ns/day, 229.563 hours/ns, 1.210 timesteps/s
97.8% CPU use with 16 MPI tasks x 1 OpenMP threads

MPI task timing breakdown:
Section |  min time  |  avg time  |  max time  |%varavg| %total
---------------------------------------------------------------
Pair    | 1819.7     | 2166.8     | 2379.3     | 452.1 | 87.40
Bond    | 0.00029325 | 0.0007745  | 0.0020165  |   0.0 |  0.00
Neigh   | 0.035699   | 0.04393    | 0.055771   |   2.8 |  0.00
Comm    | 60.221     | 266.34     | 613.2      |1225.7 | 10.74
Output  | 0.19749    | 0.20097    | 0.25247    |   3.0 |  0.01
Modify  | 2.692      | 45.843     | 89.381     | 513.9 |  1.85
Other   |            | 0.01504    |            |       |  0.00

Nlocal:        54.0000 ave          61 max          45 min
Histogram: 3 0 1 1 2 1 1 1 4 2
Nghost:        507.250 ave         566 max         472 min
Histogram: 3 1 4 3 0 2 1 0 1 1
Neighs:         0.00000 ave           0 max           0 min
Histogram: 16 0 0 0 0 0 0 0 0 0
FullNghs:      2343.38 ave        3112 max        1711 min
Histogram: 3 1 1 2 2 0 5 0 1 1

Total # of neighbors = 37494
Ave neighs/atom = 43.395833
Ave special neighs/atom = 0.0000000
Neighbor list builds = 300
Dangerous builds = 300
unfix   2

fix     3 all npt temp 1012.5 1012.5 $(100.0*dt) aniso 1.01325 1.01325 $(1000.0*dt)
fix     3 all npt temp 1012.5 1012.5 0.10000000000000000555 aniso 1.01325 1.01325 $(1000.0*dt)
fix     3 all npt temp 1012.5 1012.5 0.10000000000000000555 aniso 1.01325 1.01325 1
run     20000
Per MPI rank memory allocation (min/avg/max) = 8.901 | 8.909 | 8.917 Mbytes
Step Temp PotEng TotEng Press Volume c_msd[4] 
    5000    1024.7415    -6582.974   -6468.6625   -22.122164    19967.397    9.8684864 
    5010    1043.4199   -6585.0831    -6468.688   -1128.0832    19967.229    9.9126886 
    5020    1036.2959   -6584.3838   -6468.7834   -1964.6577     19965.97    9.9758515 
    5030    1000.3362   -6580.5071   -6468.9181   -1382.7325    19962.915    10.049621 
    5040     994.7289   -6580.0104   -6469.0469    -364.9896    19958.516    10.120052 
    5050    990.99916   -6579.6765    -6469.129    675.21243    19953.771    10.186549 
    5060     1002.834   -6581.0405   -6469.1728    991.65677    19949.625    10.244385 
    5070    1011.2227   -6581.9893   -6469.1859      1456.19    19946.491    10.290254 
    5080    1022.8304   -6583.2994   -6469.2011    1647.8902    19944.755    10.336168 
    5090    1033.5877   -6584.5436   -6469.2453     1478.964    19944.621    10.386156 
    5100    1026.1966   -6583.8174   -6469.3437    1441.5358    19945.982    10.434607 
    5110     1025.745   -6583.9136   -6469.4902    836.95499     19948.72    10.477393 
    5120    1054.3868   -6587.3258   -6469.7074   -437.21439    19952.235    10.520109 
    5130    1048.9625   -6587.0617   -6470.0484   -697.15321    19955.437    10.573166 
    5140    1018.9523   -6584.2039   -6470.5382   -294.06036    19958.003    10.635008 
    5150     980.4128   -6580.4663   -6471.0997    420.81063    19960.345    10.693343 
    5160    995.37501    -6582.741   -6471.7055    422.64971    19963.041    10.745814 
    5170    1003.8304   -6584.3402   -6472.3614    391.44942    19966.169    10.802802 
    5180    993.73984   -6583.9283   -6473.0752    449.38339     19969.72    10.871438 
    5190    995.49145   -6584.8792   -6473.8307    39.897811    19973.691     10.95214 
    5200    1003.3096   -6586.5534   -6474.6327   -316.11556    19977.742    11.042288 
    5210    974.75261   -6584.1618   -6475.4267   -214.87125    19981.557    11.131523 
    5220    976.87767   -6585.1482    -6476.176   -231.55894    19985.159     11.20036 
    5230     975.6915   -6585.6865   -6476.8466    274.55885    19988.619    11.245918 
    5240    980.45419   -6586.8056   -6477.4345    508.45496     19992.34    11.284737 
    5250    986.94927   -6588.0545   -6477.9588    544.18453    19996.571    11.332521 
    5260    969.35844   -6586.5416   -6478.4082    743.48082    20001.392    11.390056 
    5270    970.92771   -6587.0826   -6478.7742    442.93962    20006.944    11.451936 
    5280    972.75874   -6587.5521   -6479.0394    -171.7269    20012.952     11.51392 
    5290    984.31343   -6589.0232   -6479.2215   -612.64333    20018.849    11.572374 
    5300    1001.1861   -6591.0366   -6479.3528   -1104.9808    20024.178    11.629427 
    5310     981.9994   -6588.9868   -6479.4432   -1454.8031    20028.458    11.694035 
    5320    967.65006   -6587.4098    -6479.467   -1417.5774    20031.361    11.766279 
    5330    976.75898   -6588.3559   -6479.3969   -1346.9359    20032.889    11.837248 
    5340    979.89953   -6588.5479   -6479.2387   -1195.6583    20033.104    11.897946 
    5350    979.32682   -6588.2396   -6478.9942    -954.0438     20032.14    11.939582 
    5360    992.27361   -6589.3564   -6478.6668   -625.07463     20030.22     11.95516 
    5370    987.65213   -6588.4282   -6478.2541   -241.25044    20027.663    11.952294 
    5380    1000.0987    -6589.318   -6477.7555   -355.10521    20024.813    11.943772 
    5390    985.56246   -6587.0938   -6477.1529   -637.42565    20021.587    11.938399 
    5400    980.47085   -6585.8125   -6476.4395   -890.97471    20017.701    11.937073 
    5410    988.70996     -6585.87   -6475.5779   -1008.3962    20012.909    11.942647 
    5420    993.58511   -6585.4274   -6474.5915   -702.12801    20007.108    11.960884 
    5430    971.26544   -6581.8609   -6473.5148   -53.690879    20000.596    11.987107 
    5440    976.59232   -6581.3225   -6472.3821    241.69955    19993.945     12.01513 
    5450    1001.2445   -6582.9195   -6471.2292     168.4311    19987.434    12.043535 
    5460    1019.3724   -6583.8883   -6470.1758    147.11923    19981.033    12.066994 
    5470    1022.9724   -6583.4344   -6469.3203    653.19956    19974.774    12.087411 
    5480    1004.6848   -6580.7327   -6468.6586    1220.2114    19969.133    12.120652 
    5490    1023.5315   -6582.3304    -6468.154    879.31699     19964.58    12.179912 
    5500    1036.7189   -6583.4327   -6467.7851    639.11806    19960.881    12.261259 
    5510    1014.1219   -6580.6561   -6467.5293    1106.0893    19957.862    12.352653 
    5520    1005.2065   -6579.4726   -6467.3403     1462.704    19955.887     12.44346 
    5530    991.70596   -6577.7874   -6467.1611    2003.4689    19955.361    12.528866 
    5540    1004.2845   -6579.0072   -6466.9778    2075.8298    19956.788    12.603572 
    5550    1008.8666   -6579.3288   -6466.7882    1260.4312    19960.225    12.665325 
    5560    1006.2069   -6578.8387   -6466.5948    42.776608    19964.945     12.72144 
    5570    993.92242   -6577.2718   -6466.3982    -829.2971    19969.797    12.775702 
    5580    978.63418   -6575.3338   -6466.1657    -1005.239    19973.948    12.824919 
    5590    1009.7435     -6578.53   -6465.8916   -1362.7077     19977.12    12.873107 
    5600    1004.9194   -6577.6862    -6465.586    -972.4228    19979.063    12.917634 
    5610    1024.1526    -6579.529   -6465.2833   -283.05056    19980.104    12.954992 
    5620    1038.7571   -6580.8692   -6464.9943    532.93025    19980.891    12.994765 
    5630     1031.587   -6579.8256   -6464.7505    1270.3336    19982.228    13.045243 
    5640    1060.4459   -6582.8648   -6464.5705    997.39136    19984.759    13.103699 
    5650    1056.0709   -6582.2783    -6464.472    1067.6711    19988.381    13.167322 
    5660    1031.1706   -6579.5043   -6464.4757    1253.3335    19993.129    13.231971 
    5670    1028.8754   -6579.3035   -6464.5309    1452.0027    19999.205     13.29422 
    5680    1032.5983   -6579.8227   -6464.6349    1556.0862    20006.834    13.359153 
    5690    1025.9708   -6579.2375   -6464.7889    1373.9277    20016.133    13.426406 
    5700    1024.3616   -6579.2545   -6464.9854    840.30187    20026.953    13.490772 
    5710    1021.5172   -6579.1603   -6465.2086   -102.37477    20038.775    13.548146 
    5720    1011.3203   -6578.2669   -6465.4526   -613.29936     20050.73    13.597287 
    5730    1013.2517   -6578.7428    -6465.713   -433.98992     20062.35    13.639818 
    5740    1001.7808   -6577.7482   -6465.9981    379.54075    20073.797    13.679535 
    5750    962.28795    -6573.605   -6466.2603     1106.172    20085.831    13.716656 
    5760    987.20525   -6576.5895   -6466.4652    403.98412    20099.065    13.748599 
    5770    1007.5953   -6579.0151   -6466.6163   -338.62248    20112.962    13.780465 
    5780    1011.5032   -6579.5974   -6466.7627   -748.80231    20126.797    13.817055 
    5790    1007.7374    -6579.332   -6466.9173   -258.42476    20140.232    13.855325 
    5800    1022.2142   -6581.1227   -6467.0932    324.83408    20153.665    13.886749 
    5810    1037.7432     -6583.08   -6467.3182    386.92489    20167.642    13.913535 
    5820    1033.8187   -6582.9519   -6467.6278    322.46866    20182.269    13.945729 
    5830    1017.7092   -6581.5417   -6468.0147    229.41386    20197.507    13.979943 
    5840    1005.4145   -6580.6118   -6468.4563   -236.66775    20213.232    14.009542 
    5850    973.15949   -6577.4733   -6468.9159   -629.45193    20229.013    14.030467 
    5860    959.41502   -6576.3553   -6469.3312   -938.82769    20244.451    14.036014 
    5870    987.35599    -6579.823    -6469.682   -1770.9313    20259.162    14.036001 
    5880    988.17694   -6580.2258   -6469.9932   -2188.8087    20272.368    14.048028 
    5890     972.8448   -6578.7883    -6470.266   -2047.6452    20283.609    14.074208 
    5900    983.00821   -6580.1525   -6470.4965   -1656.3723    20292.967    14.107169 
    5910    1002.8635   -6582.5691   -6470.6981   -1333.2737    20300.779    14.141583 
    5920    1018.1635   -6584.4941   -6470.9164   -1561.7569    20307.285    14.173178 
    5930    995.19644   -6582.1776   -6471.1619    -1137.147    20312.381    14.196201 
    5940    996.24328   -6582.5386   -6471.4061    -998.9974    20316.354    14.216447 
    5950    1004.2901   -6583.6647   -6471.6346   -1205.5424    20319.342    14.246012 
    5960     995.3118   -6582.8859   -6471.8573   -1736.8736    20321.101     14.28327 
    5970    969.15596   -6580.1763   -6472.0655    -1634.683    20321.161    14.321873 
    5980    972.96942   -6580.7484   -6472.2122   -1601.0267    20319.514    14.359151 
    5990    991.83249   -6582.9359   -6472.2955   -1611.9052    20316.197    14.396336 
    6000    967.40174     -6580.25   -6472.3349   -1433.2689    20311.197    14.436893 
    6010    933.34424   -6576.4039   -6472.2879   -1356.5071    20304.664     14.47808 
    6020    952.25774   -6578.3047    -6472.079   -2103.7028    20296.571    14.510897 
    6030    986.02686    -6581.684   -6471.6912     -2363.93    20286.261    14.532418 
    6040    981.59957   -6580.6556   -6471.1567    -1696.919    20273.484    14.546595 
    6050    999.72283   -6582.0297   -6470.5091   -1421.8441    20258.784    14.555757 
    6060    1006.1969   -6582.0115   -6469.7687   -1161.4182    20242.486    14.563992 
    6070    981.64113   -6578.4809   -6468.9774   -464.00278    20224.872    14.571504 
    6080    992.95919   -6578.8935   -6468.1274    140.76789    20206.602    14.574895 
    6090    1017.5421   -6580.7225   -6467.2142    659.45115    20188.331    14.582063 
    6100    1014.7562   -6579.5044   -6466.3068    923.15082    20170.571    14.601683 
    6110    998.46866   -6576.8303   -6465.4496    1404.8784     20153.64    14.631404 
    6120    987.87998   -6574.8352   -6464.6357    2187.0205    20138.055    14.664687 
    6130    1013.4584   -6576.9376   -6463.8848    2216.3317    20124.505    14.694479 
    6140    1015.4269    -6576.493   -6463.2206    2337.6311    20113.158    14.720121 
    6150    1015.8054   -6575.9492   -6462.6346     1963.087    20104.057     14.74838 
    6160    1025.8726   -6576.5581   -6462.1205    1553.3285    20096.891    14.786421 
    6170    1000.6206   -6573.2888   -6461.6681    1981.5508    20091.356    14.832175 
    6180    1006.7233   -6573.5594   -6461.2579    2090.7837    20087.753    14.877113 
    6190     1032.748   -6576.0816    -6460.877      1555.43    20086.179    14.919221 
    6200    1030.9213   -6575.5626   -6460.5618    1162.1375    20086.181    14.957944 
    6210    1041.7721   -6576.5416   -6460.3303    855.30152    20087.367    14.992801 
    6220    1054.8123   -6577.8544   -6460.1885    948.90563    20089.448    15.020412 
    6230    1049.7943   -6577.2615   -6460.1554    1703.6885    20092.538     15.03907 
    6240    1048.5644   -6577.1727   -6460.2037     2310.717     20097.34    15.052653 
    6250    1064.2426   -6579.0689    -6460.351    2060.3456    20104.378    15.071689 
    6260    1046.2216   -6577.3023   -6460.5947    1934.0667    20113.517    15.105964 
    6270    1046.8129   -6577.6861   -6460.9125    1496.7288    20124.546    15.150352 
    6280    1052.4285   -6578.6845   -6461.2845    1504.7354    20137.107    15.203552 
    6290    1047.4986     -6578.59   -6461.7399    1720.0563    20151.179    15.267341 
    6300     1033.596   -6577.5659   -6462.2667    1386.8984    20166.889    15.338127 
    6310    1014.5818        -6576   -6462.8219    658.94096    20183.895    15.414134 
    6320    1006.9132   -6575.6755   -6463.3528   -342.29942    20201.441     15.48982 
    6330    1017.2484   -6577.3383   -6463.8627   -1044.6185    20218.577    15.561324 
    6340    1023.2705   -6578.5046   -6464.3572   -1259.1375    20234.616    15.625284 
    6350     1020.756   -6578.7255   -6464.8586   -984.27441    20249.321    15.678216 
    6360    1012.1785   -6578.2595   -6465.3494   -630.75501     20262.95    15.730662 
    6370    1012.0549   -6578.7327   -6465.8365   -169.47344    20275.865    15.788893 
    6380    1001.1189   -6577.9638   -6466.2875    122.70432    20288.505     15.84366 
    6390    1007.9081   -6579.1249   -6466.6912   -687.29635    20301.072    15.881725 
    6400    1007.8193   -6579.4621   -6467.0383   -1556.1346    20312.847     15.90414 
    6410    1018.9695   -6581.0266    -6467.359   -2191.5547    20322.958    15.918326 
    6420    1014.8131   -6580.8746   -6467.6707   -2430.4293    20330.779    15.929284 
    6430    996.97567    -6579.176   -6467.9619   -2235.1948    20336.094    15.935274 
    6440    982.54332   -6577.8048   -6468.2006   -2117.2846     20339.08    15.939683 
    6450    982.70632   -6577.9865   -6468.3642   -2514.4181    20339.831    15.954049 
    6460    975.02386   -6577.2109   -6468.4455   -2487.6607    20338.058    15.978088 
    6470    974.51534   -6577.1625   -6468.4538   -2181.5523    20333.777    16.000375 
    6480    969.72406   -6576.5474   -6468.3732   -2078.9863    20327.278    16.014383 
    6490    999.15042   -6579.6944   -6468.2377   -2149.6706    20318.675     16.01923 
    6500    1016.6302   -6581.4818   -6468.0752   -1660.9381    20308.019    16.012786 
    6510    1019.9606   -6581.7123   -6467.9341   -1222.2308    20295.715     15.99417 
    6520    1019.6278   -6581.5545   -6467.8134   -291.32667    20282.311    15.971967 
    6530    1051.2334   -6584.9972   -6467.7305    -299.9052    20268.606    15.960073 
    6540    1059.2379   -6585.8917   -6467.7321   -521.03853    20254.681     15.95536 
    6550    1042.6139   -6584.1336   -6467.8285   -377.02489     20240.36    15.950524 
    6560    1037.5373   -6583.7266   -6467.9877   -535.76514    20225.709    15.946916 
    6570    1028.5843   -6582.9218   -6468.1816   -186.06246    20210.664     15.94648 
    6580    1010.6926   -6581.1274   -6468.3831    523.70214    20195.556    15.948081 
    6590    962.52006   -6575.8919   -6468.5214     1268.787    20181.074    15.952269 
    6600    987.59184   -6578.7357   -6468.5684    862.78384    20167.833    15.960112 
    6610     1028.354   -6583.2699   -6468.5555    1007.4635    20155.616    15.974339 
    6620    1047.5384   -6585.4307   -6468.5762     1267.038    20144.479    15.991608 
    6630      1035.82    -6584.207   -6468.6597    1311.4571     20134.65    16.014234 
    6640    1010.7735   -6581.5315   -6468.7782    1352.7167    20126.174     16.05321 
    6650    995.62684    -6579.943   -6468.8794    964.02125    20119.056    16.095829 
    6660    977.02981   -6577.9199   -6468.9308    472.56369    20112.924    16.123868 
    6670     961.9545   -6576.2119   -6468.9045    611.77006    20107.364    16.130548 
    6680    958.46653   -6575.7048   -6468.7864    992.19207    20102.464    16.121014 
    6690    954.23451    -6575.016   -6468.5697    1625.4345     20098.62    16.106765 
    6700    978.68533   -6577.4479   -6468.2741    1980.7795    20096.386    16.103796 
    6710    994.84122   -6578.9096   -6467.9336    2477.5187     20096.17    16.118144 
    6720    986.63139   -6577.6497   -6467.5895    2597.2096    20098.417    16.151233 
    6730    1003.6866   -6579.2078    -6467.245    2234.0699     20103.23    16.193804 
    6740    1028.4133   -6581.6389   -6466.9178    1572.5213    20110.248    16.242111 
    6750    1005.1173   -6578.7521   -6466.6297    1333.8724    20118.894    16.294362 
    6760     1006.893   -6578.6968   -6466.3763    622.94278    20128.832    16.345536 
    6770    1018.3396   -6579.7263    -6466.129   -174.99179     20139.39    16.394038 
    6780    1034.4749   -6581.3104   -6465.9131   -128.03471     20149.84    16.435528 
    6790    1044.7114   -6582.2978   -6465.7587    738.22872    20160.235    16.466622 
    6800    1043.4022   -6582.0776   -6465.6845    1278.9719    20171.363     16.49688 
    6810    1044.3299   -6582.1842   -6465.6877    676.40462    20183.696    16.544493 
    6820    1046.8948   -6582.5376   -6465.7549   -270.58461    20196.705    16.610004 
    6830     1034.652   -6581.3028   -6465.8858   -830.80978    20209.492    16.678349 
    6840    1033.7865   -6581.3914    -6466.071   -1213.5077    20221.459    16.729543 
    6850    1019.5622   -6580.0163   -6466.2826   -1277.4067    20232.246    16.760265 
    6860    1026.2878   -6580.9999   -6466.5159   -1175.6815    20241.761    16.777188 
    6870    1030.3262   -6581.7094   -6466.7749   -1044.1066    20250.092    16.804002 
    6880    1008.5186   -6579.5577   -6467.0559   -561.92477    20257.415    16.861106 
    6890    988.29818    -6577.569   -6467.3229   -7.1413392    20264.191     16.94234 
    6900     979.4711    -6576.795   -6467.5336   -13.292304    20270.925    17.029062 
    6910    995.31938   -6578.7115   -6467.6822   -690.76215    20277.608    17.110612 
    6920    1005.6879   -6579.9833   -6467.7973   -1460.8238    20283.593    17.188807 
    6930    978.54752    -6577.032   -6467.8736   -1563.6846    20288.184    17.262298 
    6940    979.37383   -6577.1523   -6467.9016   -1861.9244    20291.145     17.33054 
    6950     960.6034   -6574.9942   -6467.8375   -1185.0815    20292.335     17.38869 
    6960    981.58957   -6577.1785   -6467.6807   -718.65926    20292.277     17.43334 
    6970    1008.0991   -6579.8846   -6467.4296    84.374051    20291.537    17.473193 
    6980    1006.3236   -6579.3871   -6467.1302    388.53506    20290.828    17.518307 
    6990    992.00574   -6577.4371   -6466.7774    170.05087     20290.47    17.563669 
    7000    986.01856   -6576.3177   -6466.3258   -279.00495    20290.262    17.596326 
    7010    1014.8654   -6578.9491   -6465.7393   -1082.1776    20289.738    17.610276 
    7020    1047.1618   -6581.8291   -6465.0166   -1757.6685    20288.132    17.603538 
    7030    1048.8424     -6581.21     -6464.21   -1785.5707    20284.783    17.584622 
    7040     1058.706   -6581.4489   -6463.3486    -1610.876     20279.61    17.568072 
    7050    1052.1223   -6579.8111   -6462.4453   -1276.7608    20272.775    17.566836 
    7060    1027.8055   -6576.1789   -6461.5257   -975.28044    20264.589    17.583215 
    7070    1028.0892   -6575.2449     -6460.56   -1002.3889    20255.341    17.617198 
    7080     1053.259   -6577.0478   -6459.5552   -1111.4579    20244.995    17.663104 
    7090    1041.8709   -6574.8097   -6458.5875    146.91936    20233.605    17.708966 
    7100    1035.2782   -6573.1738    -6457.687    1177.3867    20222.271     17.75238 
    7110    1054.7793   -6574.5263   -6456.8641    1558.4321    20212.003    17.789318 
    7120    1054.7589   -6573.8214   -6456.1615    1586.7851    20203.255    17.811126 
    7130    1069.8004   -6574.9539   -6455.6161    123.62821    20195.921    17.824569 
    7140    1069.9149   -6574.5884   -6455.2378   -1009.0311    20188.719    17.846054 
    7150    1066.9775   -6574.0455   -6455.0226    -1163.675    20180.531    17.870484 
    7160    1059.0046   -6573.0737   -6454.9402   -714.47271    20171.151    17.881627 
    7170    1061.1013    -6573.339   -6454.9715   -829.31803    20160.917    17.881445 
    7180    1061.9053   -6573.5769   -6455.1198   -1220.8413    20149.747    17.878954 
    7190    1055.5793   -6573.1205    -6455.369   -961.49333    20137.331    17.872958 
    7200    1046.6761   -6572.4507   -6455.6924   -47.192385    20123.914    17.861187 
    7210    1034.0862   -6571.4062   -6456.0523    1068.4718     20110.36    17.848866 
    7220    1041.4724   -6572.6057   -6456.4279    1558.8625    20097.722    17.837554 
    7230    1059.7256   -6575.0576   -6456.8436    1503.9322    20086.518     17.83214 
    7240    1061.9305   -6575.7876   -6457.3276     1427.894    20076.732    17.829878 
    7250    1039.9719   -6573.8699   -6457.8595    1868.5178    20068.364    17.829024 
    7260    1041.8526   -6574.6137   -6458.3935    1677.7746    20061.734     17.83881 
    7270    1053.1133   -6576.4039   -6458.9275    1437.7657    20056.731    17.854054 
    7280    1040.6139   -6575.5458   -6459.4638    1702.1048    20053.178    17.865454 
    7290    1013.9448   -6573.0649   -6459.9578    1948.7064    20051.311    17.871146 
    7300    1028.0871    -6575.072   -6460.3873    1297.0423    20051.297    17.877862 
    7310    1039.8591   -6576.7812   -6460.7834    959.84158    20052.629    17.904197 
    7320     1017.899   -6574.6964   -6461.1482    1148.2748    20054.983    17.971309 
    7330    1037.7707   -6577.2508   -6461.4859    711.07348    20058.463    18.076889 
    7340    1049.9347   -6578.9405   -6461.8187     177.5749    20062.686    18.192924 
    7350    1034.7756   -6577.6033   -6462.1725    210.68717    20067.193    18.293547 
    7360    1027.7603   -6577.1925   -6462.5443    -79.80819    20071.921    18.368165 
    7370    998.01721   -6574.2099   -6462.8796    227.06881    20076.698     18.42111 
    7380    991.51971   -6573.7503   -6463.1448    646.88901    20081.773    18.463451 
    7390    1018.7116   -6576.9956   -6463.3568    551.17741    20087.493    18.520512 
    7400    1003.2043   -6575.4419    -6463.533    1058.4054    20093.899    18.605574 
    7410    1002.4153   -6575.5153   -6463.6944    1601.3737    20101.448    18.696754 
    7420    1012.2337   -6576.7481   -6463.8319    1582.3078    20110.654    18.773137 
    7430    1030.6309   -6578.9443   -6463.9759    506.21207    20121.454    18.826885 
    7440    1028.6803   -6578.8918    -6464.141   -365.33304    20132.912    18.863114 
    7450    1022.0185   -6578.3521   -6464.3444   -554.81787    20144.177    18.889859 
    7460       1016.1   -6577.9133   -6464.5658   -261.11336    20155.061    18.910967 
    7470     1016.533   -6578.1991   -6464.8033   -111.59499    20165.785    18.929049 
    7480    1013.4502   -6578.0976   -6465.0458   -160.97607    20176.497    18.943871 
    7490    1007.4199   -6577.6565   -6465.2773   -318.27349     20187.16    18.956042 
    7500    1007.4242   -6577.8818   -6465.5021   -488.90695    20197.628    18.969526 
    7510    1003.7992   -6577.6937   -6465.7184    -685.1125    20207.732    18.984253 
    7520      1010.16   -6578.6146   -6465.9297   -1290.9597    20217.197    18.997267 
    7530    1022.4176   -6580.2027   -6466.1505   -1247.5331    20225.531    19.014304 
    7540     1019.459   -6580.1326   -6466.4104   -838.47379    20232.717    19.046753 
    7550    1011.7549    -6579.562   -6466.6992   -819.79712    20239.093    19.082887 
    7560    1009.3528   -6579.6076   -6467.0128   -1079.2348    20244.681    19.109711 
    7570    991.73754   -6577.9509   -6467.3211   -1434.1634     20249.22    19.124174 
    7580    1002.3276   -6579.4476   -6467.6364   -1829.0286    20252.311    19.123034 
    7590     977.5846    -6576.983    -6467.932   -920.94088    20253.704    19.122166 
    7600    969.81995   -6576.3834   -6468.1985   -648.44243    20254.092    19.136638 
    7610    977.41784   -6577.4351   -6468.4027   -1146.3888     20253.74    19.164341 
    7620    984.09829   -6578.3235   -6468.5458   -1086.4752    20252.273    19.196412 
    7630    1002.6004   -6580.4983   -6468.6568    -902.8449    20249.669    19.226237 
    7640    1000.8141    -6580.398   -6468.7557   -560.91498    20246.141    19.265076 
    7650    975.57845   -6577.6585   -6468.8313    160.91829    20242.054    19.312438 
    7660     972.8449   -6577.3612   -6468.8389    791.87549    20238.083       19.349 
    7670    989.85428    -6579.184   -6468.7642    855.39202    20234.812    19.379021 
    7680    974.01894    -6577.258   -6468.6048    823.02313    20232.386    19.425151 
    7690    952.87994   -6574.6427   -6468.3475    253.38681    20230.709    19.493036 
    7700    955.51368   -6574.5159   -6467.9269   -18.532951    20229.298    19.564461 
    7710    978.45377   -6576.4616   -6467.3136   -4.3862582    20227.864    19.624838 
    7720    995.99413   -6577.6272   -6466.5226    634.24244    20226.477     19.68928 
    7730    1019.6181   -6579.3488   -6465.6089    961.33992    20225.696    19.769417 
    7740    1042.4926   -6580.9426   -6464.6509    679.75697     20225.82    19.855884 
    7750    1026.9875   -6578.3029   -6463.7409    776.17495    20226.693    19.936938 
    7760     1002.583   -6574.7415   -6462.9019    1106.5859    20228.397    20.002325 
    7770    1013.2324   -6575.1352   -6462.1076    939.92508    20231.206    20.048552 
    7780    1018.3342   -6574.9514   -6461.3547    752.08019    20235.002    20.077539 
    7790    1015.0816   -6573.9018   -6460.6679    1394.5237    20239.689    20.098921 
    7800    1030.8427   -6575.0344   -6460.0423    1523.6898    20245.797    20.134636 
    7810    1031.8987   -6574.6145   -6459.5047    960.42947    20253.474    20.199631 
    7820    1040.5235   -6575.1298   -6459.0579    261.15623    20262.184    20.295434 
    7830    1018.2661   -6572.2927   -6458.7036    694.27573    20271.373    20.410514 
    7840    1029.3935   -6573.2411   -6458.4107    870.57717    20281.337    20.528044 
    7850    1055.7554   -6575.9215   -6458.1504    462.37766    20292.227    20.642232 
    7860    1047.0628   -6574.7832   -6457.9818    615.88004    20303.731    20.757939 
    7870    1021.1892   -6571.8061   -6457.8909    1272.8873    20316.013    20.863782 
    7880    1064.6554   -6576.6249    -6457.861    397.21048    20329.533    20.949095 
    7890    1068.1509   -6577.0805   -6457.9267   -592.10217    20343.546    21.015103 
    7900    1033.9874   -6573.4544   -6458.1115   -840.54806    20357.109    21.065429 
    7910    1052.6484    -6575.789   -6458.3645   -1732.4294    20369.809      21.1164 
    7920    1056.1677   -6576.5135   -6458.6964   -1973.9861    20380.854    21.192429 
    7930    1035.5137   -6574.6323   -6459.1192   -1426.6777    20389.982     21.29125 
    7940     1041.091    -6575.739   -6459.6037   -1085.5216    20397.663    21.379945 
    7950    1052.3826   -6577.5636   -6460.1688   -1334.3528    20404.165    21.437064 
    7960    1007.3113   -6573.1489   -6460.7818   -586.93521    20409.422     21.47521 
    7970    1018.9426   -6575.0622   -6461.3976   -571.23066    20414.001    21.499431 
    7980    1045.9712   -6578.7098   -6462.0302   -1053.8654    20417.958     21.51277 
    7990    1030.5586   -6577.6476   -6462.6873   -1442.2234    20420.834    21.537501 
    8000    1030.1663   -6578.2732   -6463.3566   -1933.3357    20422.223    21.573884 
    8010    1035.6513   -6579.5627   -6464.0342   -1837.6539     20421.68    21.606561 
    8020    1011.5089   -6577.5242   -6464.6889   -1159.0201    20419.314    21.626952 
    8030    1007.6318   -6577.6902   -6465.2874   -1390.6597    20415.661    21.637381 
    8040    1016.4606   -6579.2092   -6465.8215   -2112.4027    20410.531    21.644719 
    8050    1014.0933    -6579.416   -6466.2924   -2898.0554     20403.22     21.65028 
    8060    1012.8827   -6579.7027   -6466.7141    -3282.295    20392.958    21.656009 
    8070    1006.4783   -6579.3541     -6467.08   -2679.4019    20379.426    21.670221 
    8080    999.78175   -6578.9158   -6467.3887   -2002.0994     20363.13    21.691682 
    8090    988.65067   -6577.9093   -6467.6239   -1468.7456    20344.753    21.705507 
    8100    995.21189    -6578.809   -6467.7916   -1177.6063    20324.832    21.697524 
    8110    995.29118   -6578.9229   -6467.8966   -530.31747    20303.747    21.673881 
    8120    1002.7148   -6579.8042   -6467.9499   -398.95653     20282.07    21.643998 
    8130      1012.46   -6580.9155   -6467.9741   -841.59207     20259.95    21.616899 
    8140    1020.2741   -6581.8185   -6468.0053   -1345.7329    20236.982     21.58905 
    8150    1016.6707   -6581.4681   -6468.0569   -989.03765    20212.756     21.56525 
    8160    1013.4088   -6581.1466   -6468.0993    584.43256    20187.689    21.561637 
    8170    1017.6761   -6581.6439   -6468.1206    1625.4056    20163.198    21.583887 
    8180    1013.8916   -6581.2373   -6468.1362    1812.7346    20140.335    21.629408 
    8190    1017.3872   -6581.6561    -6468.165    1255.3047    20119.268    21.684072 
    8200    999.09529   -6579.6479   -6468.1973    1403.6605    20099.591    21.727841 
    8210    986.21445   -6578.2163   -6468.2026    1746.6712    20081.385    21.736248 
    8220    990.56772   -6578.6557   -6468.1564    1706.6956     20064.94    21.699948 
    8230    1019.7781    -6581.832   -6468.0742    1398.0631    20050.226    21.642259 
    8240    1014.3585   -6581.1373   -6467.9841    1399.8604     20036.99     21.59178 
    8250    983.08154    -6577.542   -6467.8778    1653.6963    20025.227    21.569997 
    8260    995.27737   -6578.7567    -6467.732    1277.4996    20015.098    21.580871 
    8270    1011.4856   -6580.3772   -6467.5445    905.74224    20006.272    21.609929 
    8280    1006.1535   -6579.5735   -6467.3356    1085.5118    19998.426     21.64624 
    8290    1013.1506   -6580.1224   -6467.1039     884.0662     19991.65    21.675376 
    8300    1031.5171   -6581.9416   -6466.8743    144.43354    19985.709    21.698082 
    8310    1012.6702   -6579.6159    -6466.651    296.18551    19980.023    21.730548 
    8320    999.75442   -6577.9417   -6466.4176    800.33103    19974.661    21.773352 
    8330    1011.8664   -6579.0149   -6466.1397    1346.1649    19970.113    21.816588 
    8340    1013.2986   -6578.8489   -6465.8139    1458.2094    19966.859    21.846523 
    8350    1001.7364   -6577.1805   -6465.4353    1322.5199    19965.039    21.869938 
    8360     985.9873   -6574.9509   -6464.9625    1220.7129    19964.538    21.899663 
    8370    985.78247   -6574.3131   -6464.3476     1140.129    19965.251    21.928387 
    8380    1035.0012   -6579.0134   -6463.5574    246.13688    19967.007    21.959665 
    8390    1076.4929    -6582.721   -6462.6366   -160.84524    19969.052    22.004818 
    8400    1064.6401    -6580.492   -6461.7298    671.99951    19971.047    22.062433 
    8410    1039.0162    -6576.788   -6460.8841    1660.0017    19973.725    22.111962 
    8420    1053.4836   -6577.5932   -6460.0755    1837.2299     19977.96    22.144255 
    8430    1060.3478   -6577.5837   -6459.3003    1749.8993    19984.015    22.180411 
    8440    1064.0377   -6577.3009   -6458.6059    1206.7479    19991.756    22.229723 
    8450      1075.41   -6577.9813   -6458.0177    379.04155    20000.678    22.283183 
    8460    1081.5723   -6578.2135   -6457.5625   -396.37833    20009.983    22.336768 
    8470    1055.6962   -6575.0234   -6457.2589   -203.33508    20018.994    22.388931 
[...]
   22890    1041.2224   -6571.8887   -6455.7388   -631.11089    20273.747    79.690403 
   22900    1032.9019   -6571.4538    -6456.232   -724.90396    20277.133    79.712265 
   22910    1020.2068    -6570.546   -6456.7404   -596.45649    20279.752    79.742725 
   22920    1028.4652   -6571.9796   -6457.2528   -411.37395    20281.731    79.774673 
   22930     1020.911   -6571.6431   -6457.7589    370.43417    20283.338    79.801887 
   22940    1024.1789   -6572.5026   -6458.2539    410.76103    20285.214    79.831228 
   22950    1016.8636   -6572.1499   -6458.7173     456.4534    20287.486    79.881651 
   22960    1019.1584   -6572.8331   -6459.1444    242.66313    20290.139    79.963157 
   22970    1025.0909   -6573.8852   -6459.5347   -87.435712    20292.976    80.063911 
   22980    1028.6066   -6574.6483   -6459.9057   -545.97982    20295.644    80.155312 
   22990    990.77839   -6570.7604   -6460.2376   -218.95834    20297.788    80.218985 
   23000    965.73317   -6568.2027   -6460.4737    237.54209     20299.67    80.262828 
   23010    977.44948   -6569.6199   -6460.5839    393.65784    20301.732    80.312064 
   23020    1004.1206   -6572.6208   -6460.6097    274.49837    20304.118     80.37262 
   23030    1006.8093   -6572.9112   -6460.6001    297.40994    20306.756    80.432346 
   23040    997.47803   -6571.8575   -6460.5873    559.54366    20309.669    80.482744 
   23050    986.16834   -6570.5539   -6460.5453    714.86981    20313.077    80.506645 
   23060    994.08758   -6571.3556   -6460.4636    535.30651    20317.097    80.489523 
   23070    995.54146   -6571.4118   -6460.3577    798.60366    20321.606    80.444512 
   23080    979.14794   -6569.4498   -6460.2244    1142.4829    20326.826    80.423546 
   23090    992.25513   -6570.7366    -6460.049    659.19303    20333.009    80.473977 
   23100    1031.9154    -6574.964   -6459.8523   -311.99689    20339.664    80.575225 
   23110    1031.3182   -6574.7269   -6459.6818   -506.98863    20345.907    80.671368 
   23120    1018.8584   -6573.2267   -6459.5715   -26.274752     20351.54    80.749074 
   23130    1018.4269   -6573.0969   -6459.4899    348.13008    20357.002    80.817837 
   23140    1022.6696   -6573.5072   -6459.4269    233.09152    20362.643    80.863054 
   23150    1013.1314   -6572.4002   -6459.3839    35.689275    20368.386    80.894991 
   23160    1002.8208   -6571.2163   -6459.3501     67.99677    20374.046    80.941384 
   23170    987.81546   -6569.4822   -6459.2899    276.53521    20379.649    81.021044 
   23180    983.89369   -6568.9408    -6459.186    191.01052    20385.373    81.116801 
   23190    988.14738   -6569.2388   -6459.0095   -505.76499      20391.1    81.197481 
   23200    989.93828   -6569.2014   -6458.7722   -872.20236    20396.199    81.255407 
   23210    977.44718   -6567.5181   -6458.4824   -441.86219    20400.348     81.31329 
   23220     987.9376   -6568.3188   -6458.1129   -262.19368    20403.926    81.392823 
   23230    1033.1539   -6572.9372   -6457.6873     -1128.25    20407.045    81.505103 
   23240    1016.8117   -6570.6741   -6457.2472   -1493.5045    20409.004    81.635886 
   23250    1005.8006   -6569.0295   -6456.8309   -1658.6829    20409.408    81.766197 
   23260    1004.6677   -6568.4556   -6456.3834    -1834.329    20408.113    81.887637 
   23270    1021.0101   -6569.8018   -6455.9066   -1679.3899    20404.996    81.989306 
   23280    1042.2002   -6571.6767   -6455.4177   -616.70603     20400.34     82.06257 
   23290      1053.46   -6572.4761    -6454.961    488.93818    20395.176     82.11142 
   23300    1049.4247   -6571.6296   -6454.5647    922.21888    20390.583    82.157841 
   23310    1071.1191   -6573.7305   -6454.2455    546.75118    20386.981    82.208227 
   23320    1079.8598   -6574.5075   -6454.0475     108.4624    20384.029    82.259661 
   23330    1045.2473   -6570.5765   -6453.9776    103.91987    20381.314    82.300986 
   23340    1047.3427   -6570.8373   -6454.0046   -200.47132    20378.742    82.332672 
   23350    1049.6765     -6571.21    -6454.117    -317.7453     20376.05    82.376515 
   23360    1043.8667   -6570.7832   -6454.3383    18.320809    20373.159    82.430034 
   23370    1040.6623   -6570.7683   -6454.6809    134.12055    20370.334    82.467228 
   23380    1009.6906    -6567.764   -6455.1315    584.87174    20367.786    82.472941 
   23390    1003.2048    -6567.579     -6455.67     432.8018    20365.846     82.45893 
   23400     1007.872   -6568.7378   -6456.3081    102.22145    20364.371    82.461063 
   23410    1003.6011   -6569.0121   -6457.0589    367.73743    20363.097    82.500032 
   23420    990.74539   -6568.4257   -6457.9065    658.42777    20362.246    82.573844 
   23430     978.1912   -6567.9276   -6458.8089     201.4492    20362.027    82.672078 
   23440     976.0588   -6568.5997   -6459.7189    -496.6853    20361.998    82.792602 
   23450    966.00427   -6568.3364   -6460.5772   -945.15691    20361.506    82.916373 
   23460    973.51364   -6569.9591   -6461.3621   -1458.3418    20360.056    83.009461 
   23470    975.28271    -6570.855   -6462.0607   -1568.0171    20357.192      83.0492 
   23480    973.82664   -6571.2973   -6462.6655   -1144.6722    20352.858    83.050904 
   23490    979.30478   -6572.4143   -6463.1714   -888.07141    20347.446    83.036417 
   23500    974.71951    -6572.326   -6463.5946   -640.58072    20341.254     83.01834 
   23510    953.32733   -6570.2477   -6463.9026   -344.43592    20334.577    83.003182 
   23520    986.57244   -6574.1601   -6464.1065   -782.89204    20327.633    82.984865 
   23530     992.4846   -6574.9538   -6464.2407   -738.96009    20320.086    82.960767 
   23540    975.34561    -6573.121   -6464.3198   -318.98881    20311.978    82.917958 
   23550    973.86861   -6572.9618   -6464.3253    33.259072    20303.712     82.85673 
   23560    981.14723   -6573.6931   -6464.2447    556.39258    20295.667    82.785061 
   23570    979.60167   -6573.3675   -6464.0914    1338.2071    20288.362    82.724844 
   23580    956.10447   -6570.5131   -6463.8582    2294.8437    20282.558    82.700665 
   23590     941.3574   -6568.5127   -6463.5028    2757.9845    20279.155     82.71293 
   23600    970.24107   -6571.2298   -6462.9979    2184.0822    20278.524    82.759795 
   23610    992.85019   -6573.1144   -6462.3605    1474.2739    20280.088    82.824831 
   23620     982.5236   -6571.2471   -6461.6452    1436.3301    20283.186    82.866173 
   23630    973.30632   -6569.4402   -6460.8664    1172.8128    20287.663    82.875423 
   23640    969.61512   -6568.1814   -6460.0194    618.07162    20293.237    82.877365 
   23650    983.81932   -6568.8665   -6459.1199    96.102554     20299.36    82.898732 
   23660    977.41925   -6567.2546    -6458.222    -111.2749    20305.528    82.943757 
   23670    983.26339   -6567.0554   -6457.3708    -537.7806    20311.467    83.008687 
   23680    1000.1114   -6568.1689    -6456.605   -665.33149    20316.803    83.086019 
   23690    1012.0931    -6568.867   -6455.9664   -365.08934    20321.437    83.155728 
   23700    1040.2148   -6571.5147   -6455.4772   -361.26677    20325.626     83.20148 
   23710    1050.4793   -6572.3325   -6455.1499   -675.68938    20329.364    83.226841 
   23720    1034.9987   -6570.4185   -6454.9629   -419.72173    20332.441    83.248182 
   23730    1045.0737   -6571.4602   -6454.8807   -270.64561    20335.048     83.28655 
   23740    1044.9023   -6571.4422   -6454.8817    116.96369    20337.383    83.349523 
   23750    1053.8601    -6572.516   -6454.9564     292.7852    20339.805    83.419597 
   23760    1084.3528   -6576.0924   -6455.1312   -443.75674    20342.395    83.463027 
   23770    1065.2957   -6574.2604    -6455.425    164.32381    20344.654     83.46535 
   23780    1043.2922   -6572.1998    -6455.819    641.25519    20347.025     83.42026 
   23790    1030.4681   -6571.2013   -6456.2511    805.64746    20350.013    83.334888 
   23800    1009.0339   -6569.2506   -6456.6914    824.93135    20353.783    83.255743 
   23810    1006.7605   -6569.4165   -6457.1109    588.71744    20358.349    83.251637 
   23820     1024.225   -6571.7754   -6457.5216    440.47552     20363.48    83.349927 
   23830    1023.6451   -6572.1334   -6457.9442    550.64841    20369.039     83.50979 
   23840    1026.1783   -6572.8537    -6458.382    643.41583    20375.129    83.672646 
   23850     1041.849   -6575.0838    -6458.864     795.9239    20381.829    83.789764 
   23860    1038.9138   -6575.2952   -6459.4028    835.87232    20389.278    83.848413 
   23870    1054.6923   -6577.6601   -6460.0076    71.093647    20397.444    83.865731 
   23880    1037.1248   -6576.3672   -6460.6743   -224.72966    20405.668    83.883846 
   23890    989.59093   -6571.7215   -6461.3312    133.29463     20413.66    83.940525 
   23900    977.58622   -6570.9729   -6461.9217   -112.43986    20421.641    84.038527 
   23910    961.79772   -6569.6894   -6462.3994   -422.04365    20429.435    84.145578 
   23920    973.02741   -6571.3047   -6462.7621   -416.15721    20436.758    84.226676 
   23930    983.78767   -6572.7657   -6463.0227    372.69615    20443.672    84.274515 
   23940    997.63989   -6574.5042   -6463.2159    1251.0242     20450.93    84.298179 
   23950    1012.7213   -6576.3636    -6463.393    1594.3352    20459.367    84.323307 
   23960    986.90111   -6573.6451   -6463.5548    1733.0426    20469.355    84.388016 
   23970    975.25826   -6572.4607   -6463.6691    1321.7796    20480.994     84.51404 
   23980    984.66034   -6573.5385   -6463.6982    587.07469    20493.886    84.684409 
   23990    978.43555   -6572.7864   -6463.6404   -152.70166    20507.268    84.839492 
   24000    982.44146   -6573.0933   -6463.5005    -864.2912     20520.37    84.919264 
   24010    983.07192   -6572.9453   -6463.2821   -1353.5735    20532.465    84.931085 
   24020    989.62449   -6573.3882   -6462.9941   -1286.2634    20543.119    84.903659 
   24030    1015.6435   -6575.9368   -6462.6403   -1739.4696    20552.265    84.867322 
   24040    1011.4704   -6575.0893   -6462.2582   -1738.1953    20559.567    84.833112 
   24050    973.93398   -6570.4969   -6461.8531   -1196.9588    20565.057    84.816429 
   24060    968.63896   -6569.4244   -6461.3713   -1694.0292    20569.144    84.822961 
   24070    979.26979   -6569.9923   -6460.7533   -2308.1001    20571.432     84.85644 
   24080     984.1226   -6569.8015   -6460.0211    -2350.356    20571.335    84.921689 
   24090    976.55925    -6568.112   -6459.1754    -2077.493    20568.833     84.99014 
   24100    968.84302    -6566.308   -6458.2321   -1737.3198    20564.196    85.030695 
   24110    987.42737   -6567.3682   -6457.2192   -1673.1378    20557.766    85.051934 
   24120     1018.026   -6569.7535   -6456.1912   -1828.6034     20549.65    85.069917 
   24130    1024.3403   -6569.5448    -6455.278   -1980.5675    20539.701    85.071153 
   24140    984.67847   -6564.3675   -6454.5252   -1743.6227    20527.821    85.060889 
   24150    1004.6721   -6565.9684   -6453.8957    -1399.781     20514.25    85.070208 
   24160    1035.0556   -6568.8187   -6453.3567   -912.05312     20499.36     85.11148 
   24170    1024.2354   -6567.2018   -6452.9468   -43.394417    20483.705    85.160555 
   24180    1016.4668   -6566.0232   -6452.6348    855.88056    20468.169    85.200149 
   24190    1031.2714   -6567.4226   -6452.3828    1450.0855    20453.641    85.233839 
   24200    1034.1913   -6567.5652   -6452.1997    1929.1153    20440.748    85.263433 
   24210    1037.5361   -6567.8292   -6452.0905    1659.5074    20429.891    85.270211 
   24220    1039.7695    -6568.038   -6452.0502    1036.7829    20420.828    85.227013 
   24230    1036.3506   -6567.6709   -6452.0644    448.65523    20412.936    85.138093 
   24240    1058.8155   -6570.2666   -6452.1542    9.5077784    20405.578     85.04362 
   24250    1054.4176    -6569.948   -6452.3261    335.10371    20398.394    85.006202 
   24260    1068.7283   -6571.8246   -6452.6064    130.20191    20391.575     85.04176 
   24270    1071.9755   -6572.5845    -6453.004   -165.23127    20384.968    85.141986 
   24280    1075.1109   -6573.4635   -6453.5332   -208.46412    20378.281    85.285833 
   24290    1062.1612   -6572.6742   -6454.1885    335.92965    20371.496    85.417666 
   24300    1044.7148     -6571.46   -6454.9205    1036.3585    20365.138     85.50206 
   24310    1049.3923   -6572.7633    -6455.702     927.6946    20359.826    85.545282 
   24320    1039.2851   -6572.4499    -6456.516    619.53755    20355.489    85.544152 
   24330     994.3548     -6568.21   -6457.2882    848.27516     20351.89    85.492128 
   24340    996.64594   -6569.1452   -6457.9678    602.15411     20349.13    85.428412 
   24350    986.16243   -6568.5426   -6458.5347    914.14588    20347.071    85.393219 
   24360    980.35413   -6568.3493   -6458.9893     1246.787    20345.969    85.400133 
   24370    1002.0854   -6571.1474   -6459.3633    1229.8893    20346.099    85.447602 
   24380    1001.6682     -6571.41   -6459.6724     1827.702    20347.556    85.495698 
   24390    1001.4678   -6571.6632    -6459.948    2010.2471    20350.837    85.514431 
   24400    976.61268    -6569.114   -6460.1714    2079.3028    20356.183    85.515013 
   24410    967.35551    -6568.225    -6460.315    1411.6193    20363.571    85.522147 
   24420    957.28375   -6567.1399   -6460.3534    790.26591    20372.396    85.557267 
   24430     958.9232   -6567.2336   -6460.2643    366.67199    20382.021      85.6241 
   24440    990.84356   -6570.5927   -6460.0626   -306.53688    20391.957    85.697373 
   24450    1012.3651   -6572.7313   -6459.8004     -450.338    20401.592     85.76142 
   24460    1016.3665   -6572.9049   -6459.5277    -305.5775    20410.752    85.813732 
   24470     1036.967   -6574.9547   -6459.2795   -662.21629    20419.523     85.84173 
   24480    1035.0519   -6574.5334   -6459.0718   -814.60672    20427.613     85.87192 
   24490    1034.5045    -6574.325   -6458.9245   -814.76687    20434.844    85.951778 
   24500    1026.5294   -6573.3215   -6458.8106    -904.0925    20441.213    86.083616 
   24510     1020.511   -6572.5792   -6458.7396   -1002.1137    20446.624    86.238465 
   24520    1003.6173   -6570.6295   -6458.6745   -1392.5321    20450.953    86.359364 
   24530     1001.989   -6570.3751   -6458.6017   -2111.3855    20453.809    86.410847 
   24540    1001.2431   -6570.1915   -6458.5013   -2601.1122      20454.5    86.384961 
   24550    1019.7813   -6572.1271   -6458.3689    -2976.397    20452.487     86.30789 
   24560    1038.3738   -6574.0766   -6458.2444   -2611.0057    20447.471    86.236964 
   24570    1036.4487   -6573.7688   -6458.1514   -1549.4384    20439.854    86.217304 
   24580    1027.7134   -6572.7434   -6458.1004   -591.06644     20430.65    86.260166 
   24590    1013.8882   -6571.1749   -6458.0741    -309.5605    20420.798    86.346071 
   24600    996.98085   -6569.2561   -6458.0414   -734.30712    20410.589    86.440137 
   24610    985.01095   -6567.8443   -6457.9649   -694.77201    20399.707    86.503164 
   24620    990.41063   -6568.2861   -6457.8043   -506.76775    20388.156    86.526989 
   24630    1020.5664   -6571.4009   -6457.5552   -992.95018    20376.049    86.537804 
   24640    1024.6722   -6571.5588   -6457.2551   -1077.9002    20363.006    86.559136 
   24650    1005.4484   -6569.0799   -6456.9207   -1064.1397    20348.899    86.585385 
   24660     1017.827   -6570.0698   -6456.5297   -1363.5009    20333.713    86.597421 
   24670    1022.8977   -6570.1821   -6456.0763   -1219.4707    20317.221    86.584336 
   24680    1032.9642   -6570.8236   -6455.5949   -678.97005    20299.551    86.567676 
   24690    1042.4361   -6571.3728   -6455.0875     431.6678    20281.302    86.561226 
   24700     1066.461   -6573.5561   -6454.5907     1346.133    20263.519    86.565037 
   24710     1070.323   -6573.5547   -6454.1586    2328.4302    20247.163     86.59974 
   24720    1054.5741   -6571.4696   -6453.8303    2819.8778    20233.171    86.681024 
   24730    1043.9653    -6570.051   -6453.5951    3242.9723    20222.084    86.794188 
   24740    1041.6043   -6569.6122   -6453.4197    3861.6018    20214.348    86.903383 
   24750    1069.7569   -6572.6605   -6453.3276    3646.7394    20210.442    86.989426 
   24760    1077.5245   -6573.5667   -6453.3672    3829.1704    20210.288     87.05899 
   24770    1065.8407    -6572.472   -6453.5759    3733.6331    20213.964     87.11181 
   24780    1052.7284   -6571.3675   -6453.9341    3349.1422     20221.39     87.14452 
   24790    1043.0219   -6570.7664   -6454.4157    2974.8392     20232.23    87.177972 
   24800      1055.51   -6572.7548   -6455.0111     2275.171    20246.066    87.226537 
   24810    1050.4113   -6572.9077   -6455.7328    1897.9895    20262.268    87.276543 
   24820    1030.5364   -6571.5143   -6456.5564    1611.4939    20280.437    87.326069 
   24830    1009.3108   -6569.9976   -6457.4075      1043.01    20300.253    87.378946 
   24840    1008.8023   -6570.7819   -6458.2485    392.56351    20321.137    87.432527 
   24850    1003.1566   -6570.9384   -6459.0348    290.35691    20342.508    87.480725 
   24860    999.12747   -6571.2077   -6459.7535    708.68337    20364.252    87.526387 
   24870    1020.8879   -6574.3004   -6460.4188    239.66908    20386.628    87.572706 
   24880    1007.4959   -6573.4238   -6461.0361   -439.89023     20409.25    87.630585 
   24890    971.33198   -6569.9105    -6461.557    -853.2735    20431.451    87.713014 
   24900     969.6866    -6570.111    -6461.941   -1502.0981    20452.746    87.830399 
   24910    983.81596   -6571.9528   -6462.2067   -1912.9831    20472.512    87.965555 
   24920    961.87944   -6569.6731    -6462.374   -1613.6023    20490.352    88.092436 
   24930    955.40873   -6569.0071   -6462.4298   -1480.1358    20506.495    88.190697 
   24940    986.04296   -6572.3821   -6462.3875   -1640.7907    20521.056    88.246831 
   24950    980.18966   -6571.6163   -6462.2746   -1642.2718    20533.907    88.270038 
   24960    986.69148   -6572.1856   -6462.1186   -1900.9402    20544.983    88.275182 
   24970    975.10002   -6570.6721   -6461.8982    -1724.764    20554.105    88.278933 
   24980    973.81348   -6570.2423   -6461.6119   -1689.5282    20561.388    88.297926 
   24990    973.24537   -6569.8175   -6461.2505   -1506.6075    20566.895    88.355062 
   25000    952.31343   -6567.0373   -6460.8053   -1110.0572     20570.85    88.454235 
Loop time of 16693.7 on 16 procs for 20000 steps with 864 atoms

Performance: 0.104 ns/day, 231.857 hours/ns, 1.198 timesteps/s
97.7% CPU use with 16 MPI tasks x 1 OpenMP threads

MPI task timing breakdown:
Section |  min time  |  avg time  |  max time  |%varavg| %total
---------------------------------------------------------------
Pair    | 12686      | 15083      | 16450      | 783.0 | 90.35
Bond    | 0.0022478  | 0.005564   | 0.014096   |   4.2 |  0.00
Neigh   | 0.23744    | 0.28537    | 0.33298    |   4.9 |  0.00
Comm    | 125.32     | 1417.7     | 3675.6     |2481.5 |  8.49
Output  | 1.2735     | 1.2968     | 1.6318     |   7.6 |  0.01
Modify  | 81.322     | 190.91     | 330.33     | 555.3 |  1.14
Other   |            | 0.09953    |            |       |  0.00

Nlocal:        54.0000 ave          62 max          46 min
Histogram: 1 2 0 2 1 4 4 1 0 1
Nghost:        484.000 ave         516 max         442 min
Histogram: 1 2 1 0 1 4 2 1 0 4
Neighs:         0.00000 ave           0 max           0 min
Histogram: 16 0 0 0 0 0 0 0 0 0
FullNghs:      2245.00 ave        2745 max        1718 min
Histogram: 1 1 0 3 2 4 2 2 0 1

Total # of neighbors = 35920
Ave neighs/atom = 41.574074
Ave special neighs/atom = 0.0000000
Neighbor list builds = 2000
Dangerous builds = 2000
unfix   3
                
Total wall time: 5:45:25
