LAMMPS (29 Sep 2021 - Update 3)
OMP_NUM_THREADS environment is not set. Defaulting to 1 thread. (src/comm.cpp:98)
  using 1 OpenMP thread(s) per MPI task
units	metal
atom_style	full

read_data	mixed.data
Reading data file ...
  orthogonal box = (0.0000000 0.0000000 0.0000000) to (17.171819 17.292452 83.119182)
  1 by 2 by 8 MPI processor grid
  reading atoms ...
  864 atoms
Finding 1-2 1-3 1-4 neighbors ...
  special bond factors lj:    0        0        0       
  special bond factors coul:  0        0        0       
     0 = max # of 1-2 neighbors
     0 = max # of 1-3 neighbors
     0 = max # of 1-4 neighbors
     1 = max # of special neighbors
  special bonds CPU = 0.001 seconds
  read_data CPU = 0.008 seconds

pair_style	quip
pair_coeff	* * /ocean/projects/cts180021p/wuziqi/clease/mint-PD/PhaseDiagram-Clease/Liquid/GAP_potential/gap_LiKCl.xml "Potential xml_label=GAP_2021_9_27_0_1_17_37_618" 17 19 3

neighbor	0.3 bin
neigh_modify	delay 10

timestep	0.001
compute	msd all msd
thermo_style	custom step temp pe etotal press vol c_msd[4]
thermo	10
dump	1 all custom 10 xyz-mix.dump type id x y z
dump	2 all custom 10 force-mix.dump type id fx fy fz

fix     1 all nve
run     2000
Neighbor list info ...
  update every 1 steps, delay 10 steps, check yes
  max neighbors/atom: 2000, page size: 100000
  master list distance cutoff = 6.22
  ghost atom cutoff = 6.22
  binsize = 3.11, bins = 6 6 27
  1 neighbor lists, perpetual/occasional/extra = 1 0 0
  (1) pair quip, perpetual
      attributes: full, newton on
      pair build: full/bin
      stencil: full/bin/3d
      bin: standard
Per MPI rank memory allocation (min/avg/max) = 8.894 | 8.900 | 8.906 Mbytes
Step Temp PotEng TotEng Press Volume c_msd[4] 
       0            0   -7174.3834   -7174.3834   -3403.7864    24681.648            0 
      10    59.886459   -7181.0715   -7174.3911    -3591.811    24681.648 0.0004428069 
      20    152.53511   -7191.4143   -7174.3988    -3532.456    24681.648 0.0053913133 
      30    183.53475   -7194.8677   -7174.3941   -2645.2133    24681.648  0.017829876 
      40    202.66462   -7197.0001   -7174.3926   -1813.5571    24681.648  0.032805386 
      50    235.34035   -7200.6482   -7174.3956    -1646.813    24681.648   0.04588816 
      60    247.94168    -7202.052   -7174.3938   -1842.2959    24681.648   0.05765331 
      70    253.09642   -7202.6277   -7174.3944   -2064.7915    24681.648  0.069436765 
      80    250.99467   -7202.3926   -7174.3937   -2200.0016    24681.648  0.082900901 
      90    246.12852   -7201.8494   -7174.3934   -2173.7127    24681.648  0.099028065 
     100    244.92959   -7201.7179   -7174.3956   -1978.8699    24681.648   0.11746343 
     110    242.28341    -7201.419   -7174.3919   -1729.6413    24681.648   0.13557848 
     120    255.22195   -7202.8655   -7174.3951   -1848.0783    24681.648   0.15075494 
     130    256.29683   -7202.9842   -7174.3939     -2007.52    24681.648   0.16545013 
     140    255.59143   -7202.9057   -7174.3941   -2078.8051    24681.648   0.17976362 
     150    254.71653    -7202.809    -7174.395   -2143.2247    24681.648   0.19317961 
     160    251.90206   -7202.4945   -7174.3944   -2001.6951    24681.648   0.20534635 
     170    250.97219   -7202.3902   -7174.3939   -1889.6105    24681.648   0.21663825 
     180     257.3806   -7203.1055   -7174.3943   -1934.6918    24681.648    0.2288925 
     190     260.3621   -7203.4402   -7174.3964   -1958.2977    24681.648   0.24328518 
     200    252.18366   -7202.5243   -7174.3928   -1925.8316    24681.648   0.25702409 
     210    258.35994    -7203.215   -7174.3946   -1990.3907    24681.648   0.26669152 
     220    260.53492   -7203.4573   -7174.3943   -1988.9024    24681.648    0.2748492 
     230    258.23338   -7203.2005   -7174.3942   -1795.6857    24681.648   0.28332799 
     240    252.93197   -7202.6085   -7174.3936   -1566.3378    24681.648   0.29247854 
     250    254.73094   -7202.8097   -7174.3941   -1512.6013    24681.648   0.30118823 
     260    260.13921   -7203.4133   -7174.3944   -1595.4355    24681.648   0.30980823 
     270    263.33316   -7203.7692    -7174.394   -1672.2968    24681.648    0.3193726 
     280    266.81067   -7204.1584   -7174.3953   -1641.3932    24681.648   0.32972958 
     290    262.39696   -7203.6654   -7174.3946   -1516.4449    24681.648   0.34016636 
     300    261.07623   -7203.5192   -7174.3957   -1490.2694    24681.648   0.34870802 
     310    256.60645    -7203.019   -7174.3942   -1424.9004    24681.648   0.35616095 
     320    255.12221   -7202.8537   -7174.3944   -1431.1943    24681.648   0.36426417 
     330    257.21766   -7203.0875   -7174.3944   -1535.2284    24681.648   0.37294434 
     340    260.71445   -7203.4781    -7174.395   -1738.4386    24681.648   0.38207588 
     350    260.87542   -7203.4955   -7174.3944   -1787.8195    24681.648   0.39203939 
     360    259.24296   -7203.3137   -7174.3948   -1801.5109    24681.648   0.40305256 
     370     256.8045   -7203.0415   -7174.3946    -1871.197    24681.648   0.41474987 
     380    253.74937   -7202.7006   -7174.3945   -2006.2935    24681.648   0.42675018 
     390     250.3984   -7202.3262   -7174.3939   -2133.6916    24681.648    0.4387225 
     400    253.59482   -7202.6831   -7174.3942   -2227.7267    24681.648   0.44925493 
     410    258.62293   -7203.2446   -7174.3948   -2242.4151    24681.648   0.45744528 
     420    260.59152   -7203.4634   -7174.3941   -2202.0252    24681.648   0.46381779 
     430    265.56276   -7204.0186   -7174.3947   -2285.5748    24681.648   0.46928077 
     440    267.29796   -7204.2122   -7174.3947   -2340.4066    24681.648   0.47466356 
     450     263.7688   -7203.8177   -7174.3939   -2324.3833    24681.648   0.47995391 
     460    263.97331    -7203.841   -7174.3944   -2444.9636    24681.648   0.48477747 
     470    265.08715   -7203.9653   -7174.3944   -2633.9331    24681.648   0.48948207 
     480    264.24939   -7203.8716   -7174.3942   -2661.2403    24681.648   0.49464966 
     490    265.03895   -7203.9596   -7174.3941   -2483.9795    24681.648   0.50051068 
     500     268.0228   -7204.2928   -7174.3944   -2130.0039    24681.648   0.50762008 
     510    269.68559   -7204.4783   -7174.3945   -1895.8231    24681.648   0.51677182 
     520     269.3401     -7204.44   -7174.3947   -1772.5691    24681.648   0.52791571 
     530      266.526   -7204.1254    -7174.394   -1820.7728    24681.648   0.53993524 
     540    268.21801   -7204.3142   -7174.3941   -1957.9364    24681.648   0.55113406 
     550    273.27905   -7204.8799   -7174.3952   -1952.1322    24681.648   0.56047872 
     560     270.7895   -7204.6017   -7174.3947   -1784.6397    24681.648   0.56820517 
     570    267.63087   -7204.2482   -7174.3935    -1644.341    24681.648   0.57439114 
     580    274.75017   -7205.0438    -7174.395   -1642.7538    24681.648   0.57908351 
     590    278.06846    -7205.414    -7174.395   -1634.7568    24681.648   0.58273182 
     600    275.33483   -7205.1086   -7174.3946   -1546.2732    24681.648   0.58557023 
     610    272.73058   -7204.8178   -7174.3943   -1362.5514    24681.648   0.58813395 
     620     275.6395   -7205.1428   -7174.3948   -1228.8054    24681.648   0.59107932 
     630    277.82637   -7205.3871   -7174.3952    -1223.228    24681.648   0.59521422 
     640    275.21147   -7205.0945   -7174.3942   -1328.0133    24681.648   0.60059579 
     650    276.76341   -7205.2679   -7174.3945   -1587.9159    24681.648   0.60632225 
     660    280.29592   -7205.6626   -7174.3951   -1876.3308    24681.648   0.61197812 
     670    278.94874   -7205.5114   -7174.3943   -1988.9252    24681.648    0.6176124 
     680    279.62887   -7205.5876   -7174.3946    -1854.874    24681.648   0.62312175 
     690    278.35671   -7205.4465   -7174.3954     -1626.67    24681.648   0.62896185 
     700    269.37243   -7204.4429    -7174.394   -1418.2553    24681.648   0.63559784 
     710    266.45521   -7204.1181   -7174.3946   -1472.5221    24681.648   0.64215216 
     720    265.84495   -7204.0503   -7174.3949   -1709.2555    24681.648   0.64781464 
     730    263.59964   -7203.7992   -7174.3943   -1848.2285    24681.648   0.65193307 
     740    266.57701   -7204.1317   -7174.3946   -1895.4286    24681.648   0.65412735 
     750    271.76415   -7204.7106   -7174.3949   -1968.2386    24681.648   0.65547825 
     760      275.029   -7205.0755   -7174.3956   -2013.6107    24681.648   0.65726746 
     770     271.0675   -7204.6326   -7174.3946   -1846.7085    24681.648   0.65945095 
     780    271.60028    -7204.692   -7174.3946   -1756.0037    24681.648   0.66122261 
     790    276.79844    -7205.273   -7174.3957   -1802.9901    24681.648   0.66298127 
     800    272.61055    -7204.805   -7174.3949   -1872.3043    24681.648    0.6665383 
     810    266.19836   -7204.0894   -7174.3945   -1968.7863    24681.648   0.67221854 
     820    263.38752   -7203.7759   -7174.3946   -2141.6217    24681.648   0.67891951 
     830    264.77149   -7203.9298   -7174.3941   -2417.3308    24681.648   0.68520732 
     840    272.58637    -7204.803   -7174.3955   -2752.0813    24681.648   0.69025418 
     850    272.65549   -7204.8097   -7174.3946   -2928.1991    24681.648   0.69428736 
     860    273.59711   -7204.9144   -7174.3942   -2900.3005    24681.648    0.6970968 
     870    278.19824   -7205.4288   -7174.3953    -2707.162    24681.648    0.6996263 
     880    276.53864   -7205.2424   -7174.3941   -2500.9253    24681.648   0.70364771 
     890    279.23786   -7205.5442   -7174.3948   -2415.7746    24681.648   0.70924281 
     900    280.95843   -7205.7363    -7174.395    -2364.961    24681.648   0.71595523 
     910    278.43861   -7205.4551   -7174.3949   -2292.0963    24681.648   0.72276909 
     920    274.58034   -7205.0239    -7174.394   -2145.7325    24681.648    0.7279473 
     930    277.12312   -7205.3082   -7174.3947    -2157.167    24681.648   0.73037655 
     940    279.73337   -7205.5996   -7174.3949   -2169.2816    24681.648   0.73135876 
     950    279.22126   -7205.5421   -7174.3945   -2172.7349    24681.648   0.73362662 
     960    279.34211   -7205.5558   -7174.3947    -2162.325    24681.648   0.73879001 
     970    278.76831   -7205.4918   -7174.3948   -2041.5721    24681.648   0.74667297 
     980    277.67235   -7205.3697   -7174.3949   -1885.6852    24681.648   0.75580397 
     990    276.23383    -7205.209   -7174.3947   -1855.7306    24681.648   0.76364754 
    1000    276.65338   -7205.2559   -7174.3948   -1804.2694    24681.648   0.76766421 
    1010    277.15823    -7205.313   -7174.3956    -1670.983    24681.648   0.76766874 
    1020    269.42126   -7204.4494   -7174.3951   -1424.7931    24681.648   0.76610705 
    1030     260.7554   -7203.4818   -7174.3941   -1215.0065    24681.648   0.76554395 
    1040    261.30906   -7203.5441   -7174.3947   -1098.2689    24681.648   0.76665088 
    1050    265.20034   -7203.9786   -7174.3951   -1049.7855    24681.648   0.76872121 
    1060    265.37142   -7203.9979   -7174.3953     -1168.93    24681.648    0.7710414 
    1070    262.30523   -7203.6545    -7174.394   -1216.5846    24681.648   0.77312784 
    1080     269.2805   -7204.4336   -7174.3949   -1303.2806    24681.648   0.77456841 
    1090    278.21465   -7205.4311   -7174.3958   -1474.4916    24681.648   0.77578562 
    1100    279.83218   -7205.6107    -7174.395   -1575.5621    24681.648   0.77731718 
    1110    283.74367   -7206.0469   -7174.3949   -1579.9493    24681.648   0.77887111 
    1120    290.78719   -7206.8334   -7174.3957   -1573.7467    24681.648   0.78005841 
    1130    290.95381   -7206.8511   -7174.3948   -1519.3089    24681.648   0.78128493 
    1140    291.42672   -7206.9042   -7174.3951   -1587.1629    24681.648   0.78343187 
    1150    288.83961    -7206.616   -7174.3955   -1727.5352    24681.648   0.78763344 
    1160    278.98488   -7205.5156   -7174.3944   -1780.0997    24681.648   0.79353187 
    1170     274.5083   -7205.0159   -7174.3941   -1742.9948    24681.648   0.79894507 
    1180    278.08142   -7205.4157   -7174.3953   -1700.4448    24681.648   0.80276226 
    1190    278.86175    -7205.502   -7174.3946   -1575.2201    24681.648    0.8050797 
    1200    282.48118   -7205.9064   -7174.3952   -1531.0337    24681.648   0.80550341 
    1210     282.2015   -7205.8756   -7174.3956   -1582.1964    24681.648    0.8047093 
    1220    273.66019   -7204.9216   -7174.3943   -1443.9202    24681.648   0.80424724 
    1230    271.02344   -7204.6278   -7174.3947   -1294.8219    24681.648   0.80553838 
    1240    273.21828   -7204.8729    -7174.395   -1344.7406    24681.648   0.80963811 
    1250    274.53804   -7205.0205   -7174.3953   -1557.8461    24681.648   0.81626207 
    1260    273.33761   -7204.8857   -7174.3945   -1709.4029    24681.648    0.8238996 
    1270    277.03845    -7205.299   -7174.3949   -1861.8941    24681.648   0.83066888 
    1280    279.60921   -7205.5866   -7174.3958   -1776.8315    24681.648   0.83577326 
    1290     271.8553   -7204.7208   -7174.3949   -1451.3285    24681.648    0.8390946 
    1300    264.41726   -7203.8899   -7174.3937   -1174.9198    24681.648   0.84015079 
    1310    270.14381   -7204.5298   -7174.3948   -1305.4319    24681.648   0.83955817 
    1320    276.28563    -7205.216   -7174.3959   -1616.8447    24681.648    0.8394972 
    1330    269.37516    -7204.444   -7174.3948   -1792.2063    24681.648   0.84108811 
    1340    263.66565    -7203.806   -7174.3937   -1787.5686    24681.648   0.84324181 
    1350    271.75636   -7204.7105   -7174.3956   -1789.9886    24681.648   0.84491174 
    1360    274.27239   -7204.9909   -7174.3954   -1904.3466    24681.648   0.84675977 
    1370    271.14124   -7204.6406   -7174.3944   -2044.7094    24681.648   0.84884467 
    1380    273.68352    -7204.925   -7174.3952   -2173.0979    24681.648   0.85060846 
    1390    275.02452   -7205.0744    -7174.395   -2215.3954    24681.648   0.85231893 
    1400    276.25601   -7205.2118    -7174.395   -2238.0373    24681.648   0.85406463 
    1410    278.84188   -7205.4999   -7174.3947   -2167.4859    24681.648   0.85604751 
    1420    283.63171   -7206.0351   -7174.3956   -2106.7356    24681.648   0.85860197 
    1430     281.5104   -7205.7981   -7174.3952   -2039.7153    24681.648   0.86172051 
    1440    277.08643   -7205.3037   -7174.3943   -2134.4004    24681.648   0.86445233 
    1450    280.14663   -7205.6458    -7174.395   -2425.0475    24681.648   0.86616941 
    1460    284.16882   -7206.0946   -7174.3952   -2629.1536    24681.648   0.86801931 
    1470    286.02648   -7206.3014   -7174.3947   -2499.1716    24681.648   0.87115512 
    1480    288.85345   -7206.6176   -7174.3956   -2167.0023    24681.648   0.87530865 
    1490    284.31956   -7206.1114   -7174.3951   -1635.6837    24681.648   0.87953488 
    1500    278.98283   -7205.5151   -7174.3941    -1216.743    24681.648   0.88285916 
    1510    281.81212   -7205.8323   -7174.3957   -1229.4385    24681.648   0.88582692 
    1520    276.49173   -7205.2381   -7174.3951   -1562.5155    24681.648   0.89044229 
    1530    268.60167    -7204.357   -7174.3941   -1832.8137    24681.648   0.89739602 
    1540    268.44471   -7204.3404   -7174.3949   -2013.3452    24681.648   0.90578469 
    1550    268.16938   -7204.3093   -7174.3946   -2010.8653    24681.648   0.91410017 
    1560    269.46062   -7204.4535   -7174.3947   -1942.9791    24681.648   0.92102099 
    1570    272.53021   -7204.7961    -7174.395   -1895.4867    24681.648   0.92617748 
    1580    274.16463   -7204.9785   -7174.3951   -1823.6829    24681.648   0.92969488 
    1590    274.08365    -7204.969   -7174.3945   -1694.8776    24681.648   0.93183336 
    1600    276.38809   -7205.2266   -7174.3951   -1582.4042    24681.648   0.93327697 
    1610    276.47515   -7205.2358   -7174.3946    -1514.064    24681.648   0.93523754 
    1620    278.82635   -7205.4983   -7174.3948   -1527.2623    24681.648   0.93825527 
    1630    283.05477   -7205.9703   -7174.3951   -1480.4486    24681.648   0.94238563 
    1640    283.75544   -7206.0487   -7174.3953   -1428.7453    24681.648   0.94810451 
    1650    279.65577   -7205.5907   -7174.3946   -1482.0142    24681.648   0.95569667 
    1660    277.97149   -7205.4028   -7174.3947   -1644.7201    24681.648   0.96460041 
    1670    277.63235   -7205.3655   -7174.3952   -1799.5694    24681.648   0.97399532 
    1680     273.1457   -7204.8646   -7174.3948   -1807.2549    24681.648     0.982653 
    1690     269.1131   -7204.4145   -7174.3945    -1848.628    24681.648   0.98867138 
    1700    269.43844   -7204.4513    -7174.395   -2023.5742    24681.648   0.99116369 
    1710    269.78252   -7204.4896   -7174.3949   -2209.0436    24681.648    0.9917874 
    1720    270.65906   -7204.5872   -7174.3948   -2303.1156    24681.648   0.99313368 
    1730    273.04698    -7204.854   -7174.3952   -2347.4849    24681.648   0.99679692 
    1740    274.23892   -7204.9868   -7174.3951   -2237.2262    24681.648    1.0035992 
    1750    273.69441   -7204.9263   -7174.3952   -2020.2102    24681.648    1.0135583 
    1760    270.40125   -7204.5585   -7174.3949    -1788.634    24681.648    1.0251981 
    1770    270.68343   -7204.5897   -7174.3946   -1549.0244    24681.648    1.0353833 
    1780    277.90453   -7205.3964   -7174.3957    -1511.742    24681.648    1.0415834 
    1790    279.00509   -7205.5188   -7174.3954   -1597.8653    24681.648    1.0442507 
    1800    277.00732   -7205.2948   -7174.3942   -1788.7028    24681.648    1.0451598 
    1810    282.39257   -7205.8967   -7174.3954   -2040.7403    24681.648    1.0459368 
    1820    284.13814   -7206.0911   -7174.3951   -2280.9528    24681.648    1.0481335 
    1830    282.91429   -7205.9545   -7174.3949   -2430.6285    24681.648    1.0523919 
    1840     281.3318   -7205.7782   -7174.3952   -2306.2747    24681.648    1.0583276 
    1850    277.24801   -7205.3224    -7174.395   -2023.8294    24681.648    1.0646013 
    1860    275.86189   -7205.1669   -7174.3941   -1648.8281    24681.648    1.0693247 
    1870    285.01658   -7206.1898   -7174.3957   -1237.5386    24681.648    1.0720376 
    1880    287.69204   -7206.4885    -7174.396   -948.96764    24681.648    1.0743863 
    1890    280.11635   -7205.6423   -7174.3949   -885.51677    24681.648    1.0774135 
    1900    276.31656   -7205.2185    -7174.395   -989.28796    24681.648    1.0809193 
    1910      276.623   -7205.2529   -7174.3952   -1167.7604    24681.648    1.0845535 
    1920    277.67777   -7205.3704    -7174.395   -1316.9346    24681.648    1.0879417 
    1930    280.71277   -7205.7092   -7174.3953   -1469.0337    24681.648    1.0909294 
    1940    281.53928   -7205.8014   -7174.3953   -1673.5867    24681.648     1.094033 
    1950    279.58172   -7205.5827    -7174.395   -1827.7357    24681.648    1.0978665 
    1960    278.22672   -7205.4318   -7174.3952   -1824.7991    24681.648    1.1027058 
    1970    275.53555   -7205.1314    -7174.395    -1644.041    24681.648    1.1084664 
    1980    273.96064   -7204.9552   -7174.3945   -1378.9505    24681.648    1.1145371 
    1990    277.66865   -7205.3694    -7174.395   -1245.5747    24681.648    1.1207676 
    2000    280.84548   -7205.7241   -7174.3953   -1211.1794    24681.648    1.1274187 
Loop time of 1125.26 on 16 procs for 2000 steps with 864 atoms

Performance: 0.154 ns/day, 156.287 hours/ns, 1.777 timesteps/s
97.7% CPU use with 16 MPI tasks x 1 OpenMP threads

MPI task timing breakdown:
Section |  min time  |  avg time  |  max time  |%varavg| %total
---------------------------------------------------------------
Pair    | 384.07     | 882.09     | 1111.9     | 636.0 | 78.39
Bond    | 0.000139   | 0.00043319 | 0.0011563  |   0.0 |  0.00
Neigh   | 0.017056   | 0.026246   | 0.037775   |   3.0 |  0.00
Comm    | 12.916     | 228.28     | 716.85     |1214.7 | 20.29
Output  | 0.3831     | 7.625      | 20.113     | 241.9 |  0.68
Modify  | 0.0085046  | 0.010506   | 0.015927   |   1.7 |  0.00
Other   |            | 7.231      |            |       |  0.64

Nlocal:        54.0000 ave          68 max          38 min
Histogram: 2 0 1 2 1 3 1 3 1 2
Nghost:        453.312 ave         541 max         363 min
Histogram: 1 1 1 3 2 1 4 1 1 1
Neighs:         0.00000 ave           0 max           0 min
Histogram: 16 0 0 0 0 0 0 0 0 0
FullNghs:      1935.12 ave        2876 max         990 min
Histogram: 2 0 2 1 4 1 2 1 2 1

Total # of neighbors = 30962
Ave neighs/atom = 35.835648
Ave special neighs/atom = 0.0000000
Neighbor list builds = 199
Dangerous builds = 198
unfix   1

velocity    all create 300.0 1312343 dist gaussian
fix     2 all npt temp 300.0 300.0 $(100.0*dt) aniso 0.0 1.01325 $(1000.0*dt)
fix     2 all npt temp 300.0 300.0 0.10000000000000000555 aniso 0.0 1.01325 $(1000.0*dt)
fix     2 all npt temp 300.0 300.0 0.10000000000000000555 aniso 0.0 1.01325 1
run     3000
Per MPI rank memory allocation (min/avg/max) = 8.894 | 8.901 | 8.907 Mbytes
Step Temp PotEng TotEng Press Volume c_msd[4] 
    2000          300   -7205.7241   -7172.2586   -1118.7114    24681.648    1.1274187 
    2010     294.5406   -7205.1138   -7172.2574   -1101.5327    24678.787    1.1281516 
    2020    295.64077   -7205.2301    -7172.251   -1049.4214    24670.304    1.1272946 
    2030    301.07549   -7205.8252   -7172.2398   -900.45037    24656.518    1.1259877 
    2040    292.18673   -7204.8187   -7172.2249    -696.5707    24638.176    1.1252264 
    2050    282.68264   -7203.7257    -7172.192   -516.16782    24616.275    1.1238813 
    2060    288.01038   -7204.2521   -7172.1241     -382.347    24591.724    1.1207924 
    2070    294.10193   -7204.8288   -7172.0213   -297.51504     24565.21    1.1165772 
    2080    295.25432   -7204.8302   -7171.8941   -297.37577    24537.168    1.1120039 
    2090    297.42912   -7204.9263   -7171.7477   -311.00677    24507.626    1.1076188 
    2100    300.68008   -7205.1224   -7171.5811   -97.030481    24476.652    1.1043877 
    2110    302.95561   -7205.1898   -7171.3947    259.03789    24445.303    1.1028949 
    2120    303.91051    -7205.096   -7171.1943    496.10084     24415.22    1.1026411 
    2130     302.4851   -7204.7301   -7170.9874    566.40974    24387.595    1.1028029 
    2140    303.72301    -7204.659   -7170.7783    490.03795     24362.77    1.1027607 
    2150    307.69762   -7204.8952   -7170.5711    286.95608    24340.349    1.1021389 
    2160    307.94803   -7204.7267   -7170.3747    112.99192    24319.415    1.1014782 
    2170     306.0271   -7204.3316   -7170.1938    77.445723    24299.136    1.1017655 
    2180    305.62032   -7204.1167   -7170.0243    168.37041    24279.321    1.1034238 
    2190    302.24459   -7203.5783   -7169.8625    370.36657    24260.404    1.1063787 
    2200    299.65745   -7203.1295   -7169.7023     627.3495    24243.364    1.1099038 
    2210     302.5141   -7203.2849    -7169.539    781.27336    24229.394    1.1130935 
    2220     300.6496   -7202.9138   -7169.3758    745.61819    24219.197    1.1159594 
    2230    296.85561   -7202.3303   -7169.2156    612.18203    24212.649    1.1191436 
    2240    300.03889   -7202.5218    -7169.052    407.00331    24209.082     1.123369 
    2250    303.67289   -7202.7608   -7168.8856    52.009211    24207.451    1.1295005 
    2260     303.3695   -7202.5662   -7168.7249   -297.64213    24206.096    1.1374674 
    2270     303.5069   -7202.4301   -7168.5734   -488.48392    24203.355    1.1456893 
    2280    305.19639   -7202.4761    -7168.431   -505.77555    24198.315    1.1529248 
    2290    310.88988   -7202.9828   -7168.3026   -556.66121    24190.759    1.1596277 
    2300    310.70726   -7202.8552   -7168.1954   -500.17877    24180.537    1.1668115 
    2310    307.58563   -7202.4236   -7168.1119   -369.96841     24167.88    1.1739386 
    2320    312.87334     -7202.95   -7168.0485   -216.40452    24153.414    1.1798669 
    2330    316.59783   -7203.3278   -7168.0108   -15.961374    24137.891    1.1844812 
    2340     313.4909   -7202.9757   -7168.0053    264.54984    24122.298    1.1877336 
    2350    314.54668    -7203.121   -7168.0329    483.62403    24107.943    1.1895001 
    2360    314.70143   -7203.2044    -7168.099    671.70731    24095.914    1.1910191 
    2370     310.8778   -7202.8885   -7168.2096     764.4496    24087.087    1.1937933 
    2380    311.94977   -7203.1698   -7168.3714    671.81089    24081.889    1.1978465 
    2390    313.77771   -7203.6049   -7168.6025    480.45848      24079.9    1.2026348 
    2400    309.31997   -7203.4305   -7168.9254    316.06593    24080.237    1.2080231 
    2410    303.72758   -7203.2294   -7169.3481    127.49504    24082.095    1.2129882 
    2420    300.92029    -7203.428   -7169.8599   -16.168399    24084.632     1.216544 
    2430    293.22143   -7203.1077   -7170.3984   -93.308497    24087.168    1.2193921 
    2440    286.25744   -7202.8004   -7170.8679   -175.46623    24089.249    1.2227421 
    2450    287.40242   -7203.2745   -7171.2144   -124.39365    24090.559    1.2270612 
    2460      297.314   -7204.6182   -7171.4523   -84.426488    24091.273    1.2320793 
    2470    302.62245   -7205.3784   -7171.6204   -100.15379    24091.573    1.2378134 
    2480    301.11048   -7205.3383    -7171.749   -84.122097    24091.395    1.2440933 
    2490      295.613   -7204.8219   -7171.8458     54.34365    24090.861    1.2498306 
    2500    298.67309   -7205.2365   -7171.9191    148.01388    24090.567     1.253648 
    2510    305.06749   -7206.0153   -7171.9846    154.05959    24090.957      1.25623 
    2520    299.86767   -7205.5007     -7172.05    214.94608    24092.133    1.2593702 
    2530    295.90165    -7205.119   -7172.1107    209.81351    24094.341    1.2630466 
    2540    294.71432   -7205.0354   -7172.1596    23.462843    24097.494    1.2668367 
    2550    291.77297   -7204.7392   -7172.1915    -54.53962    24100.842    1.2709252 
    2560     293.9692    -7205.001   -7172.2083   -8.9099429    24103.983    1.2756161 
    2570    295.42884   -7205.1662   -7172.2106    159.99001    24107.151    1.2817976 
    2580    302.94702   -7206.0018   -7172.2076    184.74416    24111.053    1.2899967 
    2590    307.32964   -7206.4913   -7172.2082    110.28633     24115.83    1.3004288 
    2600    303.15225   -7206.0357   -7172.2186    91.636705    24121.172    1.3130348 
    2610    294.63086   -7205.0969   -7172.2304    141.33324     24126.99     1.326672 
    2620    294.75032    -7205.115   -7172.2352    102.29686    24133.449    1.3394603 
    2630    295.48957   -7205.1921   -7172.2298     27.31678    24140.402    1.3510454 
    2640    292.70938   -7204.8655   -7172.2133    -15.57229    24147.516     1.362119 
    2650    292.87507   -7204.8544   -7172.1838   -133.35653    24154.506    1.3732327 
    2660    287.80293   -7204.2399   -7172.1351   -192.07887    24160.874    1.3848352 
    2670    288.37432   -7204.2284   -7172.0598    -262.8982    24166.321    1.3964753 
    2680    298.28679   -7205.2297   -7171.9554    -479.5401    24170.429     1.407781 
    2690    302.54273   -7205.5837   -7171.8346   -568.84331    24172.281    1.4186378 
    2700    302.83659   -7205.4965   -7171.7147   -519.27082    24171.424    1.4280983 
    2710    303.85674   -7205.4959   -7171.6002   -221.71782    24168.147    1.4354918 
    2720    303.86264   -7205.3883    -7171.492    252.56287    24163.871    1.4411285 
    2730     299.7492   -7204.8263   -7171.3888    655.72723    24160.812    1.4458503 
    2740    297.20107   -7204.4392    -7171.286    715.22956    24160.806     1.450204 
    2750    296.95202   -7204.3024    -7171.177    655.98929    24164.267    1.4552679 
    2760    296.93572   -7204.1819   -7171.0583    685.37215    24170.993    1.4619115 
    2770    298.13937   -7204.1877   -7170.9298    681.33688    24181.077    1.4694054 
    2780    299.73921   -7204.2306   -7170.7942    568.85763    24194.468    1.4766048 
    2790    299.26453   -7204.0365   -7170.6531    416.74076    24210.662    1.4828024 
    2800     300.3686   -7204.0147   -7170.5081    270.33801    24228.942    1.4867493 
    2810    301.76136   -7204.0216   -7170.3597    74.760886    24248.551    1.4869781 
    2820    303.80953   -7204.1014    -7170.211   -103.81838    24268.576    1.4836015 
    2830    306.56964   -7204.2643    -7170.066   -276.36324    24288.126    1.4791576 
    2840    309.78885   -7204.4881   -7169.9307   -424.12557    24306.356    1.4767415 
    2850    310.30714   -7204.4293   -7169.8141    -505.3303    24322.572    1.4781705 
    2860    305.13444   -7203.7567   -7169.7185   -655.12582    24336.282    1.4832742 
    2870    299.60684   -7203.0559   -7169.6343   -882.38241    24346.756    1.4901572 
    2880    299.22052   -7202.9298   -7169.5513   -1256.9299    24352.807    1.4962498 
    2890    299.92142   -7202.9256   -7169.4689   -1406.7832    24352.746    1.5003413 
    2900    301.34334   -7203.0043    -7169.389   -1282.4594    24345.807    1.5032162 
    2910    307.18222   -7203.5814   -7169.3148    -1016.803    24332.545    1.5064256 
    2920    309.19791   -7203.7439   -7169.2524   -764.36506    24314.205    1.5108672 
    2930     310.4049   -7203.8332   -7169.2071   -536.47444    24292.045     1.516204 
    2940    313.10955   -7204.1077   -7169.1799   -371.89171    24267.202    1.5218772 
    2950    310.65561   -7203.8307   -7169.1766   -320.45233    24240.486    1.5277578 
    2960    303.00987   -7202.9952    -7169.194   -379.52654    24212.159    1.5332822 
    2970    300.81523   -7202.7763   -7169.2199   -376.25292    24182.037    1.5377136 
    2980    303.88617   -7203.1423   -7169.2434   -240.90694    24150.195    1.5412917 
    2990    309.07275   -7203.7537   -7169.2761   -24.792669     24117.31    1.5447805 
    3000    305.31547   -7203.3896   -7169.3312    247.40182    24084.461    1.5486995 
    3010    303.92374   -7203.3167   -7169.4135    358.72692    24052.876     1.552731 
    3020    307.83241   -7203.8627   -7169.5235    478.92885    24023.216    1.5570371 
    3030    310.66561   -7204.3269   -7169.6717    676.32208    23996.088    1.5625051 
    3040    301.19747   -7203.4603   -7169.8612     882.2864    23972.404    1.5700041 
    3050    296.57819   -7203.1648    -7170.081    853.59929    23953.011    1.5786691 
    3060    304.84103   -7204.3404   -7170.3349     561.2631    23937.701    1.5870214 
    3070    305.84845   -7204.7431   -7170.6252    450.46014    23925.261    1.5946583 
    3080    304.26676   -7204.8784    -7170.937    550.16279    23915.162    1.6008869 
    3090    308.53647   -7205.6747    -7171.257    596.87991    23907.721    1.6051898 
    3100    305.84938   -7205.6925   -7171.5745    669.64735    23903.175    1.6082294 
    3110    297.05718   -7205.0018   -7171.8646     785.9068    23901.857    1.6107116 
    3120    294.12346   -7204.9225   -7172.1126    839.93861    23904.284     1.612849 
    3130    292.73622   -7204.9718   -7172.3166    795.19049    23910.681    1.6151851 
    3140    293.69137   -7205.2443   -7172.4825    752.08505    23920.855    1.6185234 
    3150    294.97909   -7205.5216   -7172.6163    764.37679    23934.618    1.6239505 
    3160    299.34708    -7206.119   -7172.7264    685.28251    23951.946     1.632089 
    3170    298.64804   -7206.1356    -7172.821     645.6485    23972.531    1.6421707 
    3180    293.89856    -7205.686   -7172.9011    575.94799    23996.146    1.6516418 
    3190    298.68013    -7206.288   -7172.9698    346.71122    24022.362    1.6584195 
    3200    299.06875   -7206.3922   -7173.0306    182.25733    24050.183    1.6634464 
    3210    296.71789   -7206.1831   -7173.0838   -39.465313    24078.734     1.668036 
    3220    295.87477    -7206.126   -7173.1208   -335.54504    24106.916    1.6725615 
    3230    295.85678   -7206.1448   -7173.1415   -562.76045    24133.349    1.6769978 
    3240    293.34882   -7205.8709   -7173.1474   -709.84277    24156.919    1.6814148 
    3250     288.7159   -7205.3415   -7173.1348   -733.38455    24176.934    1.6860729 
    3260    290.10071   -7205.4624   -7173.1012    -654.2597    24193.274    1.6906311 
    3270    295.42619   -7206.0052   -7173.0499   -483.67705    24206.338    1.6944305 
    3280    301.42722   -7206.6159   -7172.9912    -230.4413     24216.99    1.6974407 
    3290    304.47739   -7206.9007   -7172.9358   -56.705217    24226.401    1.6999637 
    3300    303.61051   -7206.7564   -7172.8882   -16.931699    24235.415    1.7016559 
    3310    305.97917   -7206.9815   -7172.8491   -228.97243    24244.175    1.7013939 
    3320    305.82091   -7206.9348     -7172.82   -540.33715    24251.722    1.6994408 
    3330    299.27551   -7206.1852   -7172.8005   -586.08239    24256.692    1.6970757 
    3340    300.13222   -7206.2638   -7172.7836   -476.58131     24258.81    1.6952931 
    3350    306.23121   -7206.9279   -7172.7673   -320.00685    24258.589    1.6949987 
    3360    305.71509   -7206.8635   -7172.7605   -40.339829    24256.851    1.6965144 
    3370    301.85094   -7206.4378   -7172.7659    178.53086    24254.894    1.6986204 
    3380    298.36522   -7206.0596   -7172.7765    232.68004    24253.766    1.6998084 
    3390    291.25258   -7205.2702   -7172.7806    79.063987    24253.684    1.6999285 
    3400     288.7223   -7204.9724    -7172.765   -258.81977    24253.887    1.6994554 
    3410    296.72884   -7205.8222   -7172.7217   -497.02476    24252.873    1.6987312 
    3420    305.26049   -7206.7113    -7172.659   -405.40332    24249.566    1.6986197 
    3430    303.69369   -7206.4694   -7172.5919   -150.49481    24244.346    1.7004702 
    3440    297.89019   -7205.7542   -7172.5241    42.003888    24238.413    1.7043678 
    3450    301.36942   -7206.0684   -7172.4502   -118.44967    24232.571    1.7091194 
    3460    303.62918   -7206.2403     -7172.37   -418.08565    24226.147    1.7149763 
    3470    297.86632   -7205.5125   -7172.2851   -669.05266    24217.752    1.7227752 
    3480    298.18834   -7205.4527   -7172.1893   -849.27772    24206.168    1.7321841 
    3490    303.74393   -7205.9619   -7172.0788   -835.66938      24190.6    1.7424817 
    3500    304.53752   -7205.9327   -7171.9611   -597.79552    24171.171    1.7532362 
    3510    298.75271   -7205.1631   -7171.8368   -207.22575    24149.057     1.764076 
    3520    297.78583   -7204.9155   -7171.6971     92.37337    24126.077    1.7744647 
    3530    303.88923   -7205.4387   -7171.5394    254.90017    24103.695    1.7849812 
    3540    308.53432    -7205.793   -7171.3756    322.64428    24082.693    1.7972214 
    3550    306.85132   -7205.4474   -7171.2177    424.41745    24063.465     1.811859 
    3560    308.39392    -7205.472   -7171.0702    445.21077    24046.414    1.8272794 
    3570    309.52839   -7205.4648   -7170.9364    476.43426    24031.656    1.8415585 
    3580    307.37798   -7205.1082   -7170.8197    669.00783    24019.401     1.853166 
    3590    307.99616   -7205.0754   -7170.7179    831.01551    24010.456    1.8611855 
    3600    306.80868   -7204.8517   -7170.6267    814.13192    24005.523    1.8661755 
    3610    313.33491   -7205.5023   -7170.5493    520.93214     24004.44    1.8689742 
    3620    318.28562   -7206.0024   -7170.4971    233.94423    24005.896    1.8713964 
    3630    311.65128   -7205.2462    -7170.481    168.74667    24008.565    1.8751165 
    3640    306.52582   -7204.6874    -7170.494    162.20718     24012.04    1.8796089 
    3650    302.40233   -7204.2584   -7170.5249    255.54717    24016.318    1.8845541 
    3660    297.50035    -7203.752   -7170.5654    404.66831    24021.817     1.889764 
    3670    296.71345   -7203.7049    -7170.606    497.85095    24029.216    1.8943228 
    3680    302.46324   -7204.3865   -7170.6463    478.27909    24038.922    1.8975673 
    3690    305.44942   -7204.7701   -7170.6967    490.82154    24050.892    1.8994206 
    3700    300.54618   -7204.2898   -7170.7634    565.75314    24065.179    1.8993978 
    3710    300.10864   -7204.3209   -7170.8433    654.28663    24082.123    1.8971543 
    3720     305.2631   -7204.9889   -7170.9364    659.25056    24102.092    1.8939362 
    3730    311.39396   -7205.7954    -7171.059    566.50426    24125.095    1.8915082 
    3740    302.66226   -7204.9808   -7171.2184    519.67989    24150.725    1.8908339 
    3750    291.79724   -7203.9454    -7171.395    363.86978    24178.632    1.8903127 
    3760    297.16595   -7204.7211   -7171.5718    23.665254    24208.018    1.8877165 
    3770    303.82963   -7205.6462   -7171.7535   -343.41202    24237.296    1.8839991 
    3780    305.61073   -7206.0453   -7171.9539   -616.41143    24264.704    1.8814425 
    3790    303.92281   -7206.0815   -7172.1784   -769.73163    24288.897    1.8811836 
    3800    297.44517    -7205.598   -7172.4175   -885.99873    24309.126      1.88331 
    3810    291.94513   -7205.2172   -7172.6503   -1194.2308    24324.726    1.8864685 
    3820    293.73713   -7205.6332   -7172.8664   -1513.6556     24334.31    1.8887232 
    3830    296.53162   -7206.1491   -7173.0706   -1576.2761    24336.459    1.8897619 
    3840    296.20594    -7206.308   -7173.2658   -1407.2031    24330.902    1.8905469 
    3850    295.03751   -7206.3588   -7173.4469   -1189.9394    24318.479    1.8917957 
    3860    294.49522   -7206.4603   -7173.6089   -989.19472    24300.316      1.89397 
    3870    294.67002   -7206.6186   -7173.7477   -728.88117    24277.495    1.8972827 
    3880    296.95732   -7206.9907   -7173.8647    -418.4972    24251.364    1.9014818 
    3890    297.60108   -7207.1614   -7173.9636   -120.92711    24223.475    1.9068859 
    3900    299.43738   -7207.4558   -7174.0531    4.6366898    24195.211     1.914465 
    3910    293.88383   -7206.9159   -7174.1327     126.6325    24167.317    1.9246778 
    3920    289.06057   -7206.4392    -7174.194    215.11415    24140.336    1.9360633 
    3930    290.44443   -7206.6287   -7174.2292    328.42446    24114.734    1.9474566 
    3940    294.05057   -7207.0444   -7174.2427    504.12083    24091.064    1.9584802 
    3950    288.71941   -7206.4427   -7174.2356    831.82838    24070.233    1.9695244 
    3960    283.60295   -7205.8389   -7174.2025    943.58177    24053.585    1.9810901 
    3970    286.13715   -7206.0582   -7174.1391    807.11504    24041.592    1.9936154 
    3980    291.74376   -7206.5927   -7174.0483    736.35054    24033.694    2.0071847 
    3990    295.29116   -7206.8778   -7173.9377    688.87923    24029.467    2.0208304 
    4000     301.4628   -7207.4471   -7173.8185    477.89371    24028.526    2.0332852 
    4010    303.61661   -7207.5698   -7173.7009    312.79499    24029.934    2.0440819 
    4020     300.9448   -7207.1649   -7173.5941    227.61719    24032.838    2.0528119 
    4030    298.43738   -7206.7873   -7173.4961    260.00749    24036.842    2.0596457 
    4040    299.52288   -7206.8131   -7173.4009     180.7569        24042    2.0660983 
    4050    303.13494   -7207.1231   -7173.3079    3.6649398    24047.912    2.0739033 
    4060    302.02101   -7206.9138   -7173.2229    20.637689    24053.834    2.0834509 
    4070    298.48125    -7206.443    -7173.147    155.95773    24059.798    2.0936574 
    4080    298.38162   -7206.3609    -7173.076    262.03884    24066.398     2.103334 
    4090    292.18786   -7205.5961   -7173.0021    432.35657    24074.209     2.111554 
    4100    294.72285   -7205.7971   -7172.9203    442.59882    24083.917    2.1165695 
    4110    303.59656   -7206.6987   -7172.8321    156.28679    24095.478    2.1182291 
    4120    301.45469   -7206.3771   -7172.7493   -199.68515    24107.592    2.1190152 
    4130     293.8276    -7205.449   -7172.6721   -574.36048    24118.558    2.1210436 
    4140    293.30886   -7205.3083   -7172.5892   -922.75384    24126.603    2.1252836 
    4150    294.90655   -7205.3947   -7172.4974   -1151.7026    24130.109    2.1327772 
    4160    298.65137   -7205.7192   -7172.4042   -1328.0336    24127.999     2.143499 
    4170     302.9724   -7206.1168   -7172.3197   -1379.9008    24119.544    2.1564309 
    4180    308.78822   -7206.7024   -7172.2566   -1253.2211     24104.62    2.1707508 
    4190     309.3517   -7206.7302   -7172.2216   -919.85388    24083.977    2.1861216 
    4200    299.78295   -7205.6471   -7172.2058   -479.38237    24059.292    2.2021171 
    4210    293.95054   -7204.9782   -7172.1876   -108.64136    24032.692    2.2177288 
    4220    299.06515   -7205.5221   -7172.1609    114.06779    24005.957    2.2319712 
    4230    301.15742   -7205.7281   -7172.1335    305.80125    23980.224    2.2442669 
    4240    301.86352   -7205.7876   -7172.1142    431.86934    23956.382    2.2540152 
    4250     300.0674    -7205.576    -7172.103    452.58093    23934.985    2.2605705 
    4260    297.37363     -7205.27   -7172.0975    430.28667    23916.109    2.2629533 
    4270    299.70608   -7205.5287   -7172.0961    340.28522    23899.588    2.2603769 
    4280    304.27866   -7206.0429   -7172.1002    327.53754        23885     2.253498 
    4290    305.31431   -7206.1713    -7172.113    466.39628    23872.286    2.2433356 
    4300    302.12159   -7205.8378   -7172.1357    598.95718    23861.992    2.2299068 
    4310    293.23446   -7204.8687   -7172.1579     808.3203    23854.759    2.2124974 
    4320    292.90933   -7204.8396   -7172.1652    826.83387    23851.393    2.1902356 
    4330    302.51856   -7205.9047   -7172.1583    630.16599    23851.895    2.1645456 
    4340    305.37971   -7206.2196    -7172.154    547.75916    23855.441    2.1384461 
    4350    303.32413    -7205.998   -7172.1617    473.67098    23861.513    2.1136198 
    4360    303.53985   -7206.0365   -7172.1761     429.7918    23869.724    2.0902855 
    4370    304.09327   -7206.1164   -7172.1943    469.79391    23879.856    2.0687713 
    4380    303.01914    -7206.021   -7172.2188    428.62529     23891.98    2.0500966 
    4390    298.65098   -7205.5617   -7172.2468    222.75757    23905.809    2.0350965 
    4400    294.52459   -7205.1243   -7172.2696     45.41302    23920.413    2.0240302 
    4410    292.56103   -7204.9173   -7172.2817    94.833739    23935.044    2.0158897 
    4420     293.0231    -7204.968   -7172.2809    139.76631    23949.832    2.0087692 
    4430     295.9434   -7205.2804   -7172.2675    52.307834    23964.917    2.0012141 
    4440    294.96268   -7205.1446   -7172.2411    -145.6257    23979.889    1.9929063 
    4450    297.10861   -7205.3457   -7172.2028   -348.13021    23993.878    1.9844612 
    4460    298.62295   -7205.4677   -7172.1558   -542.59189    24005.893    1.9771613 
    4470    294.85694   -7204.9937    -7172.102   -452.59719    24015.195    1.9717157 
    4480    297.63063    -7205.242   -7172.0409   -217.20889    24022.198    1.9683837 
    4490     299.2523   -7205.3521     -7171.97    29.263532    24028.031    1.9682194 
    4500    300.22503   -7205.3829   -7171.8923    243.51611    24033.894    1.9712374 
    4510    304.28208   -7205.7502   -7171.8071    325.42293    24040.753    1.9758538 
    4520     311.0252   -7206.4168   -7171.7215    241.15943    24048.961    1.9801808 
    4530     307.7936   -7205.9789   -7171.6441    250.02622    24058.214    1.9833948 
    4540    305.71333     -7205.68   -7171.5772    299.42506    24068.497    1.9852997 
    4550    313.76363   -7206.5208     -7171.52    158.27897    24079.917     1.986342 
    4560    310.27028   -7206.0957   -7171.4846    187.67525    24091.969    1.9881124 
    4570    298.10986   -7204.7234   -7171.4688    328.72751    24104.754      1.99138 
    4580    300.07002   -7204.9261   -7171.4529    215.86349    24118.772    1.9956854 
    4590    304.43075   -7205.3885   -7171.4288      40.7286    24133.572    2.0011557 
    4600    303.85854   -7205.3007   -7171.4048   -139.03643    24148.279     2.007042 
    4610    301.00984   -7204.9623   -7171.3842   -292.19034    24162.045    2.0113999 
    4620    298.45864   -7204.6573   -7171.3638   -393.25307    24174.172    2.0131853 
    4630    303.25381   -7205.1721   -7171.3437   -446.34654    24184.197     2.013532 
    4640    307.35222   -7205.6159   -7171.3303    -503.9963    24191.869    2.0144973 
    4650    304.45882   -7205.2951   -7171.3323   -479.51983    24197.011    2.0165126 
    4660    299.28947   -7204.7314   -7171.3452   -389.58621    24199.771    2.0186222 
    4670    303.42507   -7205.2119   -7171.3644   -382.87459    24200.545    2.0202717 
    4680    305.96978   -7205.5268   -7171.3954   -397.16071    24199.446    2.0226823 
    4690    302.85484   -7205.2272   -7171.4433   -428.22898     24196.44    2.0267505 
    4700    302.97606   -7205.3023   -7171.5049   -425.36377    24191.416    2.0312478 
    4710    307.45069    -7205.879   -7171.5824    -397.4771     24184.43    2.0342671 
    4720    308.33074   -7206.0821   -7171.6874   -470.94859    24175.591    2.0354144 
    4730    300.62386   -7205.3526   -7171.8175   -621.54046    24164.592    2.0353896 
    4740    300.82749   -7205.5241   -7171.9663   -909.76235    24150.693    2.0343565 
    4750    302.66617   -7205.8972   -7172.1343     -992.397    24132.686    2.0323052 
    4760    298.88627   -7205.6599   -7172.3186   -722.47446      24110.3    2.0292599 
    4770    292.42054   -7205.1176   -7172.4977   -136.51985    24084.916    2.0251798 
    4780    294.26451    -7205.479   -7172.6534    501.16577    24059.304    2.0201162 
    4790    302.53363   -7206.5437   -7172.7956    853.33573    24036.412    2.0147384 
    4800    304.25452    -7206.887    -7172.947    821.20217     24017.85    2.0096032 
    4810      303.299   -7206.9481   -7173.1147    491.41255    24003.417    2.0037317 
    4820    304.76856   -7207.2938   -7173.2964    78.521317    23991.537    1.9965643 
    4830    304.05322   -7207.4064   -7173.4888    11.777472     23980.38    1.9896868 
    4840    299.67767   -7207.1133   -7173.6838    270.02255    23969.589    1.9846236 
    4850    294.47484   -7206.7199   -7173.8708    493.92854    23960.232    1.9814238 
    4860    287.83367   -7206.1449   -7174.0367    480.08375    23953.279     1.979644 
    4870    284.26419   -7205.8805   -7174.1704    311.51517    23948.656    1.9782176 
    4880    284.23382   -7205.9732   -7174.2664    3.1557852    23945.508    1.9758025 
    4890    288.49971    -7206.511   -7174.3285   -350.21215    23942.377    1.9721447 
    4900    296.38884   -7207.4317   -7174.3691   -400.48851    23937.727    1.9682785 
    4910    296.12751   -7207.4323   -7174.3988   -29.704342    23931.403    1.9649643 
    4920    291.50721   -7206.9353   -7174.4173    409.94469    23925.054    1.9616149 
    4930    292.96994   -7207.1003   -7174.4191    622.79088    23920.644    1.9577569 
    4940    299.72419   -7207.8437    -7174.409    610.19655    23919.153    1.9542792 
    4950    301.05758   -7207.9804    -7174.397    635.16999    23920.616     1.952041 
    4960    296.94945   -7207.5104   -7174.3853    699.48602    23925.089    1.9500806 
    4970    296.33995   -7207.4256   -7174.3684    735.89636    23932.827    1.9465255 
    4980    294.35357   -7207.1752   -7174.3396    698.99233    23943.975    1.9405212 
    4990     293.6145   -7207.0493   -7174.2961    665.31395    23958.359    1.9323316 
    5000    295.92493   -7207.2486   -7174.2377    726.30963    23975.849    1.9230478 
Loop time of 1873.71 on 16 procs for 3000 steps with 864 atoms

Performance: 0.138 ns/day, 173.492 hours/ns, 1.601 timesteps/s
97.5% CPU use with 16 MPI tasks x 1 OpenMP threads

MPI task timing breakdown:
Section |  min time  |  avg time  |  max time  |%varavg| %total
---------------------------------------------------------------
Pair    | 1053.9     | 1583.4     | 1852.7     | 479.4 | 84.51
Bond    | 0.00023699 | 0.00086671 | 0.0026293  |   0.0 |  0.00
Neigh   | 0.02921    | 0.039072   | 0.052472   |   3.1 |  0.00
Comm    | 2.8215     | 203.68     | 661.74     |1160.4 | 10.87
Output  | 0.19065    | 0.19477    | 0.25561    |   3.6 |  0.01
Modify  | 0.13726    | 86.391     | 180.63     | 802.7 |  4.61
Other   |            | 0.0159     |            |       |  0.00

Nlocal:        54.0000 ave          67 max          44 min
Histogram: 2 3 0 3 2 1 2 2 0 1
Nghost:        455.250 ave         532 max         380 min
Histogram: 1 2 1 3 1 2 2 2 1 1
Neighs:         0.00000 ave           0 max           0 min
Histogram: 16 0 0 0 0 0 0 0 0 0
FullNghs:      1969.50 ave        2831 max        1274 min
Histogram: 1 3 0 3 3 2 0 2 1 1

Total # of neighbors = 31512
Ave neighs/atom = 36.472222
Ave special neighs/atom = 0.0000000
Neighbor list builds = 300
Dangerous builds = 300
unfix   2

fix     3 all npt temp 300.0 300.0 $(100.0*dt) aniso 1.01325 1.01325 $(1000.0*dt)
fix     3 all npt temp 300.0 300.0 0.10000000000000000555 aniso 1.01325 1.01325 $(1000.0*dt)
fix     3 all npt temp 300.0 300.0 0.10000000000000000555 aniso 1.01325 1.01325 1
run     20000
Per MPI rank memory allocation (min/avg/max) = 8.895 | 8.901 | 8.907 Mbytes
Step Temp PotEng TotEng Press Volume c_msd[4] 
    5000    295.92493   -7207.2486   -7174.2377    726.30963    23975.849    1.9230478 
    5010    298.00022   -7207.4784    -7174.236    738.49229    23977.662    1.9155585 
    5020    296.77314   -7207.3391   -7174.2336    608.08456    23982.976    1.9097697 
    5030    288.01127   -7206.3496   -7174.2215    441.51984    23991.219    1.9065355 
    5040    290.49953   -7206.5939   -7174.1882    86.516475    24001.508    1.9051741 
    5050    294.24933   -7206.9525   -7174.1286   -183.33758    24012.281    1.9054028 
    5060    292.80138   -7206.7111   -7174.0487   -243.74666    24022.294    1.9068045 
    5070    299.24575   -7207.3315   -7173.9502   -316.18179    24031.123    1.9087282 
    5080    302.56349   -7207.5902   -7173.8387    -291.4936    24038.472    1.9117671 
    5090    299.22583   -7207.1009   -7173.7218   -164.94115    24044.488    1.9161466 
    5100    300.17094   -7207.0772   -7173.5927    -230.1525     24049.65    1.9210264 
    5110    299.77169   -7206.8848   -7173.4448   -296.41896    24053.723     1.925904 
    5120    294.90567   -7206.1765   -7173.2794   -275.88428    24056.398    1.9306626 
    5130    294.69886    -7205.966   -7173.0919    -251.7073    24057.739    1.9346981 
    5140    300.44058   -7206.3929   -7172.8783   -213.21641    24057.887    1.9369278 
    5150    308.57487   -7207.0697   -7172.6477   -247.16703    24056.989    1.9366006 
    5160    313.20777   -7207.3565   -7172.4177   -352.80777    24054.858    1.9343371 
    5170    311.25506   -7206.9258   -7172.2049   -379.05032    24051.033    1.9314043 
    5180    306.16599   -7206.1647   -7172.0114   -215.16076    24045.435    1.9288441 
    5190    305.98536   -7205.9631     -7171.83    8.4549836    24038.804    1.9274381 
    5200    308.85681   -7206.1106   -7171.6571    142.49382    24032.159    1.9267763 
    5210    308.57891   -7205.9211   -7171.4987    176.50809    24026.145    1.9243203 
    5220       308.14     -7205.73   -7171.3566    87.128769    24020.923    1.9180066 
    5230    306.77561   -7205.4487   -7171.2274     67.96976    24016.156    1.9086537 
    5240    306.30725    -7205.275    -7171.106    81.811272    24011.712     1.898148 
    5250    309.20556   -7205.4836   -7170.9912    82.716763     24007.64    1.8879334 
    5260    311.08283    -7205.592   -7170.8902    163.04576     24003.99    1.8790001 
    5270    309.15833   -7205.2947   -7170.8076     251.0263    24001.134     1.871686 
    5280    305.39557   -7204.8044   -7170.7371     61.12625    23999.346    1.8656955 
    5290    302.93465   -7204.4616   -7170.6688   -214.39493    23997.819    1.8605316 
    5300    302.85673   -7204.3802   -7170.5961   -411.24579      23995.3    1.8553875 
    5310     309.7485   -7205.0767   -7170.5238   -487.62007    23990.825    1.8502848 
    5320    308.34217   -7204.8542   -7170.4582   -283.74448    23984.131      1.84681 
    5330    308.03829   -7204.7651    -7170.403   -168.58392    23976.021    1.8447828 
    5340    315.45538   -7205.5489   -7170.3594   -171.56059    23967.038    1.8427906 
    5350    321.28478   -7206.1847   -7170.3449   -117.70368     23957.23    1.8402911 
    5360    320.64262   -7206.1511   -7170.3829    52.677295    23946.886    1.8372573 
    5370    311.59873   -7205.2399   -7170.4806    276.47049    23936.793    1.8338221 
    5380    307.93299   -7204.9791   -7170.6287    422.02899    23927.963    1.8304478 
    5390    317.29155   -7206.2268   -7170.8324    506.49997    23921.127    1.8281158 
    5400    323.13275   -7207.1598   -7171.1138    614.18693    23916.728     1.827624 
    5410    315.04589   -7206.6114   -7171.4675    694.53134    23915.258      1.82868 
    5420    306.65662   -7206.0597   -7171.8516    533.61718    23916.989    1.8299297 
    5430    299.79723   -7205.6663   -7172.2235    383.69409    23921.308    1.8304681 
    5440    295.44251   -7205.5082   -7172.5511    224.24641    23927.494     1.829699 
    5450    302.55769   -7206.5871   -7172.8363   -141.17381    23934.701    1.8271559 
    5460    303.90641    -7206.995   -7173.0937   -404.32042     23941.32    1.8232997 
    5470     298.0703   -7206.5732    -7173.323    -410.8272    23946.139    1.8187629 
    5480    297.53151   -7206.7111    -7173.521   -409.70818    23949.014    1.8139865 
    5490    295.40392   -7206.6426   -7173.6898   -446.09636    23949.932    1.8094081 
    5500    290.78946   -7206.2644   -7173.8264   -476.55477    23948.731    1.8056107 
    5510    295.17098   -7206.8658   -7173.9391    -503.8802    23945.216    1.8037458 
    5520    291.01103   -7206.4943   -7174.0316   -277.46318    23939.367    1.8046802 
    5530    286.29355   -7206.0373   -7174.1008     192.6614    23932.254     1.806774 
    5540    286.86607   -7206.1419   -7174.1415    617.06383    23925.995     1.807993 
    5550    286.52759    -7206.116   -7174.1534    774.66301    23922.536    1.8067831 
    5560     290.0878   -7206.4996   -7174.1399    767.49657    23922.715    1.8020233 
    5570    292.81674   -7206.7694   -7174.1053    677.73733    23926.561    1.7949274 
    5580    289.32773   -7206.3277   -7174.0528    548.68982    23933.715    1.7884809 
    5590    290.20043   -7206.3535   -7173.9812    228.48018    23943.477    1.7856492 
    5600    296.29184   -7206.9406   -7173.8888   -73.367362    23954.447    1.7882454 
    5610     300.4215   -7207.2966   -7173.7841    -254.3903    23965.223    1.7953094 
    5620    300.69254   -7207.2198   -7173.6771   -285.55929    23974.949     1.803976 
    5630    300.06806   -7207.0418   -7173.5687   -184.43917    23983.442    1.8116007 
    5640    301.77867   -7207.1254   -7173.4616   -22.349017    23991.144    1.8173146 
    5650    298.22304   -7206.6249   -7173.3577    28.791205    23998.761    1.8226705 
    5660    297.23938   -7206.4118   -7173.2543   -126.42064    24006.509    1.8295431 
    5670    304.18124   -7207.0769    -7173.145   -370.82305    24013.686     1.838889 
    5680    306.67252   -7207.2457    -7173.036   -491.44679    24019.169    1.8507969 
    5690     299.6801   -7206.3597     -7172.93   -396.33492    24022.403    1.8642521 
    5700    298.23261   -7206.0849   -7172.8166   -231.78013    24023.771    1.8776878 
    5710    300.53532   -7206.2132    -7172.688   -77.785235    24024.035    1.8905504 
    5720    303.67176   -7206.4298   -7172.5548    63.700555    24023.903    1.9031709 
    5730    303.02793   -7206.2287   -7172.4255    393.81673    24024.192    1.9160366 
    5740    307.90438   -7206.6543   -7172.3071    509.17085    24026.281    1.9288621 
    5750    307.56374    -7206.513   -7172.2038     545.8165    24030.828    1.9416373 
    5760    300.43966   -7205.6282   -7172.1137    447.11875    24037.984    1.9544167 
    5770    297.40042   -7205.1968   -7172.0213    68.499127    24047.175    1.9675447 
    5780    293.65075   -7204.6704   -7171.9132   -232.54129    24056.759    1.9818675 
    5790    295.43044    -7204.745   -7171.7893   -317.36067    24065.324    1.9976695 
    5800    299.92635   -7205.1099   -7171.6527   -244.22468    24072.424      2.01468 
    5810    303.93815   -7205.4154   -7171.5106   -156.63729    24078.339    2.0322077 
    5820    310.11385   -7205.9654   -7171.3717   -63.810837    24083.514    2.0496712 
    5830    314.55815   -7206.3374   -7171.2479   -157.98366    24088.302    2.0670138 
    5840    314.52214    -7206.236   -7171.1505    -526.7407    24092.194     2.083976 
    5850    311.39432   -7205.8176   -7171.0811   -948.63332    24093.507    2.1001172 
    5860    308.28872   -7205.4248   -7171.0347   -1151.4316    24090.316    2.1152675 
    5870     305.0203   -7205.0321   -7171.0066   -1096.3349    24081.656    2.1295072 
    5880    302.12618   -7204.6909   -7170.9883   -784.89931    24067.843    2.1428262 
    5890    305.75656   -7205.0797   -7170.9721   -433.82981    24050.328    2.1540229 
    5900    307.43094   -7205.2566   -7170.9622   -181.63388    24030.772    2.1619926 
    5910    308.12928   -7205.3378   -7170.9655    75.473269    24010.475    2.1655307 
    5920    316.38363   -7206.2903   -7170.9972    250.44036    23990.645    2.1637897 
    5930    318.97275   -7206.6636   -7171.0817    340.23326    23972.147    2.1588197 
    5940    312.80625   -7206.1262   -7171.2322    233.07958    23955.333    2.1533657 
    5950    312.53034   -7206.3134   -7171.4502     50.37568    23939.726    2.1480317 
    5960     315.3656   -7206.9197   -7171.7402    49.711795    23924.576    2.1417788 
    5970    311.75874   -7206.8697   -7172.0925     227.5965    23909.887    2.1338619 
    5980    306.94569   -7206.7207   -7172.4805    459.94885    23896.438     2.124299 
    5990    305.51051   -7206.9523   -7172.8722    702.80022    23885.336    2.1128744 
    6000    305.73205   -7207.3482   -7173.2434    801.28712     23877.63    2.0998008 
    6010    300.78727   -7207.1258   -7173.5725    840.22474    23873.819    2.0860232 
    6020    298.32624   -7207.1279   -7173.8492    629.58875     23873.95    2.0721317 
    6030    300.94719   -7207.6449   -7174.0738    232.66563    23876.983    2.0588616 
    6040    303.72011   -7208.1376   -7174.2572   -172.13314    23881.057     2.047159 
    6050    299.00905   -7207.7615   -7174.4066   -438.94753    23884.321    2.0382127 
    6060    294.60982   -7207.3908   -7174.5266   -516.73682    23885.552    2.0329268 
    6070     294.8655   -7207.5135   -7174.6208   -533.09377    23884.356    2.0308514 
    6080    301.06826    -7208.287   -7174.7023   -731.05196    23880.572    2.0304049 
    6090    299.56052   -7208.2008   -7174.7844   -806.97833    23873.453    2.0311492 
    6100    292.33348   -7207.4739   -7174.8637   -751.43251    23862.685     2.032793 
    6110      294.314   -7207.7636   -7174.9324   -623.26453    23848.607    2.0345844 
    6120    298.12586   -7208.2467   -7174.9903   -448.59328    23831.852    2.0365644 
    6130    296.23538   -7208.0835    -7175.038   -113.51261    23813.373    2.0391862 
    6140    295.87732   -7208.0805    -7175.075    146.13798    23794.661    2.0424592 
    6150    298.85302   -7208.4393   -7175.1018    330.19513    23776.975    2.0456073 
    6160    299.75391   -7208.5625   -7175.1245    525.45876    23761.189    2.0471008 
    6170    292.12728   -7207.7269   -7175.1397    730.07964    23748.184    2.0455182 
    6180    292.68042   -7207.7909    -7175.142    808.64274    23738.823    2.0403823 
    6190    302.36546    -7208.864   -7175.1346    743.53578    23733.367    2.0334391 
    6200    300.41388   -7208.6372   -7175.1256    661.38447    23731.482    2.0274181 
    6210    289.32394   -7207.3844   -7175.1099    522.98716    23732.694    2.0238032 
    6220    287.53364   -7207.1468    -7175.072    294.13975    23736.283    2.0224592 
    6230     294.4704   -7207.8553   -7175.0067    22.744377    23741.162    2.0227255 
    6240    297.42749   -7208.1017   -7174.9232   -167.92566    23746.067    2.0240017 
    6250    296.22748   -7207.8751   -7174.8305   -160.00392    23750.173    2.0252777 
    6260    289.38382   -7207.0045   -7174.7233   -46.096703    23753.484    2.0258189 
    6270    290.03853   -7206.9457   -7174.5915    48.663911    23756.501    2.0257998 
    6280    302.41599   -7208.1662   -7174.4313   -49.436717    23759.601    2.0272559 
    6290    302.89213    -7208.047   -7174.2589   -160.00193    23762.411    2.0325531 
    6300    293.70103   -7206.8472   -7174.0844   -129.43973    23764.488    2.0400932 
    6310    298.50763   -7207.1981   -7173.8991    -206.8463    23765.857    2.0460515 
    6320    301.00862   -7207.2795   -7173.7015   -148.71641      23766.3    2.0490997 
    6330    299.88121   -7206.9573   -7173.5051   -73.795282     23766.04    2.0488099 
    6340    306.39467   -7207.4899   -7173.3111   -113.86803    23765.391    2.0459746 
    6350    311.12676    -7207.835   -7173.1284    -133.7796    23764.211    2.0444947 
    6360    306.14109   -7207.1193   -7172.9688    33.029615    23762.502    2.0485162 
    6370     306.2753   -7206.9945    -7172.829    151.98475    23760.946    2.0588582 
    6380    306.99743   -7206.9515   -7172.7055    233.74243    23760.129    2.0741515 
    6390     296.8913   -7205.7163   -7172.5976    245.91501    23760.403    2.0913922 
    6400    294.09586   -7205.2997   -7172.4928    168.83747    23761.808     2.106126 
    6410     298.6658   -7205.6966     -7172.38   -6.1739788    23763.937     2.115664 
    6420    296.34031   -7205.3207   -7172.2635    -166.7875    23766.016    2.1202061 
    6430    294.60722   -7205.0089    -7172.145   -294.29099    23767.285    2.1218644 
    6440    298.36745   -7205.3037   -7172.0203   -222.98899    23767.236    2.1232495 
    6450    306.57056   -7206.0929   -7171.8945    -59.86127    23766.197    2.1254822 
    6460    315.16576   -7206.9428   -7171.7856    42.264001    23764.885    2.1282189 
    6470    312.66178    -7206.587   -7171.7092     150.1057    23763.836    2.1310605 
    6480    313.29376   -7206.6182   -7171.6698   -64.894664    23763.376    2.1341828 
    6490    313.47498   -7206.6326    -7171.664   -396.10272     23762.59    2.1393935 
    6500    311.87432   -7206.4801   -7171.6901   -580.38309    23760.036    2.1477638 
    6510    312.59613   -7206.6175   -7171.7469   -563.26921    23754.908    2.1595261 
    6520    309.34975   -7206.3387   -7171.8302   -444.53915    23747.265    2.1743632 
    6530    307.16169   -7206.1972   -7171.9329   -272.71199      23737.7    2.1910913 
    6540    307.71728   -7206.3786   -7172.0522   -222.00727    23726.942    2.2094159 
    6550      303.208   -7206.0088   -7172.1855   -98.289168     23715.37    2.2298172 
    6560    297.87982   -7205.5516   -7172.3227   -104.64163    23703.463    2.2516194 
    6570    294.08008   -7205.2584   -7172.4533   -282.78217    23691.189    2.2734675 
    6580    291.63274   -7205.1081    -7172.576    -513.0731    23677.757    2.2943466 
    6590    291.59778   -7205.2161    -7172.688   -526.06643    23662.247    2.3135644 
    6600    297.02639   -7205.9265   -7172.7928   -376.14611    23644.626    2.3300285 
    6610    295.30269   -7205.8345   -7172.8931    -260.9662    23625.549    2.3437639 
    6620    293.09564   -7205.6837   -7172.9884   -306.84701    23605.529    2.3558754 
    6630    292.84411   -7205.7476   -7173.0804   -509.48144    23584.351    2.3684286 
    6640    292.77159   -7205.8326   -7173.1734   -637.63792    23561.222    2.3834596 
    6650    298.20412   -7206.5428   -7173.2777   -598.14413      23535.6    2.4012024 
    6660    300.40781   -7206.9129   -7173.4019   -180.58385    23507.816    2.4202104 
    6670     301.8563   -7207.2347   -7173.5622     514.8956    23479.794    2.4375387 
    6680    301.37202   -7207.3951   -7173.7766    1167.6491    23454.589    2.4501983 
    6690    306.77393    -7208.299   -7174.0779    1259.8426    23434.896    2.4572838 
    6700     309.6345   -7209.0266   -7174.4864      1052.33    23421.172     2.461796 
    6710    304.57904   -7208.9452   -7174.9689    941.81266    23412.504    2.4679183 
    6720    295.80111    -7208.449   -7175.4519    912.72764    23408.285    2.4782896 
    6730    282.16231   -7207.3312   -7175.8556     912.1063     23408.33     2.493001 
    6740    282.75355   -7207.6964   -7176.1548      700.136    23412.439    2.5090245 
    6750    289.81432   -7208.7046   -7176.3754     484.9932    23419.679    2.5243497 
    6760    287.97773   -7208.6627   -7176.5384      319.479    23429.028    2.5391779 
    6770    287.10937   -7208.6833   -7176.6559    105.77989    23439.668    2.5536234 
    6780    284.19897   -7208.4356   -7176.7328    90.900315    23450.746    2.5673447 
    6790    277.48537   -7207.7194   -7176.7655    168.31657    23462.124    2.5787567 
    6800    282.96951   -7208.3159   -7176.7503    133.88519     23474.05    2.5860128 
    6810     293.2029   -7209.4036   -7176.6963    106.38176    23486.423    2.5900873 
    6820     288.6622   -7208.8216   -7176.6209    63.329288    23499.111    2.5935489 
    6830    282.16781   -7208.0014   -7176.5252    -201.0638    23511.813    2.5978462 
    6840    282.91881   -7207.9556   -7176.3956   -569.67138    23523.365    2.6037164 
    6850    285.79393    -7208.111   -7176.2302   -710.99558    23532.233    2.6110586 
    6860    289.29222   -7208.3077   -7176.0367   -687.28256     23537.75    2.6180859 
    6870    293.30995   -7208.5438   -7175.8247   -499.78471    23540.095    2.6238962 
    6880    294.52999   -7208.4585   -7175.6033   -284.87692    23540.131    2.6297701 
    6890    294.79034   -7208.2649   -7175.3806   -140.47531    23538.824    2.6371355 
    6900    293.01879   -7207.8465   -7175.1598   -50.003249    23536.851    2.6461332 
    6910    290.45315   -7207.3412   -7174.9408   -16.260015    23534.647     2.655536 
    6920    292.21336   -7207.3173   -7174.7204   -53.334692    23532.357     2.663429 
    6930    297.80921    -7207.724   -7174.5029   -65.226845    23529.844    2.6682424 
    6940    298.37671   -7207.5821   -7174.2977    133.87816    23527.154    2.6697725 
    6950    297.23548   -7207.2669   -7174.1099    377.17224    23525.139    2.6680966 
    6960    295.75272   -7206.9255   -7173.9338    435.33359    23524.807    2.6625287 
    6970    297.58463   -7206.9622   -7173.7662    294.38538    23526.402     2.652975 
    6980    303.29547   -7207.4404   -7173.6074    58.421647    23529.311    2.6415044 
    6990    304.16872   -7207.3958   -7173.4653   -133.78408    23532.482    2.6312324 
    7000    300.03509   -7206.8124   -7173.3431   -199.26791    23535.063    2.6231818 
    7010    298.31135   -7206.5073   -7173.2302   -149.40538    23536.741    2.6170756 
    7020      300.052   -7206.5896   -7173.1184    21.753523    23537.767    2.6133273 
    7030    299.17728   -7206.3839   -7173.0102    235.57442    23538.905    2.6126837 
    7040    293.67797   -7205.6679   -7172.9076    273.17367    23541.034    2.6145759 
    7050    291.97448   -7205.3715   -7172.8013    87.761951    23544.316    2.6177929 
    7060    295.57771   -7205.6536   -7172.6815   -102.29255    23547.971    2.6222603 
    7070    299.00289   -7205.9036   -7172.5493    64.787254     23551.29     2.627906 
    7080    303.75586   -7206.2986   -7172.4142    554.92619    23555.016    2.6335514 
    7090    309.00442   -7206.7585   -7172.2886    928.60442    23561.225    2.6373594 
    7100    313.50555   -7207.1591   -7172.1871    973.22856    23571.564    2.6372895 
    7110    309.54989   -7206.6489   -7172.1181    895.59382    23586.307    2.6332573 
    7120     304.1329   -7206.0011   -7172.0746    670.86903    23605.024    2.6261725 
    7130    312.76035   -7206.9378   -7172.0489     346.1874    23626.701    2.6172136 
    7140    319.37834   -7207.6778   -7172.0507    95.844627    23649.883    2.6089781 
    7150    309.56371   -7206.6233    -7172.091    39.541381    23673.415    2.6034156 
    7160    301.76787    -7205.816   -7172.1533    88.780418    23697.025    2.5999768 
    7170    310.62798   -7206.8785   -7172.2275   -152.77116    23720.739    2.5981694 
    7180    315.62751   -7207.5359   -7172.3272   -435.30724    23743.557      2.59975 
    7190    307.56539    -7206.773   -7172.4637   -661.32148    23764.184    2.6053056 
    7200    299.77514   -7206.0627   -7172.6223   -752.12881    23781.608    2.6125135 
    7210    301.56244   -7206.4311   -7172.7914   -811.90315    23795.362    2.6191442 
    7220    304.30332   -7206.9163   -7172.9708   -892.08417    23805.157    2.6252618 
    7230    306.76027   -7207.3892   -7173.1697   -951.29107     23810.65    2.6325271 
    7240     301.3927   -7207.0101   -7173.3893   -744.06503    23811.736    2.6423251 
    7250     292.4158   -7206.2261   -7173.6067   -385.69229    23809.361    2.6541907 
    7260    300.49883   -7207.3333   -7173.8122   -163.32602    23805.101    2.6668517 
    7270    311.60201   -7208.7847    -7174.025    7.8805365    23800.083    2.6801809 
    7280    305.04211   -7208.2807   -7174.2528    194.79569    23795.137    2.6944983 
    7290    289.46524   -7206.7585   -7174.4682    338.55692     23791.14    2.7087765 
    7300    287.22017   -7206.6818   -7174.6419    184.58266    23788.646    2.7213075 
    7310    303.32042   -7208.6197   -7174.7839    -215.6795    23786.932     2.732023 
    7320    308.77202   -7209.3627   -7174.9187   -472.91714     23784.27    2.7431471 
    7330    303.91831   -7208.9568   -7175.0543   -370.59077    23779.556    2.7559279 
    7340    298.28956   -7208.4539   -7175.1793   -190.28401     23773.17     2.769617 
    7350    291.33725   -7207.7777   -7175.2786    -121.5485    23765.896    2.7830611 
    7360    291.00373   -7207.8084   -7175.3465   -147.42586    23758.066    2.7950303 
    7370    292.49586   -7208.0144    -7175.386   -185.27124    23749.583     2.804702 
    7380    290.77438   -7207.8401   -7175.4038   -145.90105    23740.333    2.8110337 
    7390    288.73968   -7207.6098   -7175.4005   -87.964516     23730.47    2.8126798 
    7400     288.7035   -7207.5816   -7175.3763    139.60839    23720.342    2.8088913 
    7410    288.70474   -7207.5364   -7175.3309    367.62645     23710.95    2.7996043 
    7420    295.05689   -7208.1808   -7175.2668    531.80742    23703.315    2.7859479 
    7430    300.31383   -7208.6934    -7175.193    612.62197     23698.18    2.7703272 
    7440    300.51121   -7208.6475   -7175.1251    530.81809    23695.891    2.7547143 
    7450    297.31892   -7208.2332   -7175.0668    315.37762    23696.046    2.7400024 
    7460    292.76631    -7207.669   -7175.0105    22.962412     23697.63    2.7262208 
    7470    294.99567   -7207.8566   -7174.9494   -166.56278    23699.351    2.7119872 
    7480    301.61464   -7208.5307   -7174.8852   -139.36863     23700.36    2.6960336 
    7490    301.70418   -7208.4786    -7174.823     151.5345    23700.829     2.678008 
    7500    302.89555    -7208.556   -7174.7675    393.43392    23701.983    2.6569232 
    7510    302.72406   -7208.4866   -7174.7172    530.21621    23704.948     2.631948 
    7520    301.52678   -7208.3099   -7174.6741    591.61107    23710.357    2.6032587 
    7530    299.96653   -7208.0966   -7174.6348    535.86071    23718.437    2.5721024 
    7540    302.35935   -7208.3265   -7174.5978    446.44735    23728.967    2.5396001 
    7550    300.42476   -7208.0751   -7174.5622    315.97547    23741.507     2.507221 
    7560    299.25977   -7207.9101   -7174.5273    177.46838    23755.446    2.4766766 
    7570    299.92781   -7207.9497   -7174.4923     31.47824      23770.1    2.4479195 
    7580    294.35354   -7207.2887   -7174.4531    32.320336     23784.87    2.4192996 
    7590    292.74002   -7207.0552   -7174.3996    50.129199    23799.693     2.388812 
    7600    300.43521     -7207.84    -7174.326    54.986541    23814.657    2.3560358 
    7610    310.05907   -7208.8322   -7174.2446   -1.7004552     23829.75    2.3237893 
    7620    310.08922   -7208.7663   -7174.1754    -26.94221    23844.743    2.2958045 
    7630    305.04156   -7208.1499   -7174.1221   -110.85681    23859.472    2.2727736 
    7640     311.5839   -7208.8369   -7174.0793   -383.25737    23873.483    2.2533285 
    7650    315.83895   -7209.2854   -7174.0531   -653.38683    23885.566    2.2376081 
    7660    308.38192   -7208.4598   -7174.0593    -674.8267    23894.553    2.2259738 
    7670    300.33634   -7207.5952   -7174.0922     -608.436    23900.274    2.2175569 
    7680     303.1311   -7207.9578   -7174.1431   -598.65886    23903.025    2.2117402 
    7690    306.61057    -7208.421   -7174.2182   -558.15587    23902.918    2.2088254 
    7700    300.70987   -7207.8687    -7174.324   -332.23211    23900.263    2.2087834 
    7710    294.92433   -7207.3513    -7174.452    -146.9066    23896.032    2.2101373 
    7720    297.43307   -7207.7745   -7174.5954    -159.3817    23891.055    2.2111584 
    7730    300.24011   -7208.2539   -7174.7617   -327.54112    23885.277    2.2120651 
    7740    294.79811   -7207.8354   -7174.9502   -395.45403    23878.043    2.2144804 
    7750    295.56914   -7208.1232    -7175.152   -379.00207    23869.016    2.2194943 
    7760    296.23297   -7208.4068   -7175.3616   -384.13193    23858.242    2.2278024 
    7770    294.58969   -7208.4359    -7175.574   -433.01578    23845.723    2.2394605 
    7780    293.34909   -7208.5062   -7175.7827   -375.46667    23831.307    2.2544754 
    7790    289.07873   -7208.2199   -7175.9727    2.4294403    23815.376    2.2720448 
    7800    289.03588   -7208.3783   -7176.1359    451.33175    23799.609    2.2893148 
    7810    286.55646   -7208.2348    -7176.269    669.11921    23786.035    2.3044606 
    7820    289.30046   -7208.6498   -7176.3779    481.79555     23775.58    2.3174418 
    7830    297.04914   -7209.6089   -7176.4726     108.1347    23767.416    2.3295875 
    7840    297.62916   -7209.7632   -7176.5623   -125.97565    23759.907    2.3421163 
    7850    296.86242   -7209.7637   -7176.6483   -242.31587     23751.92     2.354759 
    7860     300.3726   -7210.2397   -7176.7326   -279.51551    23742.885    2.3667109 
    7870    297.77055   -7210.0347    -7176.818    9.4001041    23732.737    2.3769796 
    7880     291.2124   -7209.3793   -7176.8942    507.03247    23722.793    2.3844878 
    7890     297.2744   -7210.1197   -7176.9583    782.44957    23715.208     2.389925 
    7900    305.79912   -7211.1345   -7177.0222    858.10074    23711.277    2.3959801 
    7910    309.58164   -7211.6399   -7177.1056    935.39364    23711.413    2.4038583 
    7920    304.14446   -7211.1444   -7177.2166    1022.7063    23715.947    2.4122653 
    7930    293.97075   -7210.1342   -7177.3413    1057.4211    23725.239    2.4182825 
    7940    297.31402   -7210.6341   -7177.4683    888.30088    23739.377    2.4190847 
    7950     301.1927   -7211.1962   -7177.5977    418.24653    23757.522    2.4145767 
    7960    296.94817   -7210.8552   -7177.7302   -189.02016    23777.529    2.4072909 
    7970    291.19896     -7210.34   -7177.8563   -765.31036    23796.604    2.4004544 
    7980     286.4263   -7209.9164   -7177.9651   -1261.7929    23812.007    2.3963405 
    7990    283.36399   -7209.6631   -7178.0534   -1494.2539    23821.494    2.3966169 
    8000     281.2929    -7209.497   -7178.1183   -1444.7025    23823.998    2.4019565 
    8010    280.99363   -7209.5016   -7178.1563   -1250.7177    23819.709     2.411308 
    8020    276.63109   -7209.0165   -7178.1579   -1082.0762    23809.486    2.4223791 
    8030    277.30347   -7209.0455   -7178.1119   -978.35214    23794.137     2.432347 
    8040    285.40299   -7209.8458   -7178.0087   -888.18548    23774.223    2.4402744 
    8050    290.88197    -7210.296   -7177.8477    -746.2096    23750.221    2.4476474 
    8060    292.57766    -7210.269   -7177.6316   -557.90563    23722.785    2.4565364 
    8070    298.25781   -7210.6337   -7177.3626   -199.22465    23692.891    2.4683197 
    8080    300.46919   -7210.5659   -7177.0481    389.20954     23662.29     2.482454 
    8090    296.87032   -7209.8268   -7176.7105    872.79838    23633.604     2.496251 
    8100    298.76438   -7209.6971   -7176.3695    972.87855     23608.95    2.5062562 
    8110    301.94321   -7209.7235   -7176.0413    956.85144    23588.889     2.510996 
    8120    302.55334   -7209.4967   -7175.7464     1037.839    23573.401    2.5121979 
    8130    302.65707   -7209.2587   -7175.4968    1179.7455    23562.829    2.5123239 
    8140    303.76493   -7209.1807   -7175.2953    1316.5929    23557.761      2.51187 
    8150    302.01913   -7208.8288   -7175.1381    1420.1021    23558.816    2.5103845 
    8160    304.04014   -7208.9352   -7175.0191    1276.8309    23566.357    2.5076184 
    8170    305.53373    -7209.014   -7174.9312    959.25441    23579.764    2.5040206 
    8180    296.04167   -7207.8882   -7174.8643    712.42037    23597.669     2.499684 
    8190     290.6872    -7207.227   -7174.8004    556.11547    23618.936    2.4931861 
    8200     298.6975   -7208.0487   -7174.7285    448.98353    23642.811    2.4836924 
    8210    304.69152   -7208.6482   -7174.6594    522.75988    23668.852    2.4727276 
    8220    301.31456   -7208.2194   -7174.6073    728.20949    23697.419     2.461601 
    8230    299.72801   -7208.0014   -7174.5663    715.76461    23729.314    2.4505097 
    8240    305.47951   -7208.6054   -7174.5287    399.36378     23764.45    2.4395232 
    8250    302.37871   -7208.2216   -7174.4908   -97.321825    23801.381     2.428845 
    8260    301.26007   -7208.0553   -7174.4493   -584.22577    23837.829    2.4179165 
    8270    312.87857   -7209.3096   -7174.4075   -1090.4862    23871.416    2.4075042 
    8280    316.04846   -7209.6431   -7174.3874   -1358.2033    23899.853    2.3996409 
    8290    309.53331   -7208.9342   -7174.4053   -1388.2695    23921.842    2.3940591 
    8300     301.9699   -7208.1336   -7174.4484   -1287.7022    23937.189    2.3897644 
    8310    299.21719   -7207.8779   -7174.4998   -1297.2462    23946.266       2.3874 
    8320    300.83383   -7208.1149   -7174.5564   -1376.3868    23949.079    2.3885197 
    8330    298.99911   -7207.9759   -7174.6221   -1445.4219    23945.268     2.393952 
    8340    294.61723   -7207.5618   -7174.6968   -1262.7758    23934.657    2.4033417 
    8350    290.26707    -7207.147   -7174.7673   -863.94534    23918.112    2.4152895 
    8360    292.79121   -7207.4822   -7174.8209   -421.86264    23897.479    2.4287421 
    8370    298.97887   -7208.2066    -7174.855   -106.40266    23874.843    2.4434893 
    8380    309.56334   -7209.4215   -7174.8893    -160.3754      23851.6    2.4593826 
    8390    313.64461   -7209.9382   -7174.9507   -327.33698    23827.636    2.4771283 
    8400    310.04714   -7209.6345   -7175.0483   -312.82119    23802.272    2.4972915 
    8410    312.10656   -7209.9965   -7175.1805   -41.479599     23775.63    2.5196011 
    8420    313.07404   -7210.2756   -7175.3517    357.50087    23748.955    2.5442373 
    8430     311.4882     -7210.32    -7175.573    727.95388    23724.075    2.5707487 
    8440    303.84913   -7209.7355   -7175.8407    1022.6601    23702.701    2.5979334 
    8450    295.58239   -7209.1035   -7176.1309     1254.504    23686.198    2.6234867 
    8460    293.84419   -7209.1982   -7176.4194    1332.3199    23675.578    2.6450704 
    8470    292.31705   -7209.2991   -7176.6907    1215.1014    23671.155    2.6637011 
[...]
   22890    287.30312   -7209.9388   -7177.8897    -199.7651    23544.439     3.459545 
   22900    296.19917   -7210.8307   -7177.7892   -401.43154     23542.79    3.4629517 
   22910    301.53216   -7211.3134    -7177.677   -367.94417    23539.398    3.4701411 
   22920    302.87674   -7211.3569   -7177.5706   -282.68944    23534.356    3.4804607 
   22930    299.02401   -7210.8314   -7177.4749   -342.49299    23527.974    3.4920412 
   22940    295.52322   -7210.3481   -7177.3821   -347.63191    23520.098    3.5025507 
   22950    306.63274   -7211.4924    -7177.287   -202.05653    23510.744    3.5103704 
   22960    316.23771   -7212.4799   -7177.2031    111.97928    23500.597    3.5171822 
   22970    315.69868   -7212.3658   -7177.1491    478.89419    23491.074    3.5246461 
   22980     311.9779     -7211.93   -7177.1284    791.41902    23483.834    3.5328747 
   22990    305.30286   -7211.1877   -7177.1307    999.82982    23480.279    3.5422032 
   23000    308.43073   -7211.5577   -7177.1517    948.12307    23481.258    3.5521856 
   23010    307.21459   -7211.4643   -7177.1941    804.29066    23486.574    3.5616875 
   23020    302.50342   -7211.0009   -7177.2562    609.90589    23495.517    3.5681011 
   23030     305.4262   -7211.4026   -7177.3319    359.70288    23507.171    3.5694162 
   23040    308.05222   -7211.7864   -7177.4227    175.23502     23520.41     3.566636 
   23050    307.83813   -7211.8739   -7177.5341    70.567329    23534.363    3.5621204 
   23060    306.63971   -7211.8722   -7177.6661    26.744237     23548.54    3.5578493 
   23070     308.4361   -7212.2297   -7177.8232    60.156848    23562.757     3.554151 
   23080    307.70836   -7212.3384   -7178.0131    72.685929    23577.112    3.5495479 
   23090    301.32711   -7211.8455   -7178.2321   -1.2114868    23591.636    3.5423762 
   23100    295.48359   -7211.4247   -7178.4631   -259.16869    23605.922    3.5316986 
   23110    292.67375   -7211.3396   -7178.6914   -479.00601    23618.875    3.5179613 
   23120    289.41876   -7211.1907   -7178.9056    -550.7607    23629.534    3.5031757 
   23130    289.21803   -7211.3613   -7179.0986   -549.85455    23637.549    3.4904354 
   23140    288.68678   -7211.4697   -7179.2663   -574.58044    23642.914    3.4827478 
   23150    285.10233   -7211.2056    -7179.402   -694.53533    23645.512    3.4799567 
   23160    284.53502   -7211.2411   -7179.5008   -851.49473    23644.854    3.4793493 
   23170    286.45718   -7211.5193   -7179.5646   -983.98928    23640.242    3.4787762 
   23180    285.02157   -7211.3957   -7179.6011   -885.59197    23631.183    3.4772158 
   23190     280.0129   -7210.8427   -7179.6068   -581.70883    23618.194    3.4743442 
   23200    280.41776   -7210.8527   -7179.5717   -339.98023    23602.633     3.470292 
   23210    287.87857   -7211.6091   -7179.4958   -275.12521    23585.611    3.4659658 
   23220    293.81407   -7212.1697   -7179.3943    -150.7152    23567.568    3.4621965 
   23230    296.10346   -7212.3116   -7179.2809     193.6871    23549.164     3.457848 
   23240    300.58702   -7212.6925   -7179.1616    460.95098    23531.845    3.4503353 
   23250     301.0115   -7212.6203    -7179.042    493.01741    23516.787    3.4376063 
   23260    301.81988   -7212.5965    -7178.928    344.43349    23504.119    3.4189945 
   23270    304.45272   -7212.7802    -7178.818    255.96518    23493.221    3.3964173 
   23280    300.88554   -7212.2724   -7178.7082    394.91915    23483.751    3.3736275 
   23290    292.69813   -7211.2395   -7178.5886    659.98143     23476.27    3.3539345 
   23300    291.96552   -7211.0178   -7178.4487    850.67187    23471.902    3.3383724 
   23310    300.02337   -7211.7618   -7178.2938    856.69346    23471.411    3.3257268 
   23320    304.77839   -7212.1381   -7178.1396    934.97456    23474.891    3.3142622 
   23330    304.85327    -7212.007   -7178.0002    1005.5748     23482.59    3.3019362 
   23340    301.44702   -7211.5002   -7177.8733    1001.1837     23494.74    3.2872329 
   23350    297.11923   -7210.8924   -7177.7483    980.49726    23511.298    3.2704899 
   23360    300.52811   -7211.1448   -7177.6204    920.68163    23532.066     3.253411 
   23370    300.07512   -7210.9639     -7177.49    910.80315    23556.752    3.2383778 
   23380    300.77608   -7210.9127   -7177.3606    787.50559    23585.162    3.2270746 
   23390    303.20618   -7211.0519   -7177.2288    626.02987    23616.744    3.2205201 
   23400    299.97292   -7210.5573   -7177.0949    315.63737    23650.621    3.2176356 
   23410    299.45615   -7210.3581   -7176.9533   -170.48548    23685.296    3.2156283 
   23420    303.60534   -7210.6639   -7176.7963   -701.19622    23718.518    3.2131535 
   23430    301.80085   -7210.2959   -7176.6296   -1076.4676    23747.919    3.2107117 
   23440    296.73001   -7209.5552   -7176.4546   -1337.6694    23771.793    3.2087058 
   23450    301.72326   -7209.9202   -7176.2625   -1494.5756     23788.98    3.2076096 
   23460    306.01381   -7210.1825   -7176.0462   -1399.1905    23798.929    3.2085787 
   23470     304.8073   -7209.8018      -7175.8   -1087.1572     23802.23    3.2117494 
   23480    306.97258   -7209.7419   -7175.4986   -940.90458    23800.294    3.2157248 
   23490    311.78977   -7209.8875   -7175.1069    -935.1955    23793.904    3.2196084 
   23500    318.46567   -7210.1371   -7174.6117   -971.87502    23783.214    3.2245926 
   23510    333.35524   -7211.2336   -7174.0473   -1090.3748    23768.124     3.233615 
   23520    338.62477    -7211.288   -7173.5139   -932.50808    23748.329    3.2491722 
   23530    330.83575   -7210.0137   -7173.1084   -473.26497    23724.674    3.2705716 
   23540    322.74204   -7208.8399   -7172.8375   -11.268148    23699.276      3.29391 
   23550    315.19465   -7207.8248   -7172.6644    394.32182    23674.319    3.3145804 
   23560    316.36815   -7207.8474   -7172.5561    512.46936     23651.54    3.3302452 
   23570    321.79309   -7208.3963   -7172.4998    483.29482     23631.54    3.3418293 
   23580    324.80056   -7208.7318   -7172.4998    341.24193    23614.127    3.3517234 
   23590    324.86117    -7208.796   -7172.5573    245.17153    23598.651    3.3625364 
   23600    323.87426   -7208.7918   -7172.6632    199.07466     23584.61    3.3766066 
   23610    326.01583   -7209.1805    -7172.813    178.31668    23571.753    3.3950153 
   23620    323.34274   -7209.0709   -7173.0016    280.20662    23560.011    3.4153973 
   23630    320.39161   -7208.9584   -7173.2182    384.52181    23549.774    3.4330061 
   23640    322.30694   -7209.4132   -7173.4594    458.65098    23541.489    3.4448313 
   23650     320.0623   -7209.4262   -7173.7228    563.05624    23535.467      3.45164 
   23660    315.98852   -7209.2484   -7173.9994    671.53117    23532.139    3.4555214 
   23670    310.61623   -7208.9234   -7174.2736    682.96641    23531.916    3.4585459 
   23680    308.84133   -7208.9869   -7174.5352    658.47573    23534.842    3.4629763 
   23690    309.61575   -7209.3203   -7174.7822    657.45314     23540.78    3.4704594 
   23700    308.37818   -7209.4187   -7175.0186    663.02657     23549.69    3.4808668 
   23710     303.9193   -7209.1466   -7175.2439    577.90453    23561.511     3.492967 
   23720    300.35432   -7208.9563   -7175.4513    385.32605    23575.817    3.5054773 
   23730    302.14744   -7209.3424   -7175.6374   -8.1513015    23591.646     3.517363 
   23740    306.71559   -7210.0224   -7175.8078   -489.56525    23607.196    3.5287234 
   23750    309.71328   -7210.5235   -7175.9745   -784.53061    23620.349    3.5406716 
   23760    310.42197   -7210.7749   -7176.1468    -889.8021    23629.758    3.5548173 
   23770    306.19681   -7210.4825   -7176.3258    -825.3345    23634.998    3.5717164 
   23780    298.21874   -7209.7681   -7176.5013   -795.42596    23636.297    3.5896582 
   23790    297.65221   -7209.8684   -7176.6649    -815.0841    23633.861    3.6058899 
   23800    302.60326   -7210.5793   -7176.8234   -836.05995     23627.67    3.6197409 
   23810    301.28735    -7210.591    -7176.982   -772.67434    23617.708    3.6314003 
   23820    302.47473    -7210.881   -7177.1395   -653.87518    23604.306    3.6399081 
   23830    308.17379   -7211.6802    -7177.303   -684.10763    23587.942    3.6451101 
   23840    302.88599    -7211.262   -7177.4746   -812.65777     23568.56    3.6490865 
   23850    297.66423    -7210.851   -7177.6461   -960.26487    23545.624    3.6542111 
   23860    299.55901   -7211.2253    -7177.809   -834.62204     23518.64    3.6625165 
   23870    305.86409   -7212.0861   -7177.9665   -548.04962    23488.165    3.6755112 
   23880    307.22013   -7212.3967   -7178.1258    18.314113    23455.652    3.6942576 
   23890    299.16445   -7211.6474   -7178.2751     682.7842    23423.665    3.7175341 
   23900     296.8622   -7211.5253   -7178.4099    988.75758    23395.037    3.7412309 
   23910    295.51829   -7211.4978   -7178.5323    1007.2581    23371.152    3.7606697 
   23920       295.54   -7211.6133   -7178.6454    890.52691    23352.071    3.7728656 
   23930    298.19823   -7212.0156   -7178.7511    797.39546    23337.253    3.7778368 
   23940    300.00701    -7212.318   -7178.8517    873.40357    23326.283    3.7778766 
   23950    303.41118   -7212.7998   -7178.9539    983.41904    23319.401    3.7759104 
   23960    301.92102   -7212.7437   -7179.0639     956.4471    23316.985    3.7740161 
   23970    292.64673   -7211.8206   -7179.1754    792.36715    23318.874    3.7719837 
   23980    292.77302   -7211.9332   -7179.2739    487.66155    23324.297    3.7670253 
   23990    302.92621   -7213.1546   -7179.3627    216.22891    23331.903     3.756144 
   24000    303.78592   -7213.3458   -7179.4581    197.85323    23340.524    3.7382665 
   24010    297.30925   -7212.7284   -7179.5631    366.17742    23350.055    3.7140106 
   24020    295.53696   -7212.6361   -7179.6685    508.53357    23361.175     3.685423 
   24030    295.44184   -7212.7232   -7179.7662     599.7555    23374.517    3.6549433 
   24040    290.35067   -7212.2434   -7179.8543    733.40098    23390.549    3.6234806 
   24050    283.76189   -7211.5774   -7179.9234    862.72353    23409.838    3.5896253 
   24060     289.2934   -7212.2382    -7179.967     960.4595    23432.944    3.5520563 
   24070    297.22405   -7213.1462   -7179.9904    920.00727    23460.228    3.5129512 
   24080    295.80204   -7212.9981    -7180.001     795.2042    23491.503    3.4750099 
   24090    291.94227   -7212.5624   -7179.9958    649.51862    23526.176    3.4385886 
   24100    289.78438   -7212.2894   -7179.9635    535.52359    23563.559    3.4040175 
   24110    291.69837   -7212.4373   -7179.8979    312.44959    23603.007    3.3723909 
   24120    294.06882   -7212.5966   -7179.7928   -18.370234    23643.425     3.344858 
   24130    293.49416    -7212.386   -7179.6462   -356.88949    23683.268    3.3218235 
   24140    294.31144   -7212.2871   -7179.4562   -625.30446    23720.967    3.3028419 
   24150    301.33597   -7212.8341   -7179.2196   -941.19769     23755.19    3.2877835 
   24160    308.26689   -7213.3329   -7178.9452    -1159.166    23784.543    3.2769976 
   24170    305.03489   -7212.6832   -7178.6561     -1166.68    23808.099    3.2697992 
   24180    296.36933   -7211.4235   -7178.3631    -1132.605    23825.807    3.2646736 
   24190    290.69766   -7210.4874   -7178.0596   -1100.9498    23837.895    3.2605607 
   24200    292.46009   -7210.3644     -7177.74   -1080.5302    23844.594    3.2573613 
   24210    293.30531   -7210.1343   -7177.4156   -957.50992    23846.129    3.2562861 
   24220    293.82562    -7209.883   -7177.1063   -676.26118    23843.164    3.2582604 
   24230    301.00746   -7210.4015   -7176.8236   -425.24996    23837.016    3.2627802 
   24240    314.83614   -7211.7046   -7176.5842   -355.30076     23828.87    3.2694403 
   24250    324.57672   -7212.6221   -7176.4151   -315.81409    23819.135    3.2784184 
   24260    319.04326   -7211.9145   -7176.3247   -9.2422704    23808.151      3.28775 
   24270    311.78543   -7211.0689   -7176.2888    306.25631    23797.262    3.2935777 
   24280    314.85059   -7211.4105   -7176.2885     338.3043    23787.815    3.2946531 
   24290    314.18844   -7211.3694   -7176.3212    365.50779    23780.077    3.2933782 
   24300    313.63543    -7211.371   -7176.3845    474.37083    23774.178    3.2930362 
   24310     313.4245   -7211.4347   -7176.4717     523.4554    23770.556    3.2959059 
   24320    313.18392   -7211.5166   -7176.5804    353.33398    23769.335    3.3017839 
   24330     314.5366   -7211.7973   -7176.7102    97.329291    23769.778    3.3086265 
   24340    315.59361   -7212.0705   -7176.8655   -185.71621    23770.654    3.3145703 
   24350    313.06997   -7211.9708   -7177.0474   -286.69295    23770.717    3.3191918 
   24360    307.82688   -7211.5864   -7177.2478   -213.78592    23769.507    3.3228728 
   24370    304.48636    -7211.416   -7177.4501   -159.97572    23767.292    3.3259033 
   24380    314.54358   -7212.7435   -7177.6557   -279.22201    23764.289      3.32896 
   24390    321.88298   -7213.7914   -7177.8849   -430.63516    23759.991    3.3341736 
   24400    310.22549   -7212.7433   -7178.1372   -241.57092    23753.845    3.3431574 
   24410    293.52987    -7211.113   -7178.3693    118.77798    23746.713    3.3548024 
   24420    294.58278   -7211.4189   -7178.5577    132.97069    23740.066    3.3665842 
   24430    299.09704   -7212.0786   -7178.7138   -70.328467     23734.03    3.3775862 
   24440    290.94585   -7211.2993   -7178.8438   -172.01475    23727.774    3.3882722 
   24450    288.20656   -7211.0916   -7178.9417   -229.97171    23720.778     3.397772 
   24460    294.44187    -7211.858   -7179.0126   -367.04495    23712.747    3.4045307 
   24470    294.27073   -7211.8957   -7179.0693   -551.90695    23703.068    3.4090264 
   24480    289.10778   -7211.3655   -7179.1151   -802.50365     23690.86    3.4144155 
   24490    291.42181   -7211.6507   -7179.1422   -1042.9915    23675.036    3.4245908 
   24500    301.32898   -7212.7687    -7179.155   -1211.8592    23654.516    3.4411666 
   24510     300.1771   -7212.6508   -7179.1656   -961.48865    23628.736    3.4639995 
   24520    291.00196   -7211.6294   -7179.1677   -459.54597    23598.856    3.4918208 
   24530    292.80277   -7211.8111   -7179.1485   -169.58089    23567.049    3.5212745 
   24540    296.99181   -7212.2394   -7179.1095    85.457801    23534.803    3.5492637 
   24550    291.17017   -7211.5326   -7179.0521    478.93414    23503.391     3.574421 
   24560     292.8499   -7211.6408    -7178.973    763.50436    23474.481     3.595879 
   24570    303.51396   -7212.7336   -7178.8762    854.92596    23449.322    3.6149566 
   24580    309.29264    -7213.285    -7178.783    889.62457    23428.349    3.6346826 
   24590    302.79614   -7212.4836   -7178.7063    943.66846    23411.666    3.6562167 
   24600    298.97602   -7211.9876   -7178.6364    1065.9953    23399.513      3.67722 
   24610    312.14152   -7213.3899     -7178.57    1119.6165    23392.318     3.694411 
   24620    315.63691    -7213.735   -7178.5253    1227.2314    23390.325    3.7069516 
   24630    303.24559   -7212.3428   -7178.5153    1459.9543    23394.035    3.7140272 
   24640    299.57767   -7211.9427   -7178.5243     1493.452    23404.307    3.7146788 
   24650    307.70952    -7212.869   -7178.5436     1302.842    23421.225    3.7103143 
   24660    302.42367   -7212.3148   -7178.5789    1167.6211    23444.017    3.7031191 
   24670    291.72749   -7211.1658   -7178.6232    1047.6986    23472.027    3.6925393 
   24680    296.37495    -7211.718   -7178.6569    681.64315    23504.572    3.6778636 
   24690    300.97749   -7212.2454   -7178.6709    94.824199    23539.953    3.6627357 
   24700    298.06184   -7211.9197   -7178.6705   -373.59131     23575.58     3.650279 
   24710    298.14004   -7211.9192   -7178.6612   -532.13356    23609.345    3.6398369 
   24720    296.86767   -7211.7616   -7178.6455   -551.02936    23640.439    3.6301923 
   24730    295.13902   -7211.5437   -7178.6205   -769.39695    23668.632     3.620671 
   24740    292.85806   -7211.2459   -7178.5772     -1219.91     23692.89    3.6119259 
   24750     291.5284   -7211.0305   -7178.5101    -1700.981    23711.217    3.6053374 
   24760    300.19843   -7211.9101   -7178.4225   -2025.1568    23721.477    3.6007185 
   24770    309.07997   -7212.8106   -7178.3322   -1948.0533    23722.329    3.5985917 
   24780    303.56011   -7212.1176    -7178.255   -1413.3394    23714.243      3.60019 
   24790    297.02707   -7211.3146   -7178.1808   -789.77136    23699.637    3.6054623 
   24800    301.58396   -7211.7341   -7178.0919   -333.92815    23681.411    3.6148462 
   24810    307.02116   -7212.2422   -7177.9936   -107.17912    23661.689    3.6290452 
   24820     305.3467   -7211.9616   -7177.8997    154.36499    23641.674    3.6458081 
   24830     296.8362   -7210.9193   -7177.8068    534.81711    23622.633    3.6599021 
   24840    302.78305   -7211.4834   -7177.7075    651.78504     23606.11    3.6663544 
   24850    310.51094   -7212.2452   -7177.6072    640.83322    23592.689    3.6663635 
   24860     311.0203   -7212.2188    -7177.524    626.42231    23582.351    3.6643977 
   24870    310.14822   -7212.0609   -7177.4634    430.43389    23574.919     3.663137 
   24880    305.80346   -7211.5338    -7177.421    84.665853    23569.469    3.6651772 
   24890    300.77222    -7210.943   -7177.3914   -103.87907    23564.511    3.6722163 
   24900    293.97747   -7210.1552   -7177.3616   -108.44672      23559.2    3.6821958 
   24910     297.4262   -7210.5022   -7177.3239   -308.25552    23553.333    3.6913996 
   24920    300.02399   -7210.7435   -7177.2754   -467.20697     23546.12     3.697767 
   24930    301.33298   -7210.8353   -7177.2211   -478.28177     23536.89    3.6995466 
   24940    307.67236   -7211.4863    -7177.165   -488.81265    23525.516    3.6967145 
   24950    310.25757   -7211.7268   -7177.1171   -429.00613    23512.012     3.692783 
   24960    309.79886    -7211.647   -7177.0884   -243.25712    23496.691    3.6913263 
   24970     302.3911   -7210.8059   -7177.0737     98.68597    23480.451    3.6923178 
   24980    303.50831   -7210.9215   -7177.0647    257.73404    23464.703    3.6929364 
   24990     309.7315   -7211.6173   -7177.0663    339.16474    23450.249    3.6923096 
   25000    303.80958   -7210.9759   -7177.0855    514.62611    23437.535    3.6912101 
Loop time of 12610.1 on 16 procs for 20000 steps with 864 atoms

Performance: 0.137 ns/day, 175.141 hours/ns, 1.586 timesteps/s
97.2% CPU use with 16 MPI tasks x 1 OpenMP threads

MPI task timing breakdown:
Section |  min time  |  avg time  |  max time  |%varavg| %total
---------------------------------------------------------------
Pair    | 9970       | 11151      | 12478      | 708.5 | 88.43
Bond    | 0.0016744  | 0.0065093  | 0.017963   |   6.0 |  0.00
Neigh   | 0.21844    | 0.26402    | 0.32979    |   6.4 |  0.00
Comm    | 73.001     | 1053.3     | 1871       |1897.0 |  8.35
Output  | 1.2574     | 1.2847     | 1.6895     |   9.2 |  0.01
Modify  | 5.4548     | 404        | 1021.9     |1746.5 |  3.20
Other   |            | 0.1053     |            |       |  0.00

Nlocal:        54.0000 ave          66 max          45 min
Histogram: 3 2 1 4 0 1 1 1 2 1
Nghost:        469.812 ave         540 max         427 min
Histogram: 2 2 3 2 3 0 3 0 0 1
Neighs:         0.00000 ave           0 max           0 min
Histogram: 16 0 0 0 0 0 0 0 0 0
FullNghs:      2015.00 ave        2782 max        1499 min
Histogram: 3 2 3 2 1 0 1 2 1 1

Total # of neighbors = 32240
Ave neighs/atom = 37.314815
Ave special neighs/atom = 0.0000000
Neighbor list builds = 2000
Dangerous builds = 2000
unfix   3
                
Total wall time: 4:20:14
