LAMMPS (2 Aug 2023)
OMP_NUM_THREADS environment is not set. Defaulting to 1 thread. (src/comm.cpp:98)
  using 1 OpenMP thread(s) per MPI task
read_restart    ../structure.ready
Reading restart file ...
  restart file = 2 Aug 2023, LAMMPS = 2 Aug 2023
  restoring atom style full from restart
  orthogonal box = (-1.043091 -0.71039117 -9.0393714) to (23.779066 23.446366 77.247295)
  1 by 1 by 1 MPI processor grid
  pair style chgnet/gpu stores no restart info
  1536 atoms
Finding 1-2 1-3 1-4 neighbors ...
  special bond factors lj:    0        0        0       
  special bond factors coul:  0        0        0       
     0 = max # of 1-2 neighbors
     0 = max # of 1-3 neighbors
     0 = max # of 1-4 neighbors
     1 = max # of special neighbors
  special bonds CPU = 0.002 seconds
  read_restart CPU = 0.092 seconds

pair_style      chgnet/gpu /ocean/projects/cts180021p/wuziqi/clease/lammps-ASC/potentials/CHGNET
pair_coeff      * * MPtrj-efsm Cl K Li

neighbor        0.3 bin
neigh_modify    delay 10

timestep	    0.001
compute	        msd all msd
Resetting peratom fix info from restart file:
  fix style: STORE/ATOM, fix ID: msd_COMPUTE_STORE
thermo_style	custom step temp pe etotal press vol c_msd[4]
thermo	        10
dump	        1 all custom 10 xyz-mix.dump type id x y z
dump	        2 all custom 10 force-mix.dump type id fx fy fz

fix             2 gLiquid npt temp 1500 600.0 $(100.0*dt) z 1.01325 1.01325 $(1000.0*dt) couple none
fix             2 gLiquid npt temp 1500 600.0 0.10000000000000000555 z 1.01325 1.01325 $(1000.0*dt) couple none
fix             2 gLiquid npt temp 1500 600.0 0.10000000000000000555 z 1.01325 1.01325 1 couple none
run             10000
All restart file peratom fix info was re-assigned
Neighbor list info ...
  update: every = 1 steps, delay = 10 steps, check = yes
  max neighbors/atom: 2000, page size: 100000
  master list distance cutoff = 6.3
  ghost atom cutoff = 6.3
  binsize = 3.15, bins = 8 8 28
  1 neighbor lists, perpetual/occasional/extra = 1 0 0
  (1) pair chgnet/gpu, perpetual
      attributes: full, newton on
      pair build: full/bin
      stencil: full/bin/3d
      bin: standard
Per MPI rank memory allocation (min/avg/max) = 6.547 | 6.547 | 6.547 Mbytes
   Step          Temp          PotEng         TotEng         Press          Volume        c_msd[4]   
     20000   1497.4781     -5523.0941     -5225.973       3591.2982      51739.452      56.877471    
     20010   1507.3607     -5525.0537     -5225.9718      3626.0256      51738.892      57.035414    
     20020   1515.305      -5526.6552     -5225.9969      3460.2591      51737.549      57.189232    
     20030   1520.662      -5527.8186     -5226.0975      3265.6249      51735.531      57.322891    
     20040   1507.1088     -5525.2972     -5226.2653      3290.2804      51732.687      57.418701    
     20050   1510.8814     -5526.2791     -5226.4986      3196.981       51729.165      57.496685    
     20060   1512.3868     -5526.884      -5226.8048      3078.2632      51725.092      57.57009     
     20070   1488.2539     -5522.4617     -5227.1708      3138.8481      51720.487      57.636221    
     20080   1481.963      -5521.593      -5227.5503      3066.267       51715.387      57.695496    
     20090   1487.3167     -5523.0428     -5227.9379      3067.2315      51709.796      57.751101    
     20100   1492.1979     -5524.4224     -5228.3489      3212.4591      51703.969      57.797696    
     20110   1484.7301     -5523.4083     -5228.8166      3458.8892      51697.973      57.85663     
     20120   1463.3997     -5519.6382     -5229.2787      3670.5424      51691.82       57.963173    
     20130   1467.0107     -5520.8145     -5229.7385      3443.9691      51685.433      58.091682    
     20140   1468.8222     -5521.6355     -5230.2001      3241.6156      51678.49       58.225733    
     20150   1476.4133     -5523.6262     -5230.6847      3053.5187      51670.736      58.376314    
     20160   1471.943      -5523.2344     -5231.1798      2967.7529      51661.948      58.541312    
     20170   1485.6103     -5526.5339     -5231.7676      2820.6088      51651.686      58.701139    
     20180   1472.2545     -5524.5502     -5232.4338      3157.335       51639.848      58.834354    
     20190   1472.1833     -5525.3075     -5233.2053      3466.2154      51626.779      58.931964    
     20200   1496.9911     -5531.0826     -5234.0582      3362.243       51612.914      58.998486    
     20210   1490.4023     -5530.8051     -5235.0879      3453.0099      51598.392      59.064587    
     20220   1492.598      -5532.4446     -5236.2918      3319.694       51583.248      59.144502    
     20230   1496.6926     -5534.6455     -5237.6803      3078.635       51567.191      59.228421    
     20240   1491.7324     -5535.2201     -5239.239       2933.1628      51549.813      59.302475    
     20250   1476.3153     -5533.8069     -5240.8848      3090.706       51531.214      59.356494    
     20260   1444.7107     -5529.1088     -5242.4575      3632.9875      51511.972      59.376948    
     20270   1452.3591     -5532.0513     -5243.8824      3849.3832      51492.896      59.371707    
     20280   1447.3062     -5532.2996     -5245.1333      4228.5971      51474.449      59.364449    
     20290   1451.9205     -5534.3126     -5246.2308      4455.0542      51456.892      59.352853    
     20300   1430.7703     -5531.0193     -5247.134       4602.6848      51440.262      59.326618    
     20310   1431.8619     -5531.9623     -5247.8604      4207.7113      51424.15       59.297443    
     20320   1426.4531     -5531.421      -5248.3923      3831.4975      51407.87       59.279409    
     20330   1446.4782     -5535.7815     -5248.7795      3642.6355      51391.115      59.265413    
     20340   1462.1874     -5539.1514     -5249.0324      3660.1575      51374.165      59.244297    
     20350   1474.8726     -5541.9111     -5249.2753      3548.5724      51357.526      59.225435    
     20360   1468.0983     -5540.7938     -5249.5021      3506.8773      51341.624      59.225812    
     20370   1473.6496     -5542.1243     -5249.7311      3302.3402      51326.713      59.233925    
     20380   1486.2955     -5544.8972     -5249.9949      3083.8735      51312.813      59.243643    
     20390   1475.4359     -5543.0471     -5250.2995      3060.6506      51299.983      59.245114    
     20400   1472.8496     -5542.9054     -5250.6709      3159.4905      51288.146      59.234524    
     20410   1444.7335     -5537.6942     -5251.0384      3778.2017      51276.942      59.224023    
     20420   1457.3298     -5540.5367     -5251.3816      3925.3634      51266.38       59.228293    
     20430   1477.2488     -5544.8196     -5251.7123      3568.3527      51256.668      59.251181    
     20440   1490.3899     -5547.8474     -5252.1327      3077.8155      51247.825      59.2966      
     20450   1477.0673     -5545.738      -5252.6667      2754.4347      51239.267      59.394119    
     20460   1457.0534     -5542.3711     -5253.2708      2620.4595      51230.336      59.524687    
     20470   1461.8999     -5544.0066     -5253.9447      2350.9286      51220.659      59.647043    
     20480   1439.0778     -5540.1929     -5254.6592      2495.4479      51209.937      59.747521    
     20490   1411.5246     -5535.4127     -5255.346       2801.6216      51198.036      59.820952    
     20500   1416.2152     -5536.9446     -5255.9472      2903.3345      51185.153      59.866632    
     20510   1432.3419     -5540.677      -5256.4799      3169.3263      51171.359      59.90501     
     20520   1413.4144     -5537.406      -5256.9643      3870.6257      51156.802      59.962154    
     20530   1410.9076     -5537.3053     -5257.361       3969.0442      51141.958      60.034508    
     20540   1455.5887     -5546.5367     -5257.7271      3311.0884      51126.899      60.08868     
     20550   1443.919      -5544.635      -5258.1408      3334.2095      51111.502      60.123187    
     20560   1420.9951     -5540.5291     -5258.5833      3579.5356      51096.368      60.127927    
     20570   1433.491      -5543.4565     -5259.0314      3582.0783      51081.881      60.109444    
     20580   1420.0612     -5541.2531     -5259.4926      3700.4454      51068.135      60.099569    
     20590   1414.9673     -5540.7162     -5259.9664      3877.9658      51055.2        60.111986    
     20600   1406.778      -5539.5326     -5260.4077      3972.658       51042.853      60.131884    
     20610   1424.4112     -5543.4562     -5260.8326      3814.821       51030.871      60.147657    
     20620   1423.0021     -5543.6016     -5261.2576      3762.6153      51018.843      60.180636    
     20630   1393.6838     -5538.1494     -5261.6226      4099.6573      51006.91       60.233277    
     20640   1399.5068     -5539.5842     -5261.902       4253.527       50995.673      60.296764    
     20650   1400.4828     -5539.9332     -5262.0574      4477.8457      50985.395      60.36102     
     20660   1412.0288     -5542.2561     -5262.0894      4490.9283      50975.918      60.430844    
     20670   1400.3704     -5539.8384     -5261.9848      4499.9318      50966.962      60.488336    
     20680   1411.8016     -5541.9005     -5261.7789      4204.142       50958.537      60.526251    
     20690   1414.0786     -5541.991      -5261.4175      3956.8791      50950.661      60.558678    
     20700   1425.0807     -5543.7048     -5260.9484      3562.8746      50943.25       60.603091    
     20710   1434.3824     -5545.0023     -5260.4003      3268.3791      50936.191      60.648308    
     20720   1425.1666     -5542.5623     -5259.7888      3585.1802      50929.363      60.681783    
     20730   1422.1212     -5541.2823     -5259.1131      4024.7883      50922.998      60.710383    
     20740   1422.5028     -5540.6023     -5258.3574      4290.8116      50917.369      60.747       
     20750   1451.3938     -5545.5249     -5257.5476      4247.4619      50912.209      60.811547    
     20760   1440.9964     -5542.6465     -5256.7322      4642.3219      50907.142      60.900676    
     20770   1430.4742     -5539.7428     -5255.9162      4790.414       50902.336      60.989464    
     20780   1460.8338     -5544.9445     -5255.0941      4408.8038      50897.84       61.071289    
     20790   1473.6937     -5546.7341     -5254.3322      4233.1935      50893.322      61.140401    
     20800   1459.1873     -5543.2449     -5253.7212      4529.4627      50888.827      61.191919    
     20810   1464.5589     -5543.8228     -5253.2333      4641.741       50884.835      61.252325    
     20820   1465.3841     -5543.6104     -5252.8572      4257.5528      50881.688      61.329405    
     20830   1456.3387     -5541.5764     -5252.618       3559.7441      50879.205      61.407028    
     20840   1431.0985     -5536.4081     -5252.4576      3060.6212      50876.92       61.496741    
     20850   1433.9333     -5536.8677     -5252.3548      2688.9929      50874.478      61.594961    
     20860   1425.1831     -5535.041      -5252.2643      2780.21        50871.409      61.679947    
     20870   1413.046      -5532.5446     -5252.176       3266.3882      50867.499      61.745353    
     20880   1418.7888     -5533.5842     -5252.0762      3746.0943      50862.818      61.803389    
     20890   1404.2684     -5530.5586     -5251.9316      4559.9544      50857.615      61.857642    
     20900   1414.8613     -5532.4614     -5251.7327      5116.8263      50852.775      61.924162    
     20910   1431.5493     -5535.5387     -5251.4988      5076.4636      50849.237      62.001068    
     20920   1433.7563     -5535.765      -5251.2872      4557.9375      50847.295      62.074194    
     20930   1429.6279     -5534.7642     -5251.1055      4005.6037      50846.833      62.151603    
     20940   1440.8241     -5536.8431     -5250.963       3461.1242      50847.702      62.234577    
     20950   1456.8487     -5539.9552     -5250.8956      3175.959       50849.432      62.329051    
     20960   1440.724      -5536.8267     -5250.9664      3603.1568      50851.39       62.429655    
     20970   1413.8775     -5531.699      -5251.1654      4204.7021      50853.409      62.513912    
     20980   1392.3842     -5527.6348     -5251.3658      4563.7235      50856.033      62.599967    
     20990   1421.5097     -5533.641      -5251.5931      4461.5491      50859.783      62.712471    
     21000   1407.2309     -5531.0405     -5251.8258      4635.1116      50864.536      62.830937    
     21010   1413.5675     -5532.6064     -5252.1344      4341.4953      50870.31       62.934014    
     21020   1431.2493     -5536.4714     -5252.4911      3910.522       50876.702      63.021889    
     21030   1413.8786     -5533.4736     -5252.9399      3976.7742      50882.943      63.105624    
     21040   1418.2681     -5534.9268     -5253.5221      4023.4957      50888.9        63.217106    
     21050   1405.4789     -5533.0455     -5254.1784      4005.4471      50894.656      63.358126    
     21060   1429.3666     -5538.5709     -5254.9641      3770.2831      50900.174      63.498739    
     21070   1446.7083     -5542.9629     -5255.9152      3848.0269      50905.065      63.626147    
     21080   1460.2709     -5546.8542     -5257.1156      3850.0494      50909.208      63.751902    
     21090   1463.6297     -5549.027      -5258.6219      3833.258       50912.841      63.864562    
     21100   1449.3001     -5547.9291     -5260.3672      3969.9703      50916.253      63.964753    
     21110   1430.9832     -5546.1544     -5262.2269      3959.0428      50919.709      64.07615     
     21120   1428.4598     -5547.4929     -5264.066       3497.7335      50923.451      64.207006    
     21130   1429.6916     -5549.4825     -5265.8113      3068.0221      50927.511      64.343066    
     21140   1406.7973     -5546.5133     -5267.3846      3014.6983      50931.697      64.470765    
     21150   1379.6348     -5542.4524     -5268.7131      3188.444       50936.012      64.566993    
     21160   1388.0373     -5545.1931     -5269.7866      3238.4518      50940.451      64.622692    
     21170   1396.3508     -5547.7181     -5270.6621      3295.472       50944.96       64.668083    
     21180   1408.3634     -5550.8767     -5271.4372      3123.6625      50949.652      64.730801    
     21190   1391.8231     -5548.3103     -5272.1527      3162.4553      50954.647      64.820523    
     21200   1369.0011     -5544.4025     -5272.773       3238.6727      50960.478      64.955185    
     21210   1366.5788     -5544.4156     -5273.2668      2935.5001      50967.477      65.120942    
     21220   1361.4594     -5543.7821     -5273.6491      2764.6656      50975.351      65.30971     
     21230   1357.5403     -5543.2397     -5273.8843      2890.7392      50983.761      65.488637    
     21240   1382.3208     -5548.329      -5274.0567      2667.9535      50992.892      65.638397    
     21250   1394.5371     -5550.8855     -5274.1894      2564.034       51002.711      65.771818    
     21260   1373.0783     -5546.7612     -5274.3228      2760.3493      51012.867      65.915389    
     21270   1365.8158     -5545.4081     -5274.4107      2836.4808      51023.203      66.075019    
     21280   1398.037      -5551.8479     -5274.4573      2645.3084      51033.546      66.235528    
     21290   1401.5021     -5552.599      -5274.5209      2899.4544      51043.681      66.378438    
     21300   1388.2911     -5550.1113     -5274.6545      3402.643       51053.604      66.512042    
     21310   1386.529      -5549.9253     -5274.8181      3846.4733      51063.463      66.662801    
     21320   1384.9214     -5549.7839     -5274.9957      4112.7262      51073.598      66.824674    
     21330   1376.9167     -5548.4121     -5275.2121      4210.0104      51084.418      66.97938     
     21340   1391.5795     -5551.541      -5275.4317      3857.8448      51095.852      67.127372    
     21350   1411.5258     -5555.7682     -5275.7013      3504.4207      51107.395      67.254605    
     21360   1397.8506     -5553.4391     -5276.0855      3603.4502      51118.717      67.359737    
     21370   1388.3585     -5552.0449     -5276.5747      3552.3565      51129.697      67.465632    
     21380   1377.0913     -5550.3746     -5277.14        3436.5784      51140.075      67.579061    
     21390   1377.0652     -5550.988      -5277.7586      3382.9918      51149.629      67.690809    
     21400   1358.4096     -5547.9305     -5278.4026      3664.6401      51158.43       67.789592    
     21410   1349.7725     -5546.8586     -5279.0445      3732.2166      51166.856      67.859024    
     21420   1360.2776     -5549.5704     -5279.6719      3337.8029      51174.929      67.889796    
     21430   1382.0297     -5554.5322     -5280.3177      2598.5882      51182.293      67.914148    
     21440   1376.0279     -5554.0518     -5281.0281      1828.8551      51188.375      67.964889    
     21450   1369.6589     -5553.5892     -5281.8293      1264.4803      51192.7        68.047562    
     21460   1356.6948     -5551.8541     -5282.6664      1179.8787      51195.089      68.138065    
     21470   1334.7795     -5548.3557     -5283.5163      1498.7292      51195.684      68.224091    
     21480   1326.9222     -5547.5878     -5284.3074      1925.3347      51194.763      68.314768    
     21490   1319.3722     -5546.7773     -5284.995       2341.579       51192.499      68.40546     
     21500   1319.1353     -5547.3208     -5285.5855      2430.9821      51189.073      68.475387    
     21510   1325.8813     -5549.1284     -5286.0546      2179.3055      51184.806      68.523992    
     21520   1342.9796     -5552.8784     -5286.412       1783.5828      51179.81       68.577519    
     21530   1354.8038     -5555.5653     -5286.7528      1890.3422      51173.749      68.656472    
     21540   1347.4185     -5554.4279     -5287.0807      2428.3206      51166.355      68.762336    
     21550   1348.1071     -5554.8944     -5287.4106      2633.4703      51157.959      68.866711    
     21560   1351.2885     -5555.8491     -5287.7341      2472.493       51148.948      68.933959    
     21570   1336.5512     -5553.241      -5288.0501      2284.1013      51139.425      68.982359    
     21580   1348.2421     -5555.8773     -5288.3668      1829.2614      51129.166      69.036912    
     21590   1360.8511     -5558.7092     -5288.6969      1542.2625      51117.718      69.083509    
     21600   1360.9635     -5559.1274     -5289.0928      1575.1689      51104.725      69.121531    
     21610   1345.8555     -5556.6127     -5289.5757      2017.8801      51090.104      69.160072    
     21620   1324.2328     -5552.8517     -5290.1049      2510.5264      51073.955      69.18764     
     21630   1326.5195     -5553.8181     -5290.6177      2497.3974      51056.417      69.194102    
     21640   1320.312      -5553.0762     -5291.1074      2464.9919      51037.531      69.192041    
     21650   1298.4467     -5549.1764     -5291.546       2449.2703      51017.393      69.178791    
     21660   1298.65       -5549.5521     -5291.8814      2269.8871      50996.155      69.146076    
     21670   1316.6895     -5553.3442     -5292.0942      1945.0617      50973.691      69.099204    
     21680   1305.4397     -5551.2122     -5292.1942      2024.0104      50949.493      69.060737    
     21690   1305.493      -5551.1979     -5292.1694      2284.8503      50923.632      69.030582    
     21700   1325.4238     -5554.9409     -5291.9578      2255.9135      50896.494      68.98464     
     21710   1335.6607     -5556.6636     -5291.6494      2230.2752      50867.937      68.923156    
     21720   1344.5966     -5558.0497     -5291.2625      2059.0764      50837.686      68.858078    
     21730   1357.4371     -5560.1711     -5290.8362      1995.4804      50805.738      68.784621    
     21740   1358.1236     -5559.8921     -5290.4209      2220.4135      50772.091      68.681659    
     21750   1338.1552     -5555.5074     -5289.9983      2552.613       50736.773      68.545278    
     21760   1342.0362     -5555.8118     -5289.5326      2400.4683      50699.922      68.399212    
     21770   1364.7987     -5559.8452     -5289.0496      2261.5284      50661.581      68.25362     
     21780   1381.1457     -5562.6365     -5288.5974      2375.7013      50621.733      68.108047    
     21790   1387.0473     -5563.4579     -5288.2478      2647.1306      50580.682      67.969201    
     21800   1384.0688     -5562.6705     -5288.0515      2917.3411      50538.67       67.840392    
     21810   1352.6887     -5556.3838     -5287.991       3359.3228      50495.83       67.707995    
     21820   1322.5575     -5550.3713     -5287.957       3834.341       50452.69       67.573371    
     21830   1340.8932     -5553.9525     -5287.9001      3676.1188      50409.868      67.461069    
     21840   1379.1918     -5561.5195     -5287.8681      3209.2359      50367.235      67.377307    
     21850   1378.6528     -5561.5228     -5287.9784      3389.5457      50324.561      67.31508     
     21860   1380.8858     -5562.2794     -5288.2919      3691.8374      50281.847      67.255868    
     21870   1376.3738     -5561.8689     -5288.7766      4391.9775      50239.111      67.201136    
     21880   1390.8046     -5565.434      -5289.4784      4608.2355      50197.028      67.154658    
     21890   1374.2128     -5563.0752     -5290.4117      4775.1753      50156.224      67.101572    
     21900   1364.916      -5562.3896     -5291.5708      4881.1379      50116.902      67.029551    
     21910   1356.3143     -5562.0267     -5292.9145      5131.441       50079.151      66.959024    
     21920   1329.4735     -5558.1226     -5294.336       5263.4857      50042.996      66.905623    
     21930   1318.0588     -5557.2356     -5295.7139      5121.5338      50008.657      66.862767    
     21940   1322.6849     -5559.4285     -5296.9888      4810.9392      49976.199      66.811034    
     21950   1323.4376     -5560.7571     -5298.1681      4592.1612      49945.519      66.754549    
     21960   1315.016      -5560.1389     -5299.2209      4594.7495      49916.557      66.696596    
     21970   1320.6875     -5562.1714     -5300.1281      4705.3694      49889.543      66.643587    
     21980   1322.7852     -5563.3704     -5300.9108      4899.3737      49864.85       66.61665     
     21990   1338.5235     -5567.2145     -5301.6322      4839.7636      49842.76       66.620213    
     22000   1341.1102     -5568.4336     -5302.3381      4741.2414      49823.131      66.638177    
     22010   1328.4491     -5566.6198     -5303.0364      4830.7422      49805.174      66.649916    
     22020   1319.8656     -5565.5742     -5303.694       5277.0813      49788.521      66.664426    
     22030   1306.3984     -5563.4718     -5304.2636      5729.797       49773.497      66.692949    
     22040   1320.4065     -5566.7677     -5304.7801      5614.383       49760.348      66.756525    
     22050   1322.9748     -5567.7415     -5305.2443      5383.0916      49749.137      66.839672    
     22060   1327.622      -5569.1191     -5305.6999      5166.8729      49739.697      66.919662    
     22070   1330.7944     -5570.2412     -5306.1925      4834.5791      49731.854      66.994741    
     22080   1308.7554     -5566.3652     -5306.6894      4699.0235      49725.337      67.058267    
     22090   1291.5384     -5563.3971     -5307.1374      4619.6503      49719.784      67.118317    
     22100   1314.4881     -5568.3409     -5307.5277      4263.2804      49714.819      67.213587    
     22110   1317.3523     -5569.288      -5307.9064      4185.5331      49710.029      67.347088    
     22120   1303.1728     -5566.834      -5308.2658      4412.5621      49705.34       67.464465    
     22130   1325.9894     -5571.7354     -5308.6401      4488.908       49700.902      67.534853    
     22140   1306.3418     -5568.2161     -5309.0191      4850.8013      49696.919      67.575266    
     22150   1298.9805     -5567.1365     -5309.4001      4990.4332      49694.055      67.620184    
     22160   1297.1266     -5567.1284     -5309.7599      4990.9561      49692.918      67.69927     
     22170   1290.3458     -5566.1023     -5310.0792      5057.6152      49693.646      67.810893    
     22180   1298.7196     -5568.0469     -5310.3623      4910.7507      49696.006      67.94354     
     22190   1303.5438     -5569.2729     -5310.6312      4689.3785      49699.703      68.077015    
     22200   1312.3764     -5571.3025     -5310.9082      4315.6812      49704.689      68.212012    
     22210   1321.9169     -5573.5283     -5311.2411      4009.1233      49711.213      68.354293    
     22220   1328.2229     -5575.1938     -5311.6554      3917.4177      49719.12       68.494211    
     22230   1325.5816     -5575.2162     -5312.2018      4267.4033      49728.063      68.621804    
     22240   1314.8354     -5573.7495     -5312.8673      4519.6155      49738.029      68.732802    
     22250   1300.6922     -5571.7119     -5313.636       4488.7633      49748.805      68.830204    
     22260   1277.2222     -5567.8575     -5314.4384      4305.9051      49759.928      68.926737    
     22270   1277.9928     -5568.8569     -5315.2849      3873.2093      49771.239      69.023987    
     22280   1259.2529     -5565.9375     -5316.0837      3520.469       49782.654      69.129923    
     22290   1269.6116     -5568.7734     -5316.8643      3079.6806      49794.129      69.25349     
     22300   1271.1617     -5569.8179     -5317.6012      2953.4044      49805.241      69.399872    
     22310   1277.1399     -5571.7837     -5318.3808      3137.8668      49815.748      69.569581    
     22320   1269.8244     -5571.1465     -5319.1951      3275.4635      49825.905      69.760934    
     22330   1262.7147     -5570.5653     -5320.0246      3379.2787      49835.913      69.955787    
     22340   1257.8611     -5570.4525     -5320.8749      3566.1167      49845.704      70.149353    
     22350   1258.594      -5571.4567     -5321.7336      3685.3101      49855.195      70.350372    
     22360   1259.5782     -5572.5308     -5322.6124      3905.8846      49864.574      70.552045    
     22370   1263.5548     -5574.2549     -5323.5475      4177.1244      49874.294      70.734498    
     22380   1278.9383     -5578.3228     -5324.5631      4146.9258      49884.806      70.890787    
     22390   1280.259      -5579.7231     -5325.7014      4238.7552      49896.074      71.040017    
     22400   1242.0688     -5573.3701     -5326.9259      4522.5304      49907.833      71.206748    
     22410   1246.9805     -5575.5857     -5328.1669      4171.4902      49919.895      71.382012    
     22420   1263.2905     -5580.0513     -5329.3963      3734.0855      49932.078      71.541868    
     22430   1249.0048     -5578.4458     -5330.6254      3805.3541      49944.322      71.696473    
     22440   1238.0848     -5577.4556     -5331.8018      3997.2279      49956.802      71.877454    
     22450   1224.9351     -5575.8761     -5332.8314      3891.6849      49969.854      72.074567    
     22460   1209.1173     -5573.5708     -5333.6646      3752.7911      49983.819      72.273886    
     22470   1198.9674     -5572.1536     -5334.2613      3609.972       49998.774      72.457336    
     22480   1200.7646     -5572.8457     -5334.5968      3546.4947      50014.516      72.597082    
     22490   1240.1946     -5580.7723     -5334.7         3204.5422      50030.921      72.703834    
     22500   1279.9385     -5588.6667     -5334.7086      2963.0218      50047.909      72.800172    
     22510   1247.9061     -5582.2555     -5334.6531      3411.2779      50065.339      72.892943    
     22520   1264.67       -5585.4972     -5334.5685      3322.7279      50083.213      72.999124    
     22530   1275.8756     -5587.574      -5334.422       2988.4384      50101.191      73.125824    
     22540   1258.6323     -5583.9814     -5334.2508      2968.7831      50118.829      73.25956     
     22550   1261.0702     -5584.2711     -5334.0567      2725.0376      50136.179      73.398586    
     22560   1254.1116     -5582.6246     -5333.7909      2590.2417      50153.164      73.567216    
     22570   1254.1423     -5582.2819     -5333.4421      2588.4558      50169.443      73.761855    
     22580   1255.1992     -5582.0262     -5332.9768      2609.4222      50184.943      73.949058    
     22590   1250.3117     -5580.4471     -5332.3674      2626.3139      50199.756      74.109265    
     22600   1227.8413     -5575.1843     -5331.563       2845.7436      50213.934      74.257195    
     22610   1229.2093     -5574.3442     -5330.4515      2904.2521      50227.606      74.412945    
     22620   1242.7717     -5575.5256     -5328.9419      2953.6852      50240.99       74.582765    
     22630   1253.0164     -5575.6945     -5327.0781      3024.6186      50254.505      74.769352    
     22640   1260.134      -5575.0312     -5325.0026      2992.1732      50268.514      74.965439    
     22650   1261.7605     -5573.2712     -5322.9199      2932.1032      50283.168      75.152183    
     22660   1258.6342     -5570.7634     -5321.0324      2893.5438      50298.229      75.32505     
     22670   1274.6416     -5572.355      -5319.4478      2800.1075      50313.4        75.513629    
     22680   1288.1616     -5573.7971     -5318.2074      2675.1723      50328.56       75.726602    
     22690   1282.6454     -5571.7994     -5317.3042      2856.0647      50343.706      75.933715    
     22700   1283.7662     -5571.3896     -5316.672       2935.2779      50359.11       76.121847    
     22710   1289.9123     -5572.1759     -5316.2388      2955.5245      50374.946      76.293204    
     22720   1285.0454     -5570.9476     -5315.9762      3004.3952      50391.208      76.4574      
     22730   1283.78       -5570.5554     -5315.8351      2909.2036      50407.794      76.629279    
     22740   1296.1388     -5572.9698     -5315.7973      2435.3248      50424.223      76.820343    
     22750   1313.7448     -5576.592      -5315.9263      2098.6279      50439.713      77.035928    
     22760   1304.2707     -5575.0316     -5316.2456      2304.2626      50453.917      77.261558    
     22770   1294.7853     -5573.6492     -5316.7452      2676.4682      50466.971      77.464387    
     22780   1270.5304     -5569.4652     -5317.3738      2857.6098      50479.089      77.628734    
     22790   1276.7933     -5571.4039     -5318.0698      2593.9359      50490.318      77.776646    
     22800   1280.5314     -5572.9219     -5318.8461      2516.9987      50500.339      77.904528    
     22810   1256.3806     -5568.9708     -5319.6869      2717.3323      50509.124      78.015214    
     22820   1263.7109     -5571.3069     -5320.5686      2454.9695      50517.179      78.125989    
     22830   1265.4696     -5572.5608     -5321.4735      2218.5866      50524.724      78.255247    
     22840   1255.0402     -5571.4266     -5322.4087      2125.2417      50531.857      78.394093    
     22850   1251.309      -5571.6233     -5323.3457      2067.5236      50538.904      78.525392    
     22860   1244.5488     -5571.1904     -5324.2541      2127.5187      50546.006      78.667485    
     22870   1249.0003     -5572.9475     -5325.128       2151.4995      50552.896      78.819449    
     22880   1244.447      -5572.8717     -5325.9556      2087.1804      50559.358      78.961216    
     22890   1244.446      -5573.6488     -5326.7329      1861.5073      50565.099      79.079219    
     22900   1247.2316     -5574.962      -5327.4934      1540.9314      50569.518      79.182175    
     22910   1236.8518     -5573.6206     -5328.2115      1243.9621      50572.308      79.277315    
     22920   1242.7641     -5575.4938     -5328.9116      1152.0887      50573.4        79.340709    
     22930   1213.2837     -5570.2863     -5329.5534      1672.3664      50572.78       79.375435    
     22940   1181.7243     -5564.5316     -5330.0606      2272.4913      50570.954      79.404449    
     22950   1180.994      -5564.7096     -5330.3835      2453.3717      50568.373      79.444492    
     22960   1189.305      -5566.4916     -5330.5164      2485.1303      50565.14       79.514238    
     22970   1200.0942     -5568.6259     -5330.51        2360.4694      50561.23       79.586943    
     22980   1205.1034     -5569.5062     -5330.3964      2240.106       50556.484      79.643882    
     22990   1218.7463     -5572.0188     -5330.2021      2056.9858      50550.755      79.684041    
     23000   1228.9437     -5573.7869     -5329.9468      1929.7991      50543.964      79.707791    
     23010   1262.1206     -5580.1381     -5329.7153      1732.3763      50536.212      79.711344    
     23020   1261.0222     -5579.7656     -5329.5608      1872.4403      50527.574      79.713731    
     23030   1246.9114     -5576.9524     -5329.5473      2339.8082      50518.161      79.725137    
     23040   1235.099      -5574.642      -5329.5806      2712.8431      50508.21       79.736099    
     23050   1234.6192     -5574.6182     -5329.652       2849.6232      50498.072      79.746892    
     23060   1239.5292     -5575.6978     -5329.7574      2796.9268      50488.016      79.799478    
     23070   1247.8357     -5577.5098     -5329.9213      2383.5551      50478.013      79.900215    
     23080   1261.6454     -5580.5347     -5330.2062      1982.7774      50468.032      80.017509    
     23090   1270.2052     -5582.7074     -5330.6805      1938.3397      50457.791      80.13542     
     23100   1246.3495     -5578.6388     -5331.3452      2198.3071      50447.063      80.246185    
     23110   1252.07       -5580.6394     -5332.2108      2075.9381      50435.505      80.341731    
     23120   1236.4334     -5578.6077     -5333.2816      2068.1337      50422.5        80.420103    
     23130   1225.2285     -5577.6332     -5334.5303      1736.3664      50407.753      80.474525    
     23140   1212.1035     -5576.4067     -5335.908       1359.7468      50391.021      80.518935    
     23150   1186.2931     -5572.6813     -5337.3037      1278.2348      50372.117      80.56237     
     23160   1192.4569     -5575.2242     -5338.6237      1248.7964      50350.908      80.591001    
     23170   1224.2298     -5582.7964     -5339.8917      1373.9874      50327.508      80.59688     
     23180   1201.5445     -5579.4884     -5341.0848      2298.0235      50302.597      80.594856    
     23190   1187.4853     -5577.7156     -5342.1015      3054.0059      50277.238      80.59534     
     23200   1200.854      -5581.2173     -5342.9507      3099.5875      50252.076      80.592074    
     23210   1173.9187     -5576.5298     -5343.6075      3229.8815      50227.367      80.597515    
     23220   1171.4212     -5576.5071     -5344.0803      2984.1805      50203.274      80.618864    
     23230   1193.1335     -5581.1265     -5344.3917      2461.0248      50179.416      80.634252    
     23240   1190.543      -5580.821      -5344.6003      2336.4198      50155.269      80.636344    
     23250   1185.6706     -5579.9905     -5344.7364      2490.6881      50130.496      80.64149     
     23260   1198.7345     -5582.6375     -5344.7914      2624.0703      50104.917      80.635016    
     23270   1206.8364     -5584.2671     -5344.8135      2887.4013      50078.841      80.593759    
     23280   1196.9201     -5582.3046     -5344.8185      3026.9281      50052.799      80.524019    
     23290   1207.4289     -5584.3777     -5344.8065      2774.4069      50026.979      80.449956    
     23300   1218.6042     -5586.6035     -5344.815       2569.6376      50001.388      80.389056    
     23310   1187.1991     -5580.3981     -5344.8408      2975.2032      49976.219      80.3258      
     23320   1189.2288     -5580.7932     -5344.8332      3022.2741      49951.948      80.244283    
     23330   1212.7754     -5585.436      -5344.804       2718.3149      49928.472      80.132575    
     23340   1212.4108     -5585.3654     -5344.8057      2841.7983      49905.28       80.006653    
     23350   1215.6354     -5586.0765     -5344.8771      3083.5328      49882.181      79.894063    
     23360   1206.3868     -5584.3359     -5344.9715      3553.4794      49859.253      79.829184    
     23370   1203.3918     -5583.8668     -5345.0967      3925.2257      49836.839      79.799352    
     23380   1207.709      -5584.8655     -5345.2387      4019.163       49815.044      79.783787    
     23390   1222.5954     -5588.016      -5345.4356      3809.145       49793.662      79.776577    
     23400   1210.7136     -5585.9205     -5345.6976      3818.3344      49772.622      79.769427    
     23410   1212.9065     -5586.6885     -5346.0305      3635.5353      49752.281      79.750292    
     23420   1209.9292     -5586.4958     -5346.4286      3333.4322      49732.838      79.745291    
     23430   1211.9705     -5587.3619     -5346.8896      3107.8907      49714.077      79.762666    
     23440   1215.6928     -5588.6521     -5347.4412      2817.9002      49695.833      79.783418    
     23450   1225.217      -5591.2031     -5348.1025      2619.6787      49677.835      79.790726    
     23460   1228.0626     -5592.5643     -5348.8991      2757.0526      49659.865      79.790264    
     23470   1230.6313     -5594.0208     -5349.8459      3119.0003      49642.046      79.787972    
     23480   1235.9092     -5596.1646     -5350.9425      3512.4312      49624.71       79.785656    
     23490   1230.9377     -5596.4128     -5352.1772      3766.6308      49608.24       79.795172    
     23500   1232.6931     -5598.0923     -5353.5083      3566.4102      49592.798      79.81919     
     23510   1203.7464     -5593.6747     -5354.8342      3547.6232      49578.612      79.859194    
     23520   1172.3298     -5588.5979     -5355.9909      3689.9594      49565.957      79.913237    
     23530   1163.6411     -5587.771      -5356.8879      3761.5858      49554.846      79.972502    
     23540   1160.4838     -5587.79       -5357.5334      3928.5888      49545.071      80.027473    
     23550   1175.7703     -5591.2855     -5357.9959      3763.67        49536.551      80.076956    
     23560   1177.4525     -5591.959      -5358.3355      3545.6195      49529.042      80.102508    
     23570   1181.834      -5593.1052     -5358.6124      3362.7771      49522.194      80.103048    
     23580   1174.5038     -5591.8755     -5358.8371      3371.954       49515.865      80.128284    
     23590   1171.6432     -5591.488      -5359.0172      3444.7003      49510.075      80.200583    
     23600   1173.4331     -5591.981      -5359.155       3395.5074      49504.665      80.316004    
     23610   1181.1162     -5593.6318     -5359.2815      3225.8094      49499.277      80.468704    
     23620   1182.9644     -5594.1328     -5359.4157      3168.6194      49493.837      80.627116    
     23630   1185.0442     -5594.7089     -5359.5791      3291.2194      49488.557      80.757651    
     23640   1171.7221     -5592.2395     -5359.7531      3748.451       49483.588      80.840716    
     23650   1167.9025     -5591.6624     -5359.9338      4175.2823      49479.163      80.875699    
     23660   1156.03       -5589.4563     -5360.0834      4575.8894      49475.704      80.899704    
     23670   1164.6074     -5591.272      -5360.1972      4436.5847      49473.535      80.928885    
     23680   1164.4777     -5591.3357     -5360.2866      4071.989       49472.49       80.962955    
     23690   1168.1364     -5592.1337     -5360.3587      3539.8678      49472.19       80.998042    
     23700   1190.6907     -5596.7135     -5360.4634      2990.0169      49471.911      81.020638    
     23710   1168.4837     -5592.4486     -5360.6047      2887.4689      49471.181      81.030872    
     23720   1172.1921     -5593.3737     -5360.794       2753.9178      49470.298      81.037897    
     23730   1152.0102     -5589.5702     -5360.9949      2979.6396      49469.559      81.043722    
     23740   1152.8961     -5589.9397     -5361.1886      3248.9379      49469.049      81.046773    
     23750   1149.0896     -5589.3347     -5361.3389      3731.5243      49468.737      81.054325    
     23760   1148.5234     -5589.3424     -5361.4589      4014.4282      49468.793      81.063097    
     23770   1165.6776     -5592.8379     -5361.5508      3716.6441      49469.415      81.06883     
     23780   1161.2106     -5592.0388     -5361.638       3553.4094      49470.636      81.074193    
     23790   1153.4331     -5590.6139     -5361.7562      3658.3731      49472.506      81.091658    
     23800   1151.6447     -5590.3707     -5361.8679      3913.4147      49474.888      81.133045    
     23810   1168.9335     -5593.9087     -5361.9755      4077.3855      49477.791      81.203326    
     23820   1186.9723     -5597.6448     -5362.1325      4065.0315      49481.366      81.305178    
     23830   1175.1879     -5595.5815     -5362.4074      4285.2459      49485.878      81.420364    
     23840   1161.8323     -5593.3103     -5362.7861      4456.1087      49491.629      81.54746     
     23850   1184.3785     -5598.2842     -5363.2865      4156.3319      49498.786      81.703504    
     23860   1168.9541     -5595.8503     -5363.9131      3992.1351      49507.09       81.880746    
     23870   1152.0413     -5593.259      -5364.6775      3713.3935      49516.217      82.066638    
     23880   1140.2603     -5591.7506     -5365.5066      3294.1359      49525.893      82.244563    
     23890   1141.7195     -5592.906      -5366.3725      2823.4533      49535.96       82.401089    
     23900   1141.9903     -5593.8794     -5367.2922      2451.4592      49546.223      82.537872    
     23910   1131.2956     -5592.6764     -5368.2111      2416.0251      49556.42       82.65486     
     23920   1131.7288     -5593.6615     -5369.1103      2478.0008      49566.48       82.762067    
     23930   1145.1166     -5597.2042     -5369.9967      2507.1392      49576.468      82.873211    
     23940   1135.7654     -5596.2158     -5370.8637      2817.2133      49586.552      82.99147     
     23950   1122.5826     -5594.4229     -5371.6864      2950.8164      49596.928      83.120528    
     23960   1125.286      -5595.7064     -5372.4336      2897.8534      49607.67       83.258833    
     23970   1122.4122     -5595.7899     -5373.0873      2823.2131      49618.631      83.397939    
     23980   1119.7451     -5595.8229     -5373.6494      2752.9735      49629.536      83.51397     
     23990   1129.5243     -5598.2278     -5374.114       2494.7799      49640.111      83.60335     
     24000   1154.212      -5603.5759     -5374.5637      2372.4253      49650.103      83.679924    
     24010   1156.953      -5604.5786     -5375.0226      2617.1958      49659.37       83.745792    
     24020   1175.7086     -5608.8358     -5375.5584      2734.3659      49667.909      83.79036     
     24030   1182.2874     -5610.7815     -5376.1987      2873.7162      49675.707      83.824573    
     24040   1178.7291     -5610.8529     -5376.9762      2905.6591      49682.8        83.872145    
     24050   1162.8599     -5608.5736     -5377.8455      2920.7887      49689.108      83.938313    
     24060   1162.2631     -5609.3774     -5378.7678      2592.4891      49694.486      84.039376    
     24070   1155.3091     -5608.9307     -5379.7008      2355.1664      49698.626      84.160291    
     24080   1117.5134     -5602.2979     -5380.5672      2708.5493      49701.424      84.283579    
     24090   1103.3505     -5600.1753     -5381.2548      2810.0667      49703.235      84.391728    
     24100   1123.7906     -5604.7625     -5381.7863      2417.1211      49704.358      84.474309    
     24110   1116.9525     -5603.8143     -5382.195       2331.6103      49704.735      84.550285    
     24120   1128.5047     -5606.4141     -5382.5026      2165.2038      49704.417      84.640195    
     24130   1135.3322     -5608.0455     -5382.7794      2133.097       49703.265      84.748759    
     24140   1113.1347     -5603.8564     -5382.9946      2307.046       49701.291      84.875493    
     24150   1124.8673     -5606.369      -5383.1792      2134.0433      49698.72       85.008089    
     24160   1096.3254     -5600.818      -5383.2913      2423.0322      49695.435      85.137868    
     24170   1086.7564     -5598.9445     -5383.3164      2640.6632      49691.56       85.248803    
     24180   1083.568      -5598.2161     -5383.2206      2774.1311      49687.318      85.328376    
     24190   1098.9021     -5601.0557     -5383.0177      2742.948       49682.993      85.395928    
     24200   1113.4327     -5603.6766     -5382.7556      2808.172       49678.696      85.455778    
     24210   1109.4148     -5602.5948     -5382.4711      3128.5834      49674.472      85.514148    
     24220   1109.0926     -5602.2371     -5382.1772      3288.8121      49670.336      85.589972    
     24230   1098.6814     -5599.8571     -5381.8629      3315.3378      49666.2        85.681425    
     24240   1103.9912     -5600.5583     -5381.5107      3004.7694      49662.036      85.778696    
     24250   1105.6148     -5600.484      -5381.1142      2382.2828      49657.504      85.856334    
     24260   1108.756      -5600.6953     -5380.7022      1829.618       49652.125      85.90144     
     24270   1108.0536     -5600.1281     -5380.2744      1623.0012      49645.755      85.940793    
     24280   1103.487      -5598.787      -5379.8394      1819.6944      49638.532      85.99943     
     24290   1105.7415     -5598.7811     -5379.3862      2171.051       49630.675      86.081787    
     24300   1115.3041     -5600.2017     -5378.9094      2424.3121      49622.367      86.161985    
     24310   1140.5204     -5604.7595     -5378.4639      2350.5212      49613.791      86.21965     
     24320   1130.999      -5602.496      -5378.0896      2503.3019      49604.995      86.274393    
     24330   1124.8613     -5600.989      -5377.8004      2607.4575      49596.248      86.336259    
     24340   1136.7537     -5603.12       -5377.5718      2549.4223      49587.802      86.401575    
     24350   1132.471      -5602.1396     -5377.4412      2842.7269      49579.462      86.471703    
     24360   1124.344      -5600.4584     -5377.3724      3184.8773      49571.025      86.542596    
     24370   1157.93       -5607.1604     -5377.4105      3102.2495      49562.542      86.604343    
     24380   1134.0536     -5602.5864     -5377.574       3062.3026      49554.238      86.650135    
     24390   1120.1279     -5600.113      -5377.8636      2784.2592      49546.329      86.701495    
     24400   1114.6623     -5599.3887     -5378.2237      2607.8299      49538.59       86.763379    
     24410   1103.6771     -5597.6115     -5378.6261      2790.8958      49530.681      86.80599     
     24420   1095.3777     -5596.4172     -5379.0786      3078.167       49522.644      86.852207    
     24430   1101.3616     -5598.0769     -5379.551       3206.9028      49514.816      86.95534     
     24440   1124.8039     -5603.2698     -5380.0926      3087.7916      49507.439      87.110974    
     24450   1149.5711     -5608.9014     -5380.81        2967.2042      49500.309      87.29243     
     24460   1156.6733     -5611.3429     -5381.8423      3008.6087      49493.14       87.456042    
     24470   1133.1984     -5608.0551     -5383.2123      3104.7978      49485.729      87.557853    
     24480   1094.8185     -5601.9924     -5384.7648      3259.766       49477.952      87.574008    
     24490   1102.4922     -5605.1418     -5386.3916      2990.0913      49470.1        87.509636    
     24500   1090.5125     -5604.3029     -5387.9296      3049.3781      49462.456      87.423232    
     24510   1093.6563     -5606.276      -5389.2789      3034.6834      49455.071      87.369915    
     24520   1114.3577     -5611.5355     -5390.431       2866.4765      49447.722      87.359574    
     24530   1096.8396     -5609.0076     -5391.3789      2972.5351      49440.248      87.360644    
     24540   1089.6388     -5608.3011     -5392.1012      3015.9585      49432.845      87.344324    
     24550   1102.9166     -5611.5015     -5392.667       2819.5782      49425.624      87.324771    
     24560   1098.4767     -5611.0792     -5393.1257      2681.6499      49418.656      87.327679    
     24570   1091.4114     -5610.0754     -5393.5238      2377.6735      49412.095      87.368617    
     24580   1079.8877     -5608.1301     -5393.8649      2288.8751      49405.922      87.438135    
     24590   1067.7037     -5605.9838     -5394.1361      2346.4548      49399.94       87.521635    
     24600   1052.9677     -5603.2317     -5394.3078      2437.7294      49393.917      87.615888    
     24610   1066.3521     -5605.9574     -5394.3779      2242.1197      49387.576      87.713344    
     24620   1089.2233     -5610.5175     -5394.4         2082.2769      49380.592      87.798859    
     24630   1081.8856     -5609.075      -5394.4133      2263.6185      49372.835      87.879969    
     24640   1067.4253     -5606.2152     -5394.4228      2535.2426      49364.412      87.969101    
     24650   1073.3357     -5607.3596     -5394.3944      2459.8184      49355.67       88.053573    
     24660   1079.8376     -5608.5813     -5394.3261      2463.5846      49346.966      88.110259    
     24670   1083.6237     -5609.2679     -5394.2615      2581.9796      49338.459      88.110981    
     24680   1095.0425     -5611.4824     -5394.2103      2723.575       49330.02       88.075779    
     24690   1107.929      -5614.051      -5394.222       2884.955       49321.327      88.055718    
     24700   1101.8719     -5612.9575     -5394.3303      3129.6414      49312.189      88.070502    
     24710   1091.5531     -5611.0942     -5394.5145      3364.1906      49302.622      88.106498    
     24720   1091.2988     -5611.3059     -5394.7766      3410.7102      49293.052      88.144665    
     24730   1087.6617     -5610.8947     -5395.087       3403.9656      49284.126      88.18301     
     24740   1086.2193     -5610.9924     -5395.471       3414.4473      49276.044      88.213267    
     24750   1092.5544     -5612.7118     -5395.9334      3427.4697      49268.441      88.232414    
     24760   1078.607      -5610.4783     -5396.4672      3510.7287      49260.913      88.255828    
     24770   1089.1031     -5613.1604     -5397.0668      3325.3543      49253.155      88.279334    
     24780   1089.4059     -5613.895      -5397.7413      3068.6336      49244.92       88.293131    
     24790   1062.7018     -5609.3372     -5398.4819      3012.7714      49236.205      88.291235    
     24800   1050.7453     -5607.6965     -5399.2136      2805.9468      49227.185      88.257179    
     24810   1066.225      -5611.4601     -5399.9058      2478.8712      49217.838      88.195536    
     24820   1071.6548     -5613.2351     -5400.6035      2466.0977      49207.889      88.122095    
     24830   1059.3348     -5611.4945     -5401.3073      2573.269       49197.294      88.062331    
     24840   1072.9823     -5614.8966     -5402.0016      2489.5064      49186.226      88.038507    
     24850   1069.5185     -5614.9065     -5402.6987      2750.3331      49174.655      88.041956    
     24860   1061.2499     -5613.9661     -5403.3989      3209.0213      49162.741      88.060035    
     24870   1062.2613     -5614.8311     -5404.0632      3627.6825      49150.894      88.077701    
     24880   1067.2785     -5616.4735     -5404.7102      3951.3884      49139.653      88.077892    
     24890   1076.0388     -5618.8433     -5405.3418      3914.286       49129.316      88.069257    
     24900   1092.8637     -5622.85       -5406.0102      3515.0915      49119.872      88.061422    
     24910   1098.5066     -5624.7202     -5406.7608      3231.064       49111.187      88.056456    
     24920   1078.0969     -5621.4946     -5407.5848      3398.808       49103.081      88.046689    
     24930   1047.3528     -5616.1794     -5408.3696      3670.6508      49095.629      88.020809    
     24940   1044.8755     -5616.3644     -5409.0461      3465.2558      49088.934      88.008698    
     24950   1053.2995     -5618.6038     -5409.6141      3180.6041      49082.724      88.049213    
     24960   1064.3318     -5621.2991     -5410.1204      3247.7183      49076.708      88.13535     
     24970   1062.6278     -5621.4236     -5410.583       3590.3044      49070.898      88.235829    
     24980   1066.4813     -5622.6354     -5411.0302      3888.1649      49065.349      88.330852    
     24990   1056.5882     -5621.0885     -5411.4463      3957.2629      49060.142      88.420494    
     25000   1064.3239     -5623.0225     -5411.8454      3440.4467      49055.417      88.502293    
     25010   1046.4074     -5619.8342     -5412.212       3107.8344      49050.947      88.587843    
     25020   1033.6863     -5617.6311     -5412.5329      2779.4862      49046.47       88.694118    
     25030   1023.6703     -5615.8737     -5412.7628      2543.8149      49041.744      88.802918    
     25040   1016.6428     -5614.6205     -5412.904       2753.3802      49036.688      88.889675    
     25050   1014.9039     -5614.3088     -5412.9374      3062.0349      49031.591      88.96168     
     25060   1008.9605     -5613.0615     -5412.8693      3355.5994      49026.627      89.033457    
     25070   1003.2745     -5611.7611     -5412.6971      3416.0804      49021.906      89.104755    
     25080   998.67617     -5610.5636     -5412.4119      3371.9056      49017.469      89.18441     
     25090   1014.0256     -5613.2142     -5412.017       3240.7384      49013.105      89.268194    
     25100   1019.1276     -5613.7489     -5411.5394      3195.2006      49008.481      89.348047    
     25110   1025.8137     -5614.559      -5411.0228      2969.385       49003.432      89.418002    
     25120   1049.3562     -5618.7089     -5410.5016      2309.3233      48997.976      89.471822    
     25130   1059.0765     -5620.1554     -5410.0195      2010.5575      48991.903      89.506266    
     25140   1069.1233     -5621.7733     -5409.6439      1895.9705      48985.008      89.527511    
     25150   1066.1455     -5620.927      -5409.3885      2159.512       48977.4        89.537099    
     25160   1056.6346     -5618.8865     -5409.235       2458.9868      48969.321      89.540883    
     25170   1071.7256     -5621.8312     -5409.1855      2312.1252      48960.904      89.556141    
     25180   1058.8584     -5619.3398     -5409.2472      2281.9046      48952.294      89.584541    
     25190   1038.0525     -5615.3445     -5409.38        2422.1751      48943.69       89.604851    
     25200   1037.0072     -5615.291      -5409.5339      2483.9535      48935.357      89.601518    
     25210   1042.3784     -5616.5277     -5409.7049      2660.6302      48927.53       89.587953    
     25220   1053.0957     -5618.8601     -5409.9108      2920.11        48920.387      89.588242    
     25230   1071.8752     -5622.8881     -5410.2127      3034.7041      48913.863      89.601136    
     25240   1061.2798     -5621.2145     -5410.6414      3426.175       48907.75       89.61735     
     25250   1061.0332     -5621.7283     -5411.2041      3521.5684      48902.117      89.631809    
     25260   1061.6785     -5622.5303     -5411.8781      3337.0988      48896.856      89.647687    
     25270   1044.3632     -5619.8881     -5412.6714      3259.5764      48891.811      89.677622    
     25280   1024.9442     -5616.8566     -5413.493       3223.9146      48887.163      89.723188    
     25290   1045.8963     -5621.8411     -5414.3203      2930.0181      48883.21       89.787038    
     25300   1065.6719     -5626.6509     -5415.2063      2676.5147      48879.79       89.856155    
     25310   1057.0399     -5625.8844     -5416.1526      2796.8399      48876.337      89.926903    
     25320   1044.0847     -5624.2621     -5417.1007      2852.3829      48872.431      90.007278    
     25330   1038.5342     -5624.0325     -5417.9724      2773.5509      48867.872      90.082029    
     25340   1033.4874     -5623.7776     -5418.7189      2656.807       48862.765      90.138845    
     25350   1045.8781     -5626.8904     -5419.3732      2624.0183      48857.246      90.184975    
     25360   1036.0516     -5625.4988     -5419.9313      2908.8446      48851.258      90.245109    
     25370   1041.3421     -5627.05       -5420.4329      2960.493       48845.027      90.333582    
     25380   1055.7048     -5630.3661     -5420.8991      2613.5174      48838.881      90.427089    
     25390   1040.613      -5627.8235     -5421.351       2509.1259      48832.81       90.500914    
     25400   1039.5086     -5628.0952     -5421.8418      2453.902       48826.926      90.556673    
     25410   1027.0486     -5626.0986     -5422.3175      2769.9368      48821.27       90.608497    
     25420   1029.8105     -5627.1156     -5422.7865      2929.881       48816.035      90.648754    
     25430   1031.452      -5627.9246     -5423.2697      2798.1475      48811.449      90.663386    
     25440   1038.1025     -5629.7574     -5423.783       2548.6262      48807.538      90.678313    
     25450   1044.119      -5631.535      -5424.3669      2386.6761      48804.124      90.720953    
     25460   1015.3623     -5626.4524     -5424.99        2631.4893      48801.172      90.78596     
     25470   1031.3128     -5630.2698     -5425.6425      2734.1634      48798.86       90.856867    
     25480   1042.6709     -5633.22       -5426.3391      2896.4132      48797.117      90.913258    
     25490   1025.9505     -5630.6638     -5427.1006      3235.1364      48795.729      90.951925    
     25500   1032.7087     -5632.8201     -5427.9159      3273.5502      48794.717      90.977423    
     25510   1021.9687     -5631.5273     -5428.7541      3387.0054      48794.195      91.007053    
     25520   1021.3411     -5632.248      -5429.5993      3148.2457      48794.298      91.054271    
     25530   1020.434      -5632.9175     -5430.4488      2867.9368      48794.737      91.113433    
     25540   999.22239     -5629.5271     -5431.2671      2904.8042      48795.218      91.184143    
     25550   972.35706     -5624.915      -5431.9855      3042.2965      48795.904      91.262887    
     25560   977.97735     -5626.6139     -5432.5692      2876.0849      48797.061      91.33359     
     25570   982.9921      -5628.0754     -5433.0357      2719.8077      48798.591      91.394745    
     25580   980.24308     -5627.9114     -5433.4171      2830.9038      48800.231      91.463481    
     25590   986.47001     -5629.4619     -5433.7321      2873.591       48801.758      91.540051    
     25600   994.05141     -5631.2344     -5434.0003      2908.3816      48803.06       91.610713    
     25610   998.21415     -5632.3081     -5434.2481      3016.9584      48804.248      91.672859    
     25620   1013.783      -5635.6692     -5434.5201      3051.0335      48805.494      91.739954    
     25630   1016.7539     -5636.5869     -5434.8484      3194.9002      48807.008      91.827745    
     25640   995.11557     -5632.678      -5435.2328      3647.0987      48809.255      91.928222    
     25650   992.74925     -5632.6154     -5435.6397      3628.5221      48812.882      92.025292    
     25660   996.46413     -5633.7711     -5436.0584      3238.7585      48818.073      92.125039    
     25670   977.98297     -5630.5093     -5436.4634      3044.3083      48824.434      92.232642    
     25680   982.95696     -5631.8862     -5436.8535      2650.8293      48831.688      92.341819    
     25690   989.08083     -5633.4752     -5437.2274      2349.3957      48839.498      92.456979    
     25700   975.05798     -5631.0604     -5437.595       2508.7308      48847.583      92.582428    
     25710   957.48265     -5627.8982     -5437.9199      2912.6519      48855.887      92.723653    
     25720   968.86298     -5630.4144     -5438.1781      2980.2375      48864.481      92.871705    
     25730   963.44554     -5629.5326     -5438.3712      3194.1685      48873.26       93.01852     
     25740   951.38305     -5627.2771     -5438.5091      3383.6602      48882.172      93.159473    
     25750   955.24198     -5628.0813     -5438.5476      3199.5085      48891.287      93.290888    
     25760   977.65324     -5632.4912     -5438.5108      2741.4808      48900.509      93.405744    
     25770   1000.2415     -5636.9128     -5438.4506      2300.3608      48909.553      93.518627    
     25780   993.88291     -5635.6326     -5438.432       2235.365       48918.157      93.653851    
     25790   974.27566     -5631.7775     -5438.4672      2251.5237      48926.418      93.80591     
     25800   977.02155     -5632.3564     -5438.5014      1848.1456      48934.603      93.957848    
     25810   990.96049     -5635.1711     -5438.5504      1508.3552      48942.633      94.118406    
     25820   959.29825     -5628.9481     -5438.6096      1840.9027      48950.215      94.277978    
     25830   942.6882      -5625.6932     -5438.6504      2200.2884      48957.384      94.40312     
     25840   953.73396     -5627.8323     -5438.5978      2368.4047      48964.291      94.478953    
     25850   974.51623     -5631.8262     -5438.4682      2370.8964      48971.032      94.50722     
     25860   962.18779     -5629.1895     -5438.2776      2549.9069      48977.623      94.51471     
     25870   980.04847     -5632.5179     -5438.0623      2484.26        48984.273      94.536265    
     25880   975.04687     -5631.2706     -5437.8074      2699.9008      48991.304      94.582703    
     25890   951.36188     -5626.2759     -5437.5121      3129.4209      48998.822      94.643944    
     25900   954.09478     -5626.4388     -5437.1328      3191.838       49006.967      94.714598    
     25910   962.75775     -5627.6558     -5436.6308      3010.1268      49015.559      94.804036    
     25920   989.36909     -5632.359      -5436.054       2710.4642      49024.146      94.933009    
     25930   998.38564     -5633.5422     -5435.4482      2701.4638      49032.311      95.099611    
     25940   1009.0077     -5635.1221     -5434.9205      2650.3554      49039.869      95.273888    
     25950   1006.218      -5634.1366     -5434.4885      2694.3703      49046.883      95.424936    
     25960   984.69279     -5629.5538     -5434.1767      3001.5859      49053.731      95.54332     
     25970   991.59691     -5630.6906     -5433.9435      2826.3813      49060.806      95.652324    
     25980   1009.8475     -5634.1454     -5433.7772      2226.8915      49067.909      95.755298    
     25990   1007.8749     -5633.7521     -5433.7752      1898.6545      49074.405      95.848506    
     26000   990.12895     -5630.3888     -5433.933       1963.2793      49079.755      95.956622    
     26010   968.15257     -5626.3022     -5434.2069      2201.1976      49083.87       96.09827     
     26020   984.57669     -5629.8907     -5434.5366      1947.8982      49087.045      96.244209    
     26030   1001.7383     -5633.7656     -5435.0064      1514.6576      49089.337      96.380853    
     26040   986.2536      -5631.3318     -5435.6449      1699.7058      49090.704      96.50928     
     26050   970.33009     -5628.9302     -5436.4028      1960.3044      49091.61       96.629007    
     26060   984.09363     -5632.5205     -5437.2622      1958.4829      49092.448      96.730573    
     26070   978.66773     -5632.3982     -5438.2165      2159.4872      49093.19       96.789416    
     26080   960.81584     -5629.8574     -5439.2178      2429.929       49093.902      96.819487    
     26090   946.04275     -5627.8843     -5440.1758      2580.6582      49094.85       96.842156    
     26100   953.00602     -5630.1343     -5441.0442      2372.386       49096.184      96.868596    
     26110   953.34145     -5630.9868     -5441.8302      2250.5403      49097.91       96.8922      
     26120   958.96603     -5632.8094     -5442.5369      2001.437       49099.943      96.903996    
     26130   973.78323     -5636.4152     -5443.2026      1602.592       49101.864      96.892602    
     26140   978.20098     -5637.95       -5443.8609      1459.8707      49103.212      96.860013    
     26150   979.3756      -5638.8735     -5444.5514      1686.5663      49103.742      96.819884    
     26160   956.59777     -5635.028      -5445.2253      2187.1182      49103.602      96.805561    
     26170   932.17962     -5630.7968     -5445.839       2528.5142      49103.071      96.848373    
     26180   918.65589     -5628.5881     -5446.3136      2425.3685      49102.364      96.934625    
     26190   932.63311     -5631.7225     -5446.6748      1913.5402      49101.542      97.040605    
     26200   944.44915     -5634.3636     -5446.9714      1528.9078      49100.275      97.143322    
     26210   946.31803     -5635.0107     -5447.2477      1503.3646      49098.228      97.223965    
     26220   944.86936     -5635.0056     -5447.53        1735.9962      49095.203      97.274208    
     26230   927.85165     -5631.8914     -5447.7923      2138.9181      49091.161      97.291476    
     26240   925.92813     -5631.7299     -5448.0125      2247.5626      49086.267      97.286675    
     26250   930.61099     -5632.8256     -5448.179       2153.7706      49080.691      97.267892    
     26260   939.78339     -5634.7976     -5448.3311      1954.6259      49074.68       97.256348    
     26270   946.52111     -5636.2874     -5448.484       1805.7303      49068.303      97.258876    
     26280   946.15949     -5636.4049     -5448.6733      1746.5531      49061.441      97.261442    
     26290   951.4991      -5637.6885     -5448.8974      1818.1476      49054.043      97.248255    
     26300   949.7215      -5637.62       -5449.1816      1967.6897      49046.315      97.219802    
     26310   936.48259     -5635.3224     -5449.5108      2303.4314      49038.383      97.181161    
     26320   944.1139      -5637.212      -5449.8863      2418.6062      49030.141      97.131095    
     26330   936.35855     -5636.0691     -5450.2821      2498.9569      49021.503      97.082063    
     26340   952.5515      -5639.7458     -5450.746       2337.4712      49012.566      97.035872    
     26350   938.03163     -5637.3805     -5451.2616      2414.4195      49003.403      96.990262    
     26360   933.91349     -5637.1318     -5451.83        2448.108       48994.012      96.961803    
     26370   931.80247     -5637.2996     -5452.4166      2384.2858      48984.404      96.976106    
     26380   932.83342     -5638.1235     -5453.036       2348.1116      48974.777      97.021534    
     26390   927.32843     -5637.6577     -5453.6625      2294.4204      48965.308      97.070346    
     26400   923.26575     -5637.4819     -5454.2928      2289.199       48956.092      97.10251     
     26410   922.36993     -5637.9218     -5454.9103      2246.3175      48947.102      97.120817    
     26420   908.94492     -5635.8354     -5455.4878      2286.4944      48938.21       97.132576    
     26430   908.74617     -5636.3086     -5456.0003      2353.3164      48929.371      97.120169    
     26440   921.74666     -5639.3529     -5456.4652      2226.6116      48920.53       97.078581    
     26450   924.61299     -5640.3582     -5456.9017      2082.3923      48911.649      97.029107    
     26460   938.41421     -5643.538      -5457.3431      1684.0526      48902.794      96.989542    
     26470   947.74088     -5645.8616     -5457.8162      1445.6786      48893.819      96.957992    
     26480   948.20972     -5646.4969     -5458.3586      1435.9976      48884.513      96.931413    
     26490   949.96041     -5647.4418     -5458.956       1489.9364      48874.576      96.915731    
     26500   942.79162     -5646.6519     -5459.5885      1664.3838      48863.819      96.907699    
     26510   927.99951     -5644.3422     -5460.2138      1873.2918      48852.241      96.875946    
     26520   926.58832     -5644.6395     -5460.7911      1899.8108      48839.944      96.820527    
     26530   925.8914      -5645.0149     -5461.3048      1922.304       48827.124      96.776545    
     26540   916.06837     -5643.5237     -5461.7626      2021.8445      48813.96       96.741796    
     26550   910.52688     -5642.8052     -5462.1436      1971.7502      48800.528      96.702365    
     26560   900.2361      -5641.0686     -5462.4489      1871.521       48786.885      96.664949    
     26570   889.83115     -5639.2214     -5462.6662      1783.271       48772.832      96.647656    
     26580   906.58864     -5642.699      -5462.8188      1604.3355      48757.932      96.634687    
     26590   923.68526     -5646.226      -5462.9536      1673.1534      48741.925      96.593101    
     26600   923.12105     -5646.2739     -5463.1135      2115.2172      48724.981      96.514284    
     26610   907.36908     -5643.3376     -5463.3026      2622.8182      48707.531      96.406066    
     26620   891.31077     -5640.3263     -5463.4775      2901.6849      48689.842      96.291241    
     26630   895.32645     -5641.2528     -5463.6072      2779.2744      48672.017      96.200573    
     26640   903.78089     -5643.0293     -5463.7062      2645.2702      48653.982      96.157111    
     26650   896.01415     -5641.5784     -5463.7963      2705.0937      48635.839      96.155244    
     26660   902.92838     -5643.03       -5463.8761      2608.8696      48617.715      96.161184    
     26670   911.53283     -5644.8307     -5463.9695      2583.4343      48599.495      96.147779    
     26680   906.91521     -5644.0302     -5464.0852      2763.9132      48581.021      96.11311     
     26690   911.6762      -5645.1332     -5464.2436      2889.1094      48562.36       96.066939    
     26700   905.49006     -5644.0986     -5464.4364      3145.3875      48543.567      96.030951    
     26710   903.44622     -5643.925      -5464.6684      3298.5667      48524.66       96.011934    
     26720   900.89017     -5643.6716     -5464.9221      3471.566       48505.531      95.988765    
     26730   909.17122     -5645.6136     -5465.2211      3447.1079      48486.073      95.956039    
     26740   921.10299     -5648.3434     -5465.5834      3223.2476      48466.198      95.920805    
     26750   906.47235     -5645.9037     -5466.0466      3287.3223      48445.841      95.893355    
     26760   878.5313      -5640.8478     -5466.5346      3504.1615      48425.278      95.882268    
     26770   890.3606      -5643.6808     -5467.0205      3104.5762      48404.884      95.886318    
     26780   904.67133     -5647.0269     -5467.5271      2712.3134      48384.545      95.888664    
     26790   915.45048     -5649.7518     -5468.1133      2605.0188      48364.161      95.868768    
     26800   915.00972     -5650.3466     -5468.7955      2808.1948      48343.813      95.829344    
     26810   923.40454     -5652.8152     -5469.5985      2991.475       48323.64       95.789018    
     26820   912.20827     -5651.4888     -5470.4936      3284.5466      48303.626      95.761388    
     26830   898.3583      -5649.6764     -5471.4292      3426.2599      48283.833      95.744485    
     26840   891.96429     -5649.2944     -5472.3159      3272.0304      48264.374      95.72712     
     26850   895.45981     -5650.8047     -5473.1326      3082.3773      48245.299      95.702799    
     26860   884.26788     -5649.2952     -5473.8438      3202.4604      48226.711      95.668214    
     26870   890.28125     -5651.0944     -5474.4498      3107.4066      48208.849      95.618856    
     26880   896.70572     -5652.8921     -5474.9728      2905.3539      48191.682      95.571601    
     26890   893.7777      -5652.7896     -5475.4513      2907.4031      48174.949      95.548959    
     26900   887.0679      -5651.8777     -5475.8707      3037.9667      48158.404      95.563739    
     26910   894.02838     -5653.6454     -5476.2574      3093.3156      48142.081      95.605348    
     26920   895.99739     -5654.4005     -5476.6218      3167.1553      48126.143      95.632292    
     26930   903.58451     -5656.2795     -5476.9954      3261.6415      48110.658      95.61263     
     26940   910.19787     -5658.0088     -5477.4125      3342.715       48095.781      95.554539    
     26950   913.47655     -5659.144      -5477.8972      3354.7636      48081.673      95.487034    
     26960   902.09204     -5657.4368     -5478.4488      3401.1535      48068.515      95.438389    
     26970   888.84599     -5655.3849     -5479.0251      3311.396       48056.345      95.427322    
     26980   889.05397     -5656.0162     -5479.6152      3154.0222      48045          95.45272     
     26990   872.10078     -5653.2239     -5480.1866      3316.4928      48034.458      95.501375    
     27000   856.57614     -5650.6648     -5480.7078      3535.0979      48024.885      95.54381     
     27010   847.78608     -5649.3475     -5481.1346      3728.6328      48016.477      95.574101    
     27020   848.36738     -5649.7855     -5481.4573      3629.9167      48009.432      95.602387    
     27030   874.82423     -5655.3043     -5481.7267      3331.8994      48003.646      95.636897    
     27040   892.2978      -5659.0671     -5482.0225      3095.88        47998.767      95.679732    
     27050   875.21958     -5656.0173     -5482.3612      3054.4534      47994.476      95.734694    
     27060   877.4743      -5656.838      -5482.7345      2778.9929      47990.664      95.820487    
     27070   885.20586     -5658.7826     -5483.1451      2466.4892      47987.127      95.942907    
     27080   876.48081     -5657.5129     -5483.6066      2601.2429      47983.717      96.071777    
     27090   865.48316     -5655.8177     -5484.0935      2924.9671      47980.693      96.17235     
     27100   855.84115     -5654.3752     -5484.5641      3224.6807      47978.492      96.247286    
     27110   869.19302     -5657.4836     -5485.0233      3115.6076      47977.376      96.320904    
     27120   877.41089     -5659.5938     -5485.5029      2873.5503      47977.159      96.397615    
     27130   871.32229     -5658.8961     -5486.0133      2817.7225      47977.523      96.464362    
     27140   874.765       -5660.1277     -5486.5618      2546.4682      47978.431      96.531118    
     27150   869.07692     -5659.5685     -5487.1312      2481.6363      47979.888      96.615991    
     27160   864.41149     -5659.2166     -5487.7049      2671.7389      47982.085      96.71006     
     27170   875.73841     -5662.0466     -5488.2876      2791.8641      47985.377      96.792117    
     27180   887.61015     -5665.0177     -5488.9031      2829.5205      47989.968      96.855912    
     27190   890.1842      -5666.2141     -5489.5888      2745.8331      47995.837      96.902726    
     27200   874.05098     -5663.7275     -5490.3033      2659.2321      48002.794      96.938408    
     27210   871.97237     -5664.0253     -5491.0135      2312.533       48010.527      96.982427    
     27220   849.92724     -5660.2965     -5491.6588      2300.8648      48018.597      97.046992    
     27230   845.11531     -5659.8962     -5492.2133      2226.5257      48026.815      97.125023    
     27240   845.74657     -5660.4807     -5492.6725      2093.9393      48035.156      97.200697    
     27250   839.59414     -5659.6355     -5493.048       2084.4206      48043.506      97.252032    
     27260   841.92501     -5660.4045     -5493.3546      1998.1144      48051.787      97.28281     
     27270   837.17164     -5659.7051     -5493.5982      2115.1454      48060.048      97.319893    
     27280   841.66249     -5660.7964     -5493.7985      2193.1207      48068.425      97.370623    
     27290   836.92526     -5660.0149     -5493.9569      2381.5417      48076.776      97.417671    
     27300   820.31843     -5656.8362     -5494.0733      2557.5734      48084.87       97.472853    
     27310   822.16644     -5657.2507     -5494.1211      2412.4319      48092.514      97.547372    
     27320   832.02478     -5659.1957     -5494.11        2041.1376      48099.427      97.631241    
     27330   817.28849     -5656.2155     -5494.0537      2259.4364      48105.327      97.71904     
     27340   805.2269      -5653.6989     -5493.9303      2748.8186      48110.301      97.817002    
     27350   830.39012     -5658.494      -5493.7327      2843.25        48114.645      97.919642    
     27360   846.67859     -5661.4845     -5493.4913      2949.8008      48118.651      98.019383    
     27370   851.75777     -5662.2817     -5493.2808      3182.5091      48122.698      98.117514    
     27380   861.33841     -5664.0168     -5493.115       3172.2367      48127.124      98.214789    
     27390   874.82666     -5666.6191     -5493.041       2948.601       48132.006      98.298327    
     27400   871.83461     -5666.075      -5493.0905      2658.7295      48137.147      98.381538    
     27410   864.12387     -5664.7196     -5493.2651      2315.5579      48142.205      98.460624    
     27420   853.36986     -5662.8765     -5493.5557      2084.6665      48146.976      98.530615    
     27430   827.0428      -5658.0029     -5493.9058      2128.3053      48151.514      98.598309    
     27440   812.13509     -5655.3984     -5494.2592      2255.5532      48156.046      98.665099    
     27450   819.90913     -5657.254      -5494.5723      2164.9303      48160.805      98.710166    
     27460   831.81145     -5659.9233     -5494.88        1961.3158      48165.791      98.721618    
     27470   834.09037     -5660.7133     -5495.2178      1926.1709      48170.821      98.715655    
     27480   838.60671     -5661.9917     -5495.6001      1882.9074      48175.733      98.698959    
     27490   846.89676     -5664.0959     -5496.0595      1749.6337      48180.39       98.679504    
     27500   853.47301     -5665.9662     -5496.6249      1654.5581      48184.69       98.675786    
     27510   854.27724     -5666.8367     -5497.3358      1783.4437      48188.651      98.701033    
     27520   833.84174     -5663.6023     -5498.1562      2222.6562      48192.52       98.74574     
     27530   819.94417     -5661.7057     -5499.017       2516.5795      48196.618      98.805754    
     27540   812.60164     -5661.0802     -5499.8484      2618.6011      48201.062      98.884769    
     27550   807.25868     -5660.7664     -5500.5947      2613.8339      48205.857      98.954995    
     27560   810.61202     -5662.0811     -5501.244       2590.4263      48211.115      99.003485    
     27570   802.14296     -5660.9312     -5501.7745      2674.1863      48217.019      99.049267    
     27580   802.82654     -5661.479      -5502.1867      2674.8377      48223.749      99.112107    
     27590   810.36715     -5663.2822     -5502.4938      2538.4106      48231.202      99.195049    
     27600   811.01872     -5663.6503     -5502.7325      2526.4418      48239.283      99.295366    
[...]
     48200   586.26085     -5707.1082     -5590.7856     -456.52042      50041.767      150.56072    
     48210   588.06481     -5707.2902     -5590.6097     -656.86665      50048.998      150.50139    
     48220   583.94375     -5706.234      -5590.3712     -776.20634      50052.405      150.4377     
     48230   582.43712     -5705.6188     -5590.0549     -879.449        50051.222      150.37761    
     48240   589.77654     -5706.6658     -5589.6457     -953.53547      50044.859      150.31263    
     48250   594.15193     -5707.0466     -5589.1584     -884.10103      50032.976      150.23366    
     48260   589.56409     -5705.5895     -5588.6115     -709.48842      50015.97       150.13414    
     48270   587.81789     -5704.6344     -5588.0029     -574.26025      49994.81       150.0141     
     48280   590.60991     -5704.5125     -5587.327      -443.30991      49970.38       149.88198    
     48290   590.17219     -5703.7042     -5586.6056     -285.33141      49943.476      149.74683    
     48300   590.53035     -5703.0374     -5585.8677     -178.01093      49914.986      149.61151    
     48310   600.28552     -5704.2528     -5585.1476     -248.09782      49885.472      149.46735    
     48320   607.85844     -5705.1017     -5584.4939     -315.41936      49854.647      149.31009    
     48330   606.2789      -5704.2429     -5583.9485     -221.15671      49822.234      149.14542    
     48340   605.80176     -5703.7126     -5583.5129     -57.51757       49788.731      148.98076    
     48350   612.72948     -5704.7435     -5583.1692      90.147384      49755.072      148.83038    
     48360   621.30046     -5706.2007     -5582.9258      143.91809      49722.052      148.69615    
     48370   616.4649      -5705.1042     -5582.7888      242.51699      49690.107      148.5746     
     48380   604.81711     -5702.729      -5582.7246      290.92334      49659.753      148.46177    
     48390   601.30555     -5702.001      -5582.6933      194.68912      49631.21       148.34744    
     48400   597.41952     -5701.2056     -5582.669       155.98598      49604.015      148.22787    
     48410   592.19965     -5700.1362     -5582.6353      215.53509      49577.952      148.10987    
     48420   590.64365     -5699.7762     -5582.5841      312.90471      49553.283      148.00563    
     48430   588.19667     -5699.1995     -5582.4928      459.25091      49530.588      147.92447    
     48440   598.3161      -5701.0851     -5582.3706      448.27193      49510.614      147.87055    
     48450   610.34946     -5703.3527     -5582.2506      403.57981      49493.337      147.84911    
     48460   612.98778     -5703.7899     -5582.1644      493.43034      49478.576      147.85652    
     48470   614.48848     -5704.0594     -5582.1361      496.57846      49466.67       147.87765    
     48480   611.24217     -5703.4442     -5582.165       495.00574      49457.688      147.89624    
     48490   608.58895     -5702.9886     -5582.2359      486.71305      49451.623      147.89817    
     48500   614.73216     -5704.3224     -5582.3507      366.15899      49448.325      147.87835    
     48510   612.92383     -5704.1364     -5582.5235      372.12671      49447.226      147.84798    
     48520   603.11904     -5702.4152     -5582.7477      531.95711      49448.367      147.82664    
     48530   598.1845      -5701.6802     -5582.9918      623.5595       49452.503      147.83709    
     48540   598.50922     -5701.9915     -5583.2387      584.77803      49460.144      147.8866     
     48550   602.69496     -5703.0784     -5583.4951      330.10311      49471.017      147.95769    
     48560   607.73438     -5704.3539     -5583.7707      97.112616      49483.825      148.03186    
     48570   612.20887     -5705.5712     -5584.1002     -14.842563      49497.249      148.09917    
     48580   605.56936     -5704.6403     -5584.4866      24.244738      49510.664      148.16309    
     48590   605.22061     -5705.0112     -5584.9268     -11.60149       49524.211      148.23809    
     48600   605.59469     -5705.5712     -5585.4125     -154.86024      49537.633      148.33871    
     48610   599.44958     -5704.8787     -5585.9393     -97.342335      49550.31       148.47197    
     48620   593.00433     -5704.1433     -5586.4828      2.314164       49562.435      148.62602    
     48630   589.65359     -5704.0122     -5587.0165      128.17459      49574.593      148.77636    
     48640   589.90009     -5704.5688     -5587.5242      144.99567      49587.424      148.91127    
     48650   590.68982     -5705.2035     -5588.0022      112.32767      49601.07       149.02714    
     48660   589.55065     -5705.4174     -5588.4421      16.116534      49615.309      149.11177    
     48670   588.63368     -5705.6404     -5588.847      -63.646184      49629.648      149.15538    
     48680   582.06253     -5704.6871     -5589.1976     -67.501579      49643.647      149.16608    
     48690   577.46743     -5704.0529     -5589.475      -23.593401      49657.284      149.16134    
     48700   578.89273     -5704.5319     -5589.6713     -28.641697      49670.753      149.1634     
     48710   577.79649     -5704.4282     -5589.7851     -15.506925      49684.066      149.19393    
     48720   580.67689     -5705.0391     -5589.8245      91.678512      49697.346      149.26366    
     48730   586.25969     -5706.1088     -5589.7864      226.66977      49711.166      149.3686     
     48740   588.96309     -5706.5526     -5589.6939      381.93067      49726.357      149.4948     
     48750   588.48983     -5706.3098     -5589.545       431.18125      49743.723      149.62971    
     48760   592.67249     -5706.9335     -5589.3388      313.13161      49763.512      149.76327    
     48770   588.65074     -5705.8564     -5589.0597      182.60999      49785.144      149.88729    
     48780   579.54361     -5703.6669     -5588.6771      73.600267      49807.905      150.00382    
     48790   586.54395     -5704.5018     -5588.1231     -276.25592      49831.024      150.11245    
     48800   598.18573     -5706.0396     -5587.3509     -736.8636       49852.501      150.21304    
     48810   596.18062     -5704.6608     -5586.37       -929.83571      49869.828      150.30674    
     48820   590.48887     -5702.3895     -5585.2281     -846.54904      49881.883      150.39472    
     48830   590.82559     -5701.2151     -5583.9868     -748.62383      49888.966      150.47675    
     48840   596.6974      -5701.1653     -5582.772      -752.77037      49891.621      150.54885    
     48850   607.75416     -5702.3108     -5581.7237     -760.36565      49889.878      150.59746    
     48860   607.93304     -5701.5472     -5580.9246     -579.80239      49883.767      150.61111    
     48870   606.33019     -5700.6632     -5580.3586     -307.94302      49874.265      150.58852    
     48880   611.24755     -5701.2382     -5579.9579     -16.022202      49862.932      150.54033    
     48890   616.46745     -5701.9962     -5579.6802      190.62299      49851.446      150.48831    
     48900   620.95086     -5702.7209     -5579.5154      205.06884      49840.943      150.44975    
     48910   621.41063     -5702.7513     -5579.4546     -14.991431      49831.443      150.42905    
     48920   615.94451     -5701.689      -5579.4768     -187.10276      49821.879      150.42367    
     48930   618.16207     -5702.2229     -5579.5707     -427.34561      49811.122      150.4247     
     48940   615.70487     -5701.8944     -5579.7297     -498.5768       49797.932      150.42702    
     48950   613.22311     -5701.6157     -5579.9435     -494.49024      49781.832      150.43236    
     48960   617.51713     -5702.7378     -5580.2136     -551.12782      49762.714      150.43576    
     48970   614.38691     -5702.454      -5580.5508     -563.78148      49740.238      150.42994    
     48980   604.12581     -5700.8035     -5580.9363     -428.38828      49714.431      150.41552    
     48990   599.45159     -5700.2732     -5581.3334     -329.7917       49685.958      150.39359    
     49000   597.89435     -5700.3501     -5581.7193     -254.85359      49655.396      150.3675     
     49010   599.66045     -5701.0752     -5582.094      -190.73735      49623.148      150.34579    
     49020   605.62427     -5702.6298     -5582.4652     -82.934878      49589.635      150.32501    
     49030   608.90519     -5703.6683     -5582.8528      62.766685      49555.499      150.30144    
     49040   605.17773     -5703.3457     -5583.2698      280.89632      49521.587      150.2815     
     49050   596.50754     -5702.0435     -5583.6878      472.11529      49489.075      150.26915    
     49060   595.53021     -5702.2522     -5584.0905      552.42005      49459.046      150.25348    
     49070   595.81542     -5702.6821     -5584.4638      660.92085      49432.098      150.21906    
     49080   591.14937     -5702.1021     -5584.8095      835.24141      49408.823      150.15979    
     49090   589.01681     -5701.9852     -5585.1159      942.45987      49390.152      150.08069    
     49100   592.30976     -5702.9048     -5585.382       900.79689      49376.711      149.99801    
     49110   595.13904     -5703.7061     -5585.6219      770.75916      49368.315      149.93611    
     49120   597.03896     -5704.3088     -5585.8478      626.00418      49364.311      149.91142    
     49130   596.175       -5704.3553     -5586.0657      490.32468      49363.883      149.92012    
     49140   590.71915     -5703.479      -5586.2719      441.96853      49366.32       149.949      
     49150   586.59834     -5702.8257     -5586.4362      341.49912      49371.31       149.98733    
     49160   587.97059     -5703.2194     -5586.5576      124.61946      49378.229      150.0225     
     49170   584.13564     -5702.5236     -5586.6227     -0.38653299     49385.981      150.04612    
     49180   586.02157     -5702.9077     -5586.6326     -130.88319      49393.746      150.05926    
     49190   589.4032      -5703.531      -5586.585      -100.28989      49400.931      150.06112    
     49200   597.91386     -5705.1277     -5586.493      -44.172272      49407.601      150.05588    
     49210   610.35463     -5707.4897     -5586.3866      44.763473      49414.113      150.06026    
     49220   619.19358     -5709.1652     -5586.3083      189.58126      49420.995      150.08537    
     49230   623.13663     -5709.9485     -5586.3093      348.1799       49429.076      150.1271     
     49240   618.80504     -5709.1882     -5586.4084      385.80269      49439.217      150.1776     
     49250   609.02483     -5707.4359     -5586.5967      298.20144      49451.635      150.22559    
     49260   601.78329     -5706.2552     -5586.8528      87.855779      49465.859      150.2563     
     49270   590.45062     -5704.2938     -5587.14       -52.403951      49480.834      150.27144    
     49280   587.57571     -5704.0122     -5587.4288     -146.17051      49495.713      150.28363    
     49290   590.43731     -5704.8607     -5587.7095     -157.50146      49509.988      150.30244    
     49300   595.18791     -5706.0842     -5587.9904     -99.93601       49523.571      150.33382    
     49310   596.75636     -5706.6984     -5588.2934      30.879762      49536.807      150.37438    
     49320   593.29872     -5706.3365     -5588.6176      61.584926      49550.329      150.41776    
     49330   592.41336     -5706.5002     -5588.9569     -46.088102      49564.322      150.45866    
     49340   591.31463     -5706.6394     -5589.3141     -139.29701      49578.284      150.48778    
     49350   587.02478     -5706.1509     -5589.6768     -234.59571      49591.646      150.50233    
     49360   580.76359     -5705.2548     -5590.0229     -233.04571      49603.872      150.50645    
     49370   580.69219     -5705.547      -5590.3293     -181.80234      49614.913      150.51043    
     49380   589.9219      -5707.649      -5590.6001     -52.025825      49625.108      150.52685    
     49390   594.03213     -5708.7209     -5590.8565      205.09026      49635.205      150.55628    
     49400   588.93704     -5707.9622     -5591.1086      515.87163      49646.681      150.59587    
     49410   586.70832     -5707.7585     -5591.3472      689.29569      49661.334      150.64613    
     49420   588.42473     -5708.3108     -5591.5589      668.55108      49680.139      150.70568    
     49430   588.30309     -5708.476      -5591.7482      606.20771      49703.106      150.77374    
     49440   585.8249      -5708.1438     -5591.9077      613.56095      49730.03       150.8504     
     49450   583.69959     -5707.8409     -5592.0266      634.10383      49760.971      150.93632    
     49460   588.882       -5708.9429     -5592.1002      532.91942      49796.061      151.0325     
     49470   593.8864      -5709.9646     -5592.129       296.75446      49834.743      151.14695    
     49480   597.54849     -5710.6897     -5592.1275     -98.711787      49875.6        151.2838     
     49490   593.76627     -5709.9148     -5592.1031     -385.21927      49916.541      151.43144    
     49500   585.84599     -5708.2837     -5592.0435     -528.5163       49955.886      151.57129    
     49510   587.15429     -5708.4265     -5591.9267     -674.23365      49992.648      151.6914     
     49520   592.44244     -5709.2875     -5591.7384     -718.68965      50026.013      151.7903     
     49530   600.97054     -5710.7428     -5591.5016     -810.32943      50055.499      151.87818    
     49540   604.0858      -5711.0936     -5591.2344     -763.85193      50080.616      151.95996    
     49550   600.43815     -5710.0909     -5590.9554     -640.57768      50101.544      152.02834    
     49560   594.24502     -5708.5569     -5590.6502     -565.09649      50118.911      152.07027    
     49570   589.66048     -5707.2861     -5590.289      -603.64174      50133.083      152.08309    
     49580   592.84739     -5707.4872     -5589.8578     -713.15801      50143.814      152.07193    
     49590   597.26832     -5707.8743     -5589.3677     -715.9645       50150.473      152.04063    
     49600   593.39667     -5706.5709     -5588.8325     -443.1392       50153.103      151.99783    
     49610   595.76232     -5706.4651     -5588.2573     -249.60328      50153.038      151.95367    
     49620   598.57876     -5706.412      -5587.6454     -86.938884      50151.499      151.90768    
     49630   597.48871     -5705.5745     -5587.0241     -15.484342      50149.402      151.85954    
     49640   598.3178      -5705.1211     -5586.4063     -158.17765      50147.121      151.81013    
     49650   601.92744     -5705.2394     -5585.8084     -423.87994      50143.846      151.75771    
     49660   596.44731     -5703.5837     -5585.2401     -508.82076      50138.124      151.70695    
     49670   589.18095     -5701.6018     -5584.6999     -510.6486       50129.312      151.66141    
     49680   594.07309     -5702.0435     -5584.1708     -572.14435      50117.346      151.61426    
     49690   600.61586     -5702.8389     -5583.6681     -694.5434       50101.814      151.56299    
     49700   602.34901     -5702.7286     -5583.214      -699.94696      50082.057      151.51465    
     49710   607.29223     -5703.3212     -5582.8257     -639.16265      50057.934      151.477      
     49720   608.98975     -5703.3354     -5582.5032     -471.55812      50029.849      151.44029    
     49730   609.26293     -5703.141      -5582.2545     -338.55361      49998.698      151.38491    
     49740   602.63945     -5701.6282     -5582.0559     -94.148776      49965.347      151.30662    
     49750   608.48228     -5702.6268     -5581.8952     -118.6502       49930.985      151.22289    
     49760   613.12845     -5703.4277     -5581.7743     -176.72777      49895.678      151.1421     
     49770   603.48484     -5701.4429     -5581.7028     -31.512785      49859.198      151.05467    
     49780   597.91888     -5700.2831     -5581.6474      136.27936      49822.324      150.95801    
     49790   603.94331     -5701.4275     -5581.5965      221.72567      49786.011      150.85899    
     49800   604.74402     -5701.5447     -5581.5548      388.45516      49750.919      150.76452    
     49810   608.72074     -5702.3108     -5581.5319      450.29824      49717.923      150.68152    
     49820   617.78568     -5704.1235     -5581.546       479.73876      49687.43       150.61588    
     49830   622.10326     -5705.061      -5581.6268      611.73016      49659.704      150.57524    
     49840   616.50017     -5704.1089     -5581.7864      845.00668      49635.544      150.56078    
     49850   614.90922     -5704.0159     -5582.0091      907.91551      49616.141      150.56502    
     49860   619.98461     -5705.3115     -5582.2977      818.09437      49601.912      150.57323    
     49870   624.46421     -5706.5764     -5582.6738      690.28775      49592.388      150.5772     
     49880   620.51151     -5706.2717     -5583.1534      679.11888      49586.903      150.58735    
     49890   610.35272     -5704.8094     -5583.7067      816.06967      49585.5        150.61679    
     49900   610.2868      -5705.3914     -5584.3017      777.27153      49588.695      150.66944    
     49910   608.34958     -5705.6169     -5584.9117      732.17272      49596.365      150.74709    
     49920   603.71536     -5705.2983     -5585.5126      716.91087      49608.291      150.85096    
     49930   603.09642     -5705.7429     -5586.08        588.32493      49624.283      150.98578    
     49940   600.97916     -5705.8385     -5586.5956      443.84542      49643.664      151.15035    
     49950   594.85477     -5705.0665     -5587.0388      300.71372      49665.596      151.33703    
     49960   591.63209     -5704.7761     -5587.3878      85.345886      49689.267      151.5377     
     49970   598.55874     -5706.4149     -5587.6523     -331.96443      49713.314      151.7363     
     49980   594.67592     -5705.8392     -5587.847      -659.47443      49735.462      151.90834    
     49990   591.12828     -5705.2705     -5587.9822     -882.10862      49753.801      152.03011    
     50000   593.92402     -5705.9084     -5588.0654     -958.92756      49767.071      152.10536    
Loop time of 7124.25 on 1 procs for 20000 steps with 1536 atoms

Performance: 0.243 ns/day, 98.948 hours/ns, 2.807 timesteps/s, 4.312 katom-step/s
126.2% CPU use with 1 MPI tasks x 1 OpenMP threads

MPI task timing breakdown:
Section |  min time  |  avg time  |  max time  |%varavg| %total
---------------------------------------------------------------
Pair    | 7064.6     | 7064.6     | 7064.6     |   0.0 | 99.16
Bond    | 0.0076138  | 0.0076138  | 0.0076138  |   0.0 |  0.00
Neigh   | 5.7723     | 5.7723     | 5.7723     |   0.0 |  0.08
Comm    | 0.66827    | 0.66827    | 0.66827    |   0.0 |  0.01
Output  | 51.564     | 51.564     | 51.564     |   0.0 |  0.72
Modify  | 1.532      | 1.532      | 1.532      |   0.0 |  0.02
Other   |            | 0.1453     |            |       |  0.00

Nlocal:           1536 ave        1536 max        1536 min
Histogram: 1 0 0 0 0 0 0 0 0 0
Nghost:           2509 ave        2509 max        2509 min
Histogram: 1 0 0 0 0 0 0 0 0 0
Neighs:              0 ave           0 max           0 min
Histogram: 1 0 0 0 0 0 0 0 0 0
FullNghs:        47852 ave       47852 max       47852 min
Histogram: 1 0 0 0 0 0 0 0 0 0

Total # of neighbors = 47852
Ave neighs/atom = 31.153646
Ave special neighs/atom = 0
Neighbor list builds = 2000
Dangerous builds = 2000
unfix           3

write_data      structure.end.data
System init for write_data ...
write_restart   structure.end
System init for write_restart ...
                    
Total wall time: 3:00:57
