LAMMPS (29 Sep 2021 - Update 3)
OMP_NUM_THREADS environment is not set. Defaulting to 1 thread. (src/comm.cpp:98)
  using 1 OpenMP thread(s) per MPI task
Reading data file ...
  orthogonal box = (0.0000000 0.0000000 0.0000000) to (15.969932 15.719106 81.083077)
  2 by 1 by 8 MPI processor grid
  reading atoms ...
  864 atoms
Finding 1-2 1-3 1-4 neighbors ...
  special bond factors lj:    0        0        0       
  special bond factors coul:  0        0        0       
     0 = max # of 1-2 neighbors
     0 = max # of 1-3 neighbors
     0 = max # of 1-4 neighbors
     1 = max # of special neighbors
  special bonds CPU = 0.002 seconds
  read_data CPU = 0.027 seconds
Neighbor list info ...
  update every 1 steps, delay 10 steps, check yes
  max neighbors/atom: 2000, page size: 100000
  master list distance cutoff = 6.22
  ghost atom cutoff = 6.22
  binsize = 3.11, bins = 6 6 27
  1 neighbor lists, perpetual/occasional/extra = 1 0 0
  (1) pair quip, perpetual
      attributes: full, newton on
      pair build: full/bin
      stencil: full/bin/3d
      bin: standard
Setting up Verlet run ...
  Unit style    : metal
  Current step  : 0
  Time step     : 0.001
Per MPI rank memory allocation (min/avg/max) = 8.888 | 8.903 | 8.913 Mbytes
Step Temp PotEng TotEng Press Volume c_msd[4] 
       0            0   -6930.8241   -6930.8241   -4495.9065    20354.533            0 
      10    65.904237   -6938.1841   -6930.8324   -5379.5912    20354.533 0.0005000384 
      20    168.73131   -6949.6632    -6930.841   -6364.5261    20354.533 0.0061479459 
      30    200.57733   -6953.2127    -6930.838   -5696.6671    20354.533  0.020662009 
      40    199.55606   -6953.0935   -6930.8327   -4580.1506    20354.533   0.03833664 
      50    226.88579   -6956.1474   -6930.8379   -4419.7801    20354.533  0.051806208 
      60    238.47957   -6957.4392   -6930.8365   -4645.7272    20354.533  0.061424452 
      70    236.06355   -6957.1692   -6930.8359    -4807.043    20354.533  0.069853138 
      80    232.99362   -6956.8259   -6930.8351    -5036.908    20354.533  0.079308594 
      90    234.23747   -6956.9654   -6930.8358   -5260.6038    20354.533  0.090830495 
     100    232.00556   -6956.7159   -6930.8353   -5208.0306    20354.533   0.10432197 
     110    232.79067   -6956.8033   -6930.8352   -5031.3164    20354.533   0.11840709 
     120    238.30149    -6957.419   -6930.8361   -4942.2097    20354.533   0.13201584 
     130    238.74514   -6957.4687   -6930.8363   -4988.8033    20354.533   0.14538478 
     140    232.54984   -6956.7771   -6930.8358   -4942.4536    20354.533   0.15867927 
     150    225.40044   -6955.9792   -6930.8355   -4787.8719    20354.533   0.17110203 
     160    224.38726   -6955.8659   -6930.8352   -4620.0724    20354.533    0.1817825 
     170    231.86358   -6956.7009   -6930.8362   -4442.3359    20354.533   0.19072597 
     180    237.58036   -6957.3391   -6930.8366   -4192.2572    20354.533   0.19889867 
     190    235.69365   -6957.1279    -6930.836   -3927.7806    20354.533   0.20710191 
     200    234.44619   -6956.9885   -6930.8356   -3773.8119    20354.533   0.21513007 
     210    236.73114   -6957.2437    -6930.836   -3777.5502    20354.533   0.22305549 
     220    238.14425   -6957.4012   -6930.8359   -3899.9101    20354.533    0.2315521 
     230     238.4388   -6957.4341   -6930.8359   -4006.5782    20354.533   0.24098695 
     240    239.23886    -6957.523   -6930.8356   -3984.7528    20354.533   0.25141959 
     250     242.0724   -6957.8401   -6930.8366   -3793.3442    20354.533   0.26265129 
     260       239.05   -6957.5024    -6930.836   -3540.3897    20354.533   0.27417391 
     270    235.84511    -6957.145   -6930.8361   -3272.6541    20354.533   0.28493922 
     280    231.62838   -6956.6748   -6930.8363   -2948.2435    20354.533   0.29437431 
     290    226.51317   -6956.1028    -6930.835   -2633.8875    20354.533   0.30220439 
     300    232.88912   -6956.8151    -6930.836   -2478.1682    20354.533   0.30835486 
     310    239.65399   -6957.5709   -6930.8371   -2317.7128    20354.533   0.31386348 
     320    236.98534   -6957.2718   -6930.8357   -2020.1819    20354.533   0.31985126 
     330    235.73864   -6957.1329   -6930.8359   -1957.4113    20354.533   0.32664959 
     340    236.09186   -6957.1723   -6930.8359   -2003.6376    20354.533   0.33435107 
     350    237.19352   -6957.2955   -6930.8363   -2145.8328    20354.533   0.34289663 
     360     235.6501   -6957.1226   -6930.8355   -2186.0282    20354.533   0.35153924 
     370      237.245   -6957.3009   -6930.8359   -2246.4379    20354.533   0.35886165 
     380     239.0727   -6957.5047   -6930.8358   -2396.5837    20354.533   0.36451066 
     390    241.64207   -6957.7913   -6930.8358   -2701.0958    20354.533   0.36907283 
     400    244.68963   -6958.1321   -6930.8366    -3058.184    20354.533   0.37340775 
     410    240.84575   -6957.7024   -6930.8357   -3233.9135    20354.533   0.37836011 
     420    237.91038    -6957.375   -6930.8357   -3296.1667    20354.533    0.3837999 
     430    237.53548   -6957.3335    -6930.836     -3297.92    20354.533   0.38923076 
     440    236.65311   -6957.2351   -6930.8361   -3132.9159    20354.533   0.39408345 
     450    236.54722   -6957.2227   -6930.8355   -2838.3736    20354.533   0.39819744 
     460    240.22636   -6957.6339   -6930.8363   -2750.9298    20354.533   0.40204023 
     470    240.52465   -6957.6669    -6930.836   -2995.4918    20354.533   0.40599969 
     480    237.66852   -6957.3482   -6930.8359   -3342.9489    20354.533   0.40967234 
     490     233.8587   -6956.9231   -6930.8358   -3484.3142    20354.533   0.41268728 
     500    232.08796   -6956.7258   -6930.8361   -3205.4816    20354.533   0.41521326 
     510    230.70203   -6956.5715   -6930.8364   -2716.5526    20354.533   0.41731564 
     520    228.05602   -6956.2759   -6930.8359   -2363.5724    20354.533   0.41870774 
     530    227.97164    -6956.267   -6930.8365   -2215.6832    20354.533   0.41939371 
     540    224.82248   -6955.9152   -6930.8359   -2142.5726    20354.533   0.41965215 
     550    224.12424   -6955.8368   -6930.8354   -2230.4398    20354.533   0.41896539 
     560    230.14975   -6956.5094   -6930.8358   -2549.6413    20354.533   0.41694428 
     570    236.18881   -6957.1833   -6930.8361   -2919.3179    20354.533   0.41431605 
     580    239.11248   -6957.5092   -6930.8358   -3311.7801    20354.533   0.41218239 
     590    240.41038    -6957.654   -6930.8359   -3417.9605    20354.533   0.41128732 
     600     241.9108   -6957.8213   -6930.8358   -3319.9933    20354.533   0.41181297 
     610    244.71998   -6958.1355   -6930.8366   -3218.6172    20354.533   0.41378595 
     620     241.0794   -6957.7291   -6930.8363   -3147.9995    20354.533   0.41727735 
     630    235.50013   -6957.1059   -6930.8355   -3135.0665    20354.533   0.42154918 
     640    235.11112   -6957.0634   -6930.8364   -3257.6948    20354.533   0.42544554 
     650    231.17765   -6956.6238   -6930.8356   -3363.2824    20354.533   0.42831027 
     660    230.96587      -6956.6   -6930.8354    -3278.616    20354.533   0.42962018 
     670    236.71051   -6957.2418   -6930.8364   -3057.6575    20354.533   0.43008462 
     680    237.89077   -6957.3735   -6930.8365   -2729.6334    20354.533   0.43147958 
     690    233.77068   -6956.9134    -6930.836   -2455.8007    20354.533   0.43467882 
     700    232.73214   -6956.7972   -6930.8356   -2458.1317    20354.533   0.43896836 
     710     238.6713   -6957.4612    -6930.837     -2772.14    20354.533   0.44306523 
     720    238.40713   -6957.4307    -6930.836    -2807.083    20354.533   0.44626276 
     730     240.4682   -6957.6606    -6930.836   -2649.5036    20354.533   0.44805059 
     740    245.36669   -6958.2082   -6930.8372   -2598.8991    20354.533   0.44927166 
     750    241.62154   -6957.7892    -6930.836   -2531.0184    20354.533   0.45180545 
     760    240.83361   -6957.7015   -6930.8361   -2663.8574    20354.533   0.45609454 
     770    242.81641   -6957.9232   -6930.8366   -2904.7405    20354.533   0.46149917 
     780    240.55873   -6957.6716   -6930.8369   -3011.4883    20354.533   0.46731331 
     790    234.48344    -6956.992    -6930.835   -2984.9723    20354.533   0.47270083 
     800    241.36903   -6957.7616   -6930.8365   -3043.6074    20354.533   0.47702973 
     810    248.02611   -6958.5044   -6930.8367   -3212.7271    20354.533   0.48113406 
     820    247.07524   -6958.3983   -6930.8367   -3298.0857    20354.533   0.48604281 
     830    241.62282   -6957.7892   -6930.8358   -3451.0521    20354.533   0.49200069 
     840    241.09937   -6957.7309   -6930.8359   -3767.5583    20354.533    0.4980224 
     850    243.86884   -6958.0407   -6930.8367   -3969.0277    20354.533   0.50315689 
     860    240.67295   -6957.6839   -6930.8364   -3878.9651    20354.533   0.50749313 
     870    234.88256   -6957.0377   -6930.8362   -3705.4216    20354.533   0.51123394 
     880     230.9712   -6956.6008   -6930.8356   -3732.8653    20354.533   0.51418617 
     890    234.71187   -6957.0191   -6930.8366   -3903.3458    20354.533   0.51649556 
     900    236.69755   -6957.2408   -6930.8368   -4096.5729    20354.533   0.51925856 
     910    234.14135   -6956.9543   -6930.8355   -4214.9524    20354.533   0.52270274 
     920     239.2214   -6957.5215    -6930.836    -4371.806    20354.533    0.5260843 
     930    246.23434   -6958.3046   -6930.8368   -4388.3174    20354.533   0.52947161 
     940    244.93011   -6958.1585   -6930.8361    -4140.633    20354.533    0.5331014 
     950    244.54566   -6958.1146   -6930.8351   -3874.4856    20354.533   0.53608506 
     960     253.5944   -6959.1267   -6930.8378   -3771.8165    20354.533   0.53803089 
     970     248.3829   -6958.5442   -6930.8367   -3524.3442    20354.533   0.53986141 
     980    238.35135   -6957.4243   -6930.8358   -3260.4338    20354.533   0.54101785 
     990    236.50322   -6957.2181   -6930.8358   -3175.8957    20354.533   0.54134372 
    1000    241.19481   -6957.7423   -6930.8367   -3304.4267    20354.533   0.54225539 
    1010    241.95562   -6957.8272   -6930.8367   -3391.2596    20354.533   0.54502288 
    1020    240.16869   -6957.6269   -6930.8357   -3447.0496    20354.533   0.54930268 
    1030    245.53617   -6958.2267   -6930.8368   -3456.4918    20354.533   0.55419445 
    1040    247.77076    -6958.476   -6930.8368   -3298.5887    20354.533   0.55950896 
    1050     244.2442   -6958.0816   -6930.8358   -3136.4369    20354.533   0.56417367 
    1060    244.98518   -6958.1647   -6930.8363    -3248.508    20354.533   0.56688242 
    1070    245.91228   -6958.2687   -6930.8368   -3519.1406    20354.533   0.56812185 
    1080    243.86214    -6958.039   -6930.8358   -3692.2455    20354.533   0.56934968 
    1090    246.84293   -6958.3726   -6930.8369   -3906.5524    20354.533   0.57178329 
    1100      244.881   -6958.1533   -6930.8365   -4089.2355    20354.533   0.57651628 
    1110    240.43499   -6957.6569    -6930.836   -4077.0823    20354.533    0.5832495 
    1120    237.92872   -6957.3775   -6930.8362   -4003.4461    20354.533   0.59023617 
    1130    236.51172   -6957.2189   -6930.8357   -4042.4172    20354.533   0.59550452 
    1140    238.96444   -6957.4936   -6930.8368   -4040.0227    20354.533   0.59831056 
    1150    235.78148   -6957.1379   -6930.8361   -3879.2914    20354.533   0.59921996 
    1160    234.20341   -6956.9615   -6930.8358   -3837.8249    20354.533    0.5985221 
    1170    240.41902   -6957.6544   -6930.8353    -3935.141    20354.533   0.59722217 
    1180    255.54411   -6959.3435   -6930.8372     -4092.55    20354.533   0.59743217 
    1190    258.99242   -6959.7285   -6930.8375   -4046.2257    20354.533    0.6011544 
    1200    248.88394   -6958.5986   -6930.8352   -3714.2841    20354.533   0.60762836 
    1210    248.47025   -6958.5542    -6930.837   -3470.6197    20354.533   0.61448368 
    1220    244.95446   -6958.1613   -6930.8363   -3177.7538    20354.533   0.62050251 
    1230     241.8534   -6957.8153   -6930.8362   -3046.6572    20354.533   0.62473384 
    1240    239.93171   -6957.6017    -6930.837   -2953.8402    20354.533   0.62763822 
    1250    233.26136   -6956.8559   -6930.8352   -2777.3686    20354.533   0.63038166 
    1260    237.93988   -6957.3787   -6930.8361   -2775.1391    20354.533    0.6330371 
    1270    246.35675   -6958.3182   -6930.8368   -2888.4422    20354.533   0.63643977 
    1280    248.45813   -6958.5525   -6930.8366   -2920.0425    20354.533   0.64183599 
    1290    245.47675   -6958.2198   -6930.8365   -2685.1116    20354.533   0.64908358 
    1300    241.63357   -6957.7906    -6930.836   -2354.7632    20354.533   0.65669456 
    1310    242.43427   -6957.8804   -6930.8365   -2080.8148    20354.533   0.66291632 
    1320    245.28186   -6958.1979   -6930.8364   -1915.3295    20354.533    0.6669735 
    1330    248.60459   -6958.5691   -6930.8369   -2012.6907    20354.533   0.66938419 
    1340    247.35187   -6958.4291   -6930.8367   -2148.5782    20354.533   0.67162517 
    1350    244.12194   -6958.0683   -6930.8361   -1975.6824    20354.533   0.67460298 
    1360    246.17117   -6958.2975   -6930.8367   -1695.7314    20354.533   0.67795806 
    1370    247.81913   -6958.4815   -6930.8369   -1406.6961    20354.533   0.68155459 
    1380    246.54204   -6958.3387   -6930.8366   -1365.9532    20354.533   0.68550067 
    1390    245.37096   -6958.2083   -6930.8368   -1609.7263    20354.533   0.68946972 
    1400    243.36629   -6957.9841   -6930.8362   -2040.6718    20354.533   0.69316197 
    1410    243.94371   -6958.0489   -6930.8367    -2492.182    20354.533   0.69632692 
    1420    241.91407   -6957.8222   -6930.8364   -2641.5513    20354.533   0.69908731 
    1430    240.29252    -6957.641   -6930.8361   -2738.6597    20354.533   0.70169952 
    1440    243.00906   -6957.9446   -6930.8366   -2920.7186    20354.533   0.70454594 
    1450    244.25454   -6958.0838   -6930.8369   -3048.4377    20354.533   0.70795341 
    1460    242.09952    -6957.843   -6930.8364   -2976.5792    20354.533   0.71130224 
    1470    243.45842   -6957.9943   -6930.8362   -3081.8274    20354.533    0.7132231 
    1480    250.70065   -6958.8033   -6930.8373   -3338.8349    20354.533   0.71370178 
    1490    252.18388   -6958.9685    -6930.837   -3376.1382    20354.533    0.7144344 
    1500    251.43885   -6958.8853   -6930.8369   -3315.8008    20354.533   0.71637247 
    1510    251.24938    -6958.864   -6930.8368   -3301.7557    20354.533   0.71942223 
    1520    249.70733   -6958.6922    -6930.837   -3282.0336    20354.533   0.72323431 
    1530    244.44696   -6958.1054    -6930.837   -3302.2244    20354.533   0.72763008 
    1540    236.75683   -6957.2464   -6930.8358   -3274.9713    20354.533    0.7323608 
    1550    237.57971   -6957.3389   -6930.8365   -3428.4116    20354.533   0.73683196 
    1560    241.15015   -6957.7371   -6930.8364   -3593.4236    20354.533   0.74115804 
    1570    245.97302   -6958.2754   -6930.8368   -3733.6516    20354.533   0.74547586 
    1580    248.38573   -6958.5448    -6930.837   -3697.1233    20354.533   0.74963233 
    1590    246.86432   -6958.3746   -6930.8366   -3466.8015    20354.533   0.75351214 
    1600     247.7118   -6958.4687    -6930.836   -3388.9239    20354.533   0.75677589 
    1610    253.82537   -6959.1519   -6930.8373    -3531.034    20354.533   0.75955216 
    1620    251.92871   -6958.9401   -6930.8371   -3648.0728    20354.533   0.76294914 
    1630    244.66821   -6958.1291    -6930.836   -3657.5504    20354.533   0.76703359 
    1640    244.28177   -6958.0866   -6930.8366   -3671.0399    20354.533   0.77099433 
    1650    244.83575   -6958.1483   -6930.8365   -3788.3144    20354.533   0.77508445 
    1660    246.40424   -6958.3232   -6930.8364    -3813.853    20354.533   0.77989624 
    1670     250.2724    -6958.755   -6930.8367   -3565.9239    20354.533   0.78529205 
    1680    252.16532   -6958.9666   -6930.8372   -3320.4462    20354.533   0.79034429 
    1690    248.06278   -6958.5083   -6930.8366    -3241.467    20354.533   0.79410211 
    1700    246.18953   -6958.2989   -6930.8361   -3435.3007    20354.533   0.79613512 
    1710    251.37963   -6958.8788   -6930.8371   -3765.1983    20354.533   0.79697816 
    1720    252.49637   -6959.0036   -6930.8373   -4015.6546    20354.533   0.79809077 
    1730    246.19105   -6958.2991   -6930.8361   -4012.8085    20354.533   0.80001418 
    1740    244.72061   -6958.1349   -6930.8359   -3836.2711    20354.533   0.80174398 
    1750    250.77886   -6958.8116   -6930.8368   -3664.5304    20354.533   0.80300604 
    1760    253.23106   -6959.0851   -6930.8368   -3574.9487    20354.533   0.80474848 
    1770     250.9182   -6958.8268   -6930.8365   -3643.0638    20354.533   0.80759401 
    1780    248.19059    -6958.522   -6930.8359    -3925.933    20354.533   0.81194222 
    1790    251.50586   -6958.8923   -6930.8365   -4358.7518    20354.533   0.81788965 
    1800    254.74644   -6959.2547   -6930.8373   -4555.0094    20354.533   0.82537267 
    1810    250.83969   -6958.8178   -6930.8362   -4276.5786    20354.533   0.83331392 
    1820     251.8855   -6958.9345   -6930.8362   -4012.9598    20354.533   0.83972246 
    1830      255.594   -6959.3496   -6930.8377   -3901.3718    20354.533   0.84445553 
    1840    246.70995   -6958.3569   -6930.8361   -3626.6691    20354.533   0.84851616 
    1850    241.86654   -6957.8157   -6930.8351   -3456.7016    20354.533   0.85180041 
    1860    250.43531   -6958.7737   -6930.8372    -3514.864    20354.533    0.8548436 
    1870    251.67809   -6958.9117   -6930.8366    -3317.435    20354.533   0.85904271 
    1880    249.74232   -6958.6953   -6930.8361   -2814.4162    20354.533   0.86408884 
    1890    251.03758   -6958.8407    -6930.837   -2598.2462    20354.533   0.86903478 
    1900    247.47063   -6958.4421   -6930.8364   -2762.2368    20354.533   0.87371783 
    1910    246.41436   -6958.3238   -6930.8359   -3170.3298    20354.533   0.87809892 
    1920    252.32808   -6958.9847   -6930.8371   -3481.0709    20354.533    0.8826292 
    1930    251.70282   -6958.9148    -6930.837   -3522.0143    20354.533   0.88826081 
    1940    246.41342   -6958.3234   -6930.8356   -3409.4835    20354.533   0.89502972 
    1950     251.5574   -6958.8983   -6930.8367   -3383.3627    20354.533   0.90192896 
    1960    256.70331    -6959.473   -6930.8374   -3284.7665    20354.533   0.90797257 
    1970    251.99325   -6958.9465   -6930.8363   -3170.8424    20354.533   0.91214044 
    1980    249.36931   -6958.6536    -6930.836    -3268.664    20354.533   0.91382089 
    1990    253.19383   -6959.0808   -6930.8367   -3484.4565    20354.533   0.91429439 
    2000    255.75062   -6959.3664    -6930.837   -3645.8324    20354.533   0.91593526 
Loop time of 1465.26 on 16 procs for 2000 steps with 864 atoms

Performance: 0.118 ns/day, 203.508 hours/ns, 1.365 timesteps/s
97.5% CPU use with 16 MPI tasks x 1 OpenMP threads

MPI task timing breakdown:
Section |  min time  |  avg time  |  max time  |%varavg| %total
---------------------------------------------------------------
Pair    | 669.33     | 1181.3     | 1456.3     | 594.9 | 80.62
Bond    | 0.00014138 | 0.00059104 | 0.0013354  |   0.0 |  0.00
Neigh   | 0.01792    | 0.02782    | 0.03608    |   3.5 |  0.00
Comm    | 8.7644     | 265.5      | 752.49     |1209.6 | 18.12
Output  | 0.13054    | 9.3454     | 22.018     | 278.0 |  0.64
Modify  | 0.008373   | 0.01063    | 0.012677   |   1.0 |  0.00
Other   |            | 9.038      |            |       |  0.62

Nlocal:        54.0000 ave          71 max          39 min
Histogram: 3 2 1 1 0 4 1 0 3 1
Nghost:        497.125 ave         591 max         387 min
Histogram: 1 2 1 1 1 3 2 1 2 2
Neighs:         0.00000 ave           0 max           0 min
Histogram: 16 0 0 0 0 0 0 0 0 0
FullNghs:      2382.00 ave        3956 max        1259 min
Histogram: 3 2 2 0 2 3 1 1 1 1

Total # of neighbors = 38112
Ave neighs/atom = 44.111111
Ave special neighs/atom = 0.0000000
Neighbor list builds = 199
Dangerous builds = 198
Setting up Verlet run ...
  Unit style    : metal
  Current step  : 2000
  Time step     : 0.001
Per MPI rank memory allocation (min/avg/max) = 8.897 | 8.905 | 8.914 Mbytes
Step Temp PotEng TotEng Press Volume c_msd[4] 
    2000        787.5   -6959.3664   -6871.5196   -533.11008    20354.533   0.91593526 
    2010    697.92789   -6949.3463   -6871.4914    1346.2293    20354.415   0.92768779 
    2020    561.04525   -6933.8953   -6871.3099    4056.2849    20356.179   0.94869102 
    2030    516.91815   -6928.5202   -6870.8572    4755.8687    20363.063   0.96626892 
    2040     504.5668   -6926.3561   -6870.0709    4424.4241    20376.149    0.9790612 
    2050     488.3665   -6923.5577   -6869.0797    3901.3417    20395.109   0.99055281 
    2060     482.2229   -6921.8951   -6868.1024    3262.7065    20419.287    1.0024504 
    2070    512.86309   -6924.4228   -6867.2122    2588.3005    20447.852    1.0153568 
    2080     526.8168   -6925.1069   -6866.3397    2518.2577    20480.003    1.0311453 
    2090    506.88293   -6921.9943   -6865.4508    2646.2158    20515.607    1.0490675 
    2100    520.97566   -6922.5867   -6864.4711    1806.1572    20554.676    1.0649669 
    2110    538.77689   -6923.4235   -6863.3222    924.77765    20596.206    1.0786323 
    2120    533.58079   -6921.6099   -6862.0881    231.30062    20638.983    1.0916658 
    2130    534.42871   -6920.4261   -6860.8098   -612.04619    20681.977    1.1047053 
    2140    532.36755   -6918.8729   -6859.4865   -1237.6563    20724.035     1.118829 
    2150    526.78975   -6916.9044   -6858.1402   -1490.6082    20764.271    1.1338836 
    2160    523.13663    -6915.129   -6856.7723   -1776.4376    20802.231    1.1488885 
    2170    534.72888   -6915.0129   -6855.3631   -1830.2906    20837.531    1.1635643 
    2180     546.4333   -6914.8662   -6853.9107   -1513.2344    20870.105    1.1792091 
    2190     569.9057   -6916.0014   -6852.4276   -1436.7636    20900.292    1.1967231 
    2200    578.40605   -6915.4328   -6850.9108   -1461.4693    20928.214    1.2174902 
    2210      567.789   -6912.7559   -6849.4182   -1746.1209    20953.809     1.239845 
    2220     575.4266   -6912.1112   -6847.9215   -2600.6871    20976.628    1.2597133 
    2230    592.05071   -6912.4186   -6846.3744   -3281.5641     20995.59    1.2760493 
    2240    606.76963   -6912.4866   -6844.8006   -3499.8628    21009.797    1.2891491 
    2250    605.48125   -6910.7682   -6843.2259   -2827.1991    21019.054    1.2993889 
    2260    606.40639   -6909.3077   -6841.6621   -1927.1079    21024.264    1.3070751 
    2270    615.84489   -6908.7773   -6840.0789   -1390.7472    21026.661    1.3131607 
    2280    619.42938   -6907.5922   -6838.4939   -891.81223    21027.088    1.3196362 
    2290    619.00972   -6905.9745    -6836.923   -705.93518    21026.233    1.3267571 
    2300    620.58207   -6904.5879    -6835.361   -1043.1689    21024.353     1.333907 
    2310    624.48276   -6903.4552   -6833.7932   -1481.4916    21021.043     1.340572 
    2320    644.17859   -6904.0668   -6832.2077   -1583.7956    21015.753    1.3468724 
    2330    665.86662   -6904.8626   -6830.5841   -1239.7988    21008.381    1.3553122 
    2340    662.73337   -6902.8923   -6828.9634   -225.31706    20999.501    1.3679601 
    2350     655.5899   -6900.5028   -6827.3708    539.13734    20990.432    1.3832337 
    2360    661.62189   -6899.5798   -6825.7749     598.8395    20982.206     1.398265 
    2370    674.16513   -6899.3743   -6824.1702    168.99698    20974.903     1.412924 
    2380    690.80044   -6899.6154   -6822.5556   -4.8790389    20968.017    1.4298223 
    2390    708.90273   -6900.0124   -6820.9332    67.677136    20961.262     1.450448 
    2400    698.98279   -6897.3202   -6819.3476     982.6557    20954.852    1.4725007 
    2410    691.04248   -6894.9025   -6817.8157    1645.8761    20949.894    1.4915726 
    2420    705.08802     -6894.94   -6816.2864    1680.0206    20947.241    1.5074786 
    2430    713.78101    -6894.365   -6814.7417    1451.5446    20946.948    1.5231218 
    2440     703.3176   -6891.6757   -6813.2195    1370.7175    20948.713    1.5397534 
    2450    707.38467   -6890.6279    -6811.718    1225.2049    20952.332    1.5570804 
    2460     711.3609   -6889.5596   -6810.2062    1161.3954    20957.599    1.5737495 
    2470    719.90939   -6889.0118   -6808.7048    1164.9648    20964.389    1.5864948 
    2480    752.58256   -6891.1507    -6807.199    1293.6979    20972.701    1.5952588 
    2490    787.95744   -6893.6067   -6805.7089    1449.1691    20982.654    1.6036107 
    2500    790.09336   -6892.4454   -6804.3093    1630.9033    20994.427    1.6139369 
    2510    786.42963   -6890.7581   -6803.0307    1445.0137    21008.207    1.6254991 
    2520    775.17147   -6888.3056   -6801.8341    1203.1525    21023.764    1.6376987 
    2530     768.6763   -6886.4385   -6800.6915    919.64742    21040.729    1.6508139 
    2540    781.02243   -6886.6935   -6799.5693     618.1425    21058.685    1.6649485 
    2550    786.72993   -6886.2302   -6798.4693    596.48765     21077.22    1.6807335 
    2560     787.3799   -6885.2544    -6797.421    793.36271      21096.3    1.6988882 
    2570    786.09806   -6884.1111   -6796.4207    720.40775    21116.143    1.7196371 
    2580     781.7211   -6882.6619   -6795.4597    220.86497    21136.614    1.7419534 
    2590    768.06234    -6880.199   -6794.5205   -246.18134    21157.066    1.7649595 
    2600    758.48265   -6878.1941   -6793.5842   -679.73521    21176.814    1.7873611 
    2610    771.35994   -6878.6709   -6792.6245   -830.33357    21195.294     1.807526 
    2620     778.6974   -6878.5109    -6791.646    -414.8792    21212.369      1.82456 
    2630    798.28399   -6879.7322   -6790.6824   -11.632441    21228.545    1.8390548 
    2640    807.75915   -6879.8605   -6789.7537    269.39839    21244.414    1.8535134 
    2650    813.48585   -6879.6412   -6788.8956    37.185583    21260.339    1.8703189 
    2660        816.2   -6879.1577   -6788.1094    -394.5341    21276.011    1.8911392 
    2670    809.97574   -6877.7557   -6787.4017   -278.83472    21290.936    1.9151846 
    2680    801.80167   -6876.2058   -6786.7637   -1.7204027    21305.247    1.9379797 
    2690    807.35518   -6876.2314   -6786.1697   -83.078005    21319.264    1.9577938 
    2700    805.21447   -6875.4347   -6785.6118   -19.518955    21332.955    1.9756505 
    2710    817.10327   -6876.2556   -6785.1065    76.815875    21346.405    1.9910364 
    2720    819.50662   -6876.0835   -6784.6663   -74.944733    21359.708    2.0037103 
    2730    818.70828   -6875.6292   -6784.3011   -552.22023    21372.643    2.0134155 
    2740    831.16174   -6876.7339   -6784.0166    -1088.434     21384.56     2.021718 
    2750    822.23227   -6875.5431   -6783.8219    -1243.816    21394.787    2.0340641 
    2760    804.73668   -6873.4749   -6783.7053   -1638.8315    21403.023    2.0523643 
    2770    806.89625   -6873.6417   -6783.6312   -1902.1048    21408.803    2.0738349 
    2780    825.58307   -6875.6997   -6783.6047   -2079.3508    21411.744    2.0947779 
    2790     836.0917   -6876.9383    -6783.671   -1920.9084    21411.667    2.1149636 
    2800    825.55556   -6875.9415   -6783.8496   -1286.9359     21408.87    2.1338531 
    2810     824.2501   -6876.0582   -6784.1118   -775.61126    21404.237    2.1485182 
    2820    840.45688   -6878.2265   -6784.4722   -513.71603    21398.517    2.1622939 
    2830    821.42833   -6876.5773   -6784.9458    254.52581     21392.23    2.1833729 
    2840    791.12877   -6873.7195   -6785.4679    468.63834    21386.322    2.2101711 
    2850     799.9592   -6875.2383   -6786.0017    206.04859    21381.115    2.2360502 
    2860     818.1485   -6877.8382   -6786.5725   -15.593818    21376.274    2.2585461 
    2870    808.25268   -6877.3653   -6787.2035     339.3239    21371.569    2.2785745 
    2880    797.09655   -6876.7798   -6787.8624    421.70188    21367.388    2.2955156 
    2890    809.22151   -6878.8178   -6788.5479   -109.21621     21363.79    2.3110689 
    2900    810.94201   -6879.7402   -6789.2784   -153.73395    21360.161    2.3312279 
    2910    791.10907   -6878.2771   -6790.0277   -89.304685     21356.38     2.360094 
    2920    798.10647   -6879.8073   -6790.7774   -662.17341    21352.425    2.3954181 
    2930    807.62183    -6881.635   -6791.5436   -1201.2741    21347.562    2.4311819 
    2940    809.07669   -6882.5994   -6792.3457   -1502.7637    21341.035    2.4624905 
    2950    805.06881    -6882.981   -6793.1744   -1687.5268    21332.419    2.4890853 
    2960    806.12504   -6883.9582   -6794.0337   -1564.5161    21321.504    2.5122088 
    2970    785.00772   -6882.4554   -6794.8866   -868.85487    21308.522    2.5331968 
    2980    773.01673   -6881.9173   -6795.6862   -3.0649458    21294.432    2.5513805 
    2990    776.01089   -6882.9968   -6796.4316    370.52154    21280.414    2.5656605 
    3000    764.84524    -6882.446   -6797.1264    406.95648    21267.027    2.5760049 
    3010    732.94243    -6879.496   -6797.7352    517.73403    21254.349    2.5852129 
    3020    715.13691   -6877.9763   -6798.2017    712.84121    21242.523    2.5946239 
    3030    724.58473   -6879.3496   -6798.5211     952.9061    21231.821    2.6029689 
    3040    727.78943   -6879.8929   -6798.7069    1296.0705    21222.595    2.6091145 
    3050    745.88871   -6881.9869   -6798.7819    1230.5621    21215.254    2.6116036 
    3060    768.91307   -6884.5546   -6798.7812    914.36686    21209.695    2.6124938 
    3070    761.88631   -6883.7175   -6798.7279    1091.8117    21205.545    2.6177556 
    3080    737.34367   -6880.8692   -6798.6174    1742.3742    21203.049    2.6286236 
    3090    720.96983   -6878.8302    -6798.405    1983.4297    21202.994    2.6397296 
    3100     747.0272   -6881.3993   -6798.0673    1708.9796    21205.721    2.6490179 
    3110    761.03132   -6882.5113   -6797.6171    1422.7881    21210.876     2.659567 
    3120    753.08837   -6881.1129   -6797.1048    1351.8824    21218.073    2.6713791 
    3130    750.28796   -6880.2337   -6796.5379    1102.0706    21227.136    2.6821604 
    3140    753.90225   -6880.0093   -6795.9103    846.59859    21237.731    2.6896049 
    3150     759.0177   -6879.8892   -6795.2196    678.72402    21249.492    2.6934973 
    3160    755.52691   -6878.7554   -6794.4753    659.75452    21262.182    2.6945651 
    3170     777.2599   -6880.3942   -6793.6897     226.7937    21275.704     2.693292 
    3180    802.00008   -6882.3382   -6792.8739   -594.12326    21289.431    2.6965208 
    3190    813.87803   -6882.8817   -6792.0924    -1084.399    21302.263    2.7117313 
    3200    806.35303    -6881.328   -6791.3781   -1140.8736    21313.514    2.7381235 
    3210    797.23707   -6879.6658   -6790.7328   -952.38694    21323.065    2.7693612 
    3220     783.9677   -6877.5871   -6790.1343   -635.18871    21331.192    2.7987719 
    3230    786.71688   -6877.3157   -6789.5562   -476.19371    21338.322    2.8219452 
    3240    802.79815   -6878.5298   -6788.9764   -189.65585    21344.712    2.8410792 
    3250    812.99925   -6879.1171   -6788.4258    302.90002    21350.818    2.8618592 
    3260    817.55924   -6879.1275   -6787.9276     178.9553     21357.24    2.8873206 
    3270    816.29912   -6878.5555   -6787.4961   -267.72154    21363.831    2.9165757 
    3280    806.04848   -6877.0477   -6787.1318   -134.58228    21370.068    2.9472789 
    3290    798.08963   -6875.8415   -6786.8134   -28.570213    21376.046    2.9755132 
    3300    804.12647   -6876.2243   -6786.5228    -153.9806    21381.903    2.9997801 
    3310    808.97229   -6876.5082   -6786.2661    63.967681    21387.556    3.0226602 
    3320    798.45343   -6875.1362   -6786.0676    672.70808    21393.304    3.0461642 
    3330    775.07569   -6872.3572   -6785.8964    1434.0687    21400.021    3.0697432 
    3340     792.4582   -6874.1189    -6785.719    1086.7711     21408.62    3.0912529 
    3350    801.44584   -6874.9412   -6785.5387    810.51518    21418.761    3.1141759 
    3360    779.42264   -6872.3183   -6785.3725    1108.5879    21430.092     3.140731 
    3370    789.25783   -6873.2564   -6785.2135    907.32835    21442.875     3.167554 
    3380    792.29678   -6873.4351   -6785.0532    678.48405    21456.876    3.1951399 
    3390    785.77726   -6872.5513   -6784.8966    795.15096     21471.81    3.2232035 
    3400    799.70386   -6873.9399   -6784.7318    618.88006     21487.74    3.2514219 
    3410    808.27727   -6874.7398   -6784.5753     606.0025    21504.488    3.2806783 
    3420    806.35127   -6874.4111   -6784.4614    432.49061    21521.966     3.310334 
    3430    808.45596   -6874.5809   -6784.3964    188.31362    21539.943     3.336548 
    3440    820.25407   -6875.8844   -6784.3838   -265.01022     21558.03    3.3587446 
    3450    828.29024   -6876.8518   -6784.4547   -896.65967    21575.536    3.3825949 
    3460    804.12973    -6874.307   -6784.6051   -1413.6145    21591.593    3.4106976 
    3470    790.10255   -6872.9294   -6784.7923   -1975.0275    21605.408    3.4406528 
    3480    781.53037   -6872.1615   -6784.9806   -2229.1612    21616.216    3.4727463 
    3490    780.56015     -6872.24   -6785.1674   -2515.4339    21623.594    3.5076059 
    3500    764.35636   -6870.5878   -6785.3227   -2323.8978    21627.254    3.5427152 
    3510    777.23913    -6872.145   -6785.4428   -2326.1396      21627.4    3.5743212 
    3520     787.3155    -6873.375   -6785.5488   -2291.9477    21624.119    3.6037266 
    3530    768.13763   -6871.3321   -6785.6452   -2020.8179    21617.523     3.629983 
    3540    769.26031   -6871.5254   -6785.7133   -1953.9191    21607.974    3.6486438 
    3550    788.90623    -6873.753   -6785.7494   -2136.5951     21595.59    3.6601632 
    3560    799.62324   -6874.9741   -6785.7749   -1800.3338    21580.264    3.6696423 
    3570    795.61072   -6874.5676    -6785.816   -1275.7864    21562.445    3.6822537 
    3580    797.74882   -6874.8648   -6785.8747   -695.13666    21542.958    3.6998783 
    3590     804.7324   -6875.7355   -6785.9664   -288.90826    21522.629    3.7199909 
    3600    791.51504   -6874.3751   -6786.0804    188.91315    21502.124    3.7356207 
    3610     799.9128   -6875.4481   -6786.2166    172.04732    21482.051    3.7430988 
    3620    800.79012   -6875.7091   -6786.3798    398.41644    21462.484    3.7476748 
    3630    796.65895   -6875.4382   -6786.5697    921.04152    21443.737    3.7546565 
    3640     787.0042   -6874.5668   -6786.7753    1371.1986    21426.514    3.7682749 
    3650    770.20581   -6872.8868   -6786.9691    1782.4035    21411.474    3.7880729 
    3660    766.44421   -6872.6299   -6787.1319    1830.2008    21399.133    3.8076413 
    3670    757.24554   -6871.7176   -6787.2457    1531.7744    21389.539    3.8222865 
    3680     768.2786   -6873.0095   -6787.3069    1084.8802    21382.253    3.8331783 
    3690    797.65988   -6876.3203   -6787.3402    881.82081    21376.637    3.8461729 
    3700    799.42312   -6876.5665   -6787.3896    1322.5565    21372.441    3.8649429 
    3710    786.22001   -6875.1608   -6787.4567    1900.5703    21370.224    3.8843367 
    3720    809.90409   -6877.8935   -6787.5475    1963.0602    21370.712    3.8999699 
    3730    819.59609   -6879.1171     -6787.69    1657.8057    21374.004    3.9186147 
    3740    787.76445   -6875.7668   -6787.8905    1418.7446     21379.71    3.9441495 
    3750    771.93477   -6874.2074   -6788.0969    802.34476      21387.4    3.9696001 
    3760    766.77564   -6873.8033   -6788.2683    115.16722    21396.215     3.990595 
    3770    751.99226   -6872.2695   -6788.3836   -79.223779    21405.224    4.0070501 
    3780    759.64981   -6873.1713   -6788.4312   -117.36265     21414.11    4.0184211 
    3790    781.68737   -6875.6248   -6788.4264   -494.78669    21422.738    4.0288123 
    3800    778.72895   -6875.2622   -6788.3938   -117.17394    21430.744    4.0458816 
    3810    775.67604   -6874.8766   -6788.3487    419.17407    21438.589    4.0699259 
    3820    771.24418   -6874.3119   -6788.2784    434.52058    21446.961    4.0960219 
    3830    760.30689    -6872.982   -6788.1687    294.71834    21455.954    4.1187723 
    3840    771.66138   -6874.0842   -6788.0042   -158.39374    21465.309    4.1328076 
    3850     794.5604   -6876.4337   -6787.7993   -454.58537    21474.429    4.1369226 
    3860    804.02762   -6877.2893   -6787.5988   -297.23811    21482.929    4.1382886 
    3870    801.26886   -6876.8118    -6787.429    92.675095    21491.021    4.1445747 
    3880    806.75631   -6877.2902   -6787.2953   -181.67604     21499.14    4.1568292 
    3890     796.1948   -6876.0098    -6787.193   -487.62545    21506.994     4.172813 
    3900    787.28234   -6874.9376   -6787.1151   -559.42208    21514.164    4.1882819 
    3910    784.13527   -6874.5087   -6787.0372   -751.18307    21520.495    4.1995872 
    3920     777.8511   -6873.7186   -6786.9481   -945.49175    21525.737    4.2062011 
    3930    785.85324    -6874.508   -6786.8449    -870.0449    21529.627    4.2105538 
    3940    788.25303   -6874.6646   -6786.7338   -591.11088    21532.251    4.2170207 
    3950    773.97411   -6872.9533   -6786.6153   -277.22687    21534.033     4.229258 
    3960    785.77878   -6874.1329   -6786.4781   -754.08634    21535.293    4.2448315 
    3970    806.76278   -6876.3284   -6786.3328   -1132.0088    21535.471    4.2636288 
    3980    805.35678   -6876.0603   -6786.2215   -937.27944    21534.057    4.2852834 
    3990     784.7495   -6873.6825   -6786.1425    -316.7414    21531.311    4.3042541 
    4000     786.5201   -6873.8027   -6786.0652   -117.58961    21528.028    4.3145329 
    4010    789.72646   -6874.0796   -6785.9844    197.99297    21524.588    4.3176197 
    4020    774.88078   -6872.3381    -6785.899    917.10936    21521.489    4.3220209 
    4030    772.13868   -6871.9272    -6785.794    1358.7988    21519.704    4.3304344 
    4040    763.37998   -6870.8067   -6785.6505    1562.5557    21519.905     4.343153 
    4050    755.78057   -6869.7668   -6785.4584    1317.0027    21522.357     4.361772 
    4060    753.30592    -6869.226   -6785.1936    901.93052    21526.764    4.3858127 
    4070    787.91313   -6872.7559    -6784.863    140.69899    21532.478    4.4107259 
    4080    794.61576    -6873.144   -6784.5034   -374.07588    21538.461    4.4350949 
    4090    775.72304    -6870.688   -6784.1549   -619.10787    21543.938    4.4563819 
    4100       785.71   -6871.4404   -6783.7933   -1015.4169    21548.515    4.4690972 
    4110    815.90222   -6874.4367   -6783.4216   -1417.9833    21551.615    4.4728138 
    4120    819.61251   -6874.5255   -6783.0965   -1283.3076    21552.701    4.4730279 
    4130    802.72713   -6872.3926   -6782.8472   -678.28112     21551.95    4.4717544 
    4140    787.87217   -6870.5224    -6782.634    32.109184    21550.231    4.4672813 
    4150    803.45867   -6872.0601   -6782.4331   -58.478471    21548.448     4.463611 
    4160    807.38996   -6872.3223   -6782.2567   -411.12244    21546.535    4.4670844 
    4170    801.39493   -6871.5162   -6782.1193    -470.7447    21544.048    4.4766894 
    4180    812.63016    -6872.669   -6782.0189     -459.883     21540.86     4.488045 
    4190    822.75833   -6873.7596   -6781.9797   -417.55731    21536.967    4.4984748 
    4200    803.86581   -6871.6817   -6782.0092    -266.2378    21532.459    4.5081589 
    4210    798.72726   -6871.1905   -6782.0913    -426.9823    21527.491    4.5172181 
    4220    795.55714    -6870.942   -6782.1964   -450.21807    21521.892    4.5275706 
    4230    800.39927   -6871.6133   -6782.3275   -611.45174    21515.575    4.5412608 
    4240    808.08746   -6872.6409   -6782.4975   -1028.0367    21508.278    4.5595256 
    4250    796.03565   -6871.5074   -6782.7084    -1097.961    21499.468     4.582113 
    4260    789.65003   -6871.0301   -6782.9434   -875.28303    21489.003    4.6053819 
    4270     799.2899   -6872.3544   -6783.1924   -302.54448    21477.239    4.6249912 
    4280     810.7578   -6873.9181   -6783.4768    65.935238    21464.948    4.6398981 
    4290    811.49713   -6874.3386   -6783.8148    97.832851    21452.648    4.6532575 
    4300    806.80476   -6874.2183    -6784.218  -0.85259344    21440.402    4.6655282 
    4310    791.32311   -6872.9324   -6784.6591     35.04266    21428.122    4.6744389 
    4320    783.75059   -6872.5429   -6785.1143   -89.849961    21415.797    4.6791711 
    4330    772.87046   -6871.7629    -6785.548    254.18268     21403.34    4.6813051 
    4340    775.09943   -6872.4067   -6785.9431    940.80427    21391.229    4.6834249 
    4350    793.58656   -6874.8389   -6786.3131    1689.8564    21380.436    4.6894157 
    4360    808.24478    -6876.854    -6786.693    2210.5432    21372.026     4.702104 
    4370    794.99528   -6875.7939    -6787.111    2332.6357    21366.762    4.7217776 
    4380    779.93154    -6874.536   -6787.5334    1788.2287    21364.794    4.7426804 
    4390    781.53554     -6875.11   -6787.9285      1112.08    21365.428    4.7596376 
    4400    784.43886   -6875.8047   -6788.2994    934.49085    21367.777    4.7738954 
    4410    771.69473   -6874.7405   -6788.6568    860.90774    21371.518    4.7858847 
    4420    754.38869   -6873.1167   -6788.9635    516.94236    21376.516     4.793697 
    4430    765.53568   -6874.6091   -6789.2125   -213.72062    21382.229    4.8001095 
    4440    764.67646   -6874.7088    -6789.408   -543.74095    21387.718    4.8091514 
    4450    754.43104   -6873.7092   -6789.5513   -792.82013    21392.464    4.8198591 
    4460    753.43274   -6873.6783   -6789.6318   -1253.3963    21396.041    4.8298556 
    4470    755.37848   -6873.9023   -6789.6387   -1557.3643    21397.816    4.8382452 
    4480    754.59862   -6873.7531   -6789.5765   -1395.7586    21397.385    4.8470713 
    4490    761.47853   -6874.3809   -6789.4368   -1236.7717    21394.907    4.8569719 
    4500     784.7265   -6876.7708   -6789.2334   -1283.1584    21390.597    4.8703148 
    4510    798.86762    -6878.125   -6789.0101   -1267.6868     21384.42    4.8855124 
    4520    803.15936   -6878.3907   -6788.7971   -977.97311    21376.445    4.8971943 
    4530    806.60841   -6878.5867   -6788.6083   -977.80347    21366.983    4.9061599 
    4540    795.30059   -6877.1677   -6788.4507   -928.14134    21356.087    4.9136024 
    4550    765.04169   -6873.6397   -6788.2982   -484.44603    21343.879    4.9203842 
    4560    759.23384   -6872.7911   -6788.0974    -71.57053    21330.947    4.9278426 
    4570    788.29611   -6875.7629   -6787.8272    129.95202    21317.863    4.9414008 
    4580    809.14487   -6877.7878   -6787.5265    600.97129    21304.977    4.9619075 
    4590    786.42355   -6874.9543   -6787.2276    1560.8025    21293.017    4.9833006 
    4600    788.04442   -6874.8327   -6786.9252    2016.5008    21283.223    4.9996049 
    4610    793.62937    -6875.124   -6786.5934    2155.1765    21276.303    5.0070565 
    4620    789.11396    -6874.277   -6786.2502    1993.2031    21272.452    5.0062935 
    4630     796.1912   -6874.7136   -6785.8973    1538.6194    21271.451    5.0019499 
    4640    801.33856   -6874.9237   -6785.5332    1233.8919    21272.707    4.9988521 
    4650    779.67625   -6872.1382   -6785.1641     1646.143    21275.877    4.9989143 
    4660    777.93797   -6871.5509   -6784.7707    1711.9363    21281.392    4.9994553 
    4670    786.02118    -6872.009   -6784.3272    1572.7484    21289.394    4.9985655 
    4680    772.55361   -6870.0189   -6783.8394    1893.3384    21299.773     5.000585 
    4690    766.78494   -6868.8382   -6783.3022      2266.52    21312.961    5.0100945 
    4700    781.22294   -6869.8509   -6782.7043      2334.16    21329.481    5.0270954 
    4710    797.87118   -6871.0711   -6782.0673    1924.7244    21349.424     5.049715 
    4720     802.8647    -6871.002   -6781.4413    1444.3261     21372.28    5.0740654 
    4730    793.64972   -6869.3968    -6780.864    1347.8231    21397.434    5.0940694 
    4740     806.8403   -6870.3473   -6780.3431    992.21725    21424.639    5.1051289 
    4750      818.162   -6871.1533   -6779.8861    614.59378    21453.406    5.1101205 
    4760    815.16526   -6870.4616   -6779.5287    231.05052    21483.183     5.116163 
    4770    786.94637   -6867.0376   -6779.2526    49.690468     21513.42      5.12807 
    4780    775.35241   -6865.5079   -6779.0162    43.555585    21543.804    5.1450598 
    4790    777.39147   -6865.4907   -6778.7716    23.811523    21574.318    5.1669066 
    4800     790.2902   -6866.6789   -6778.5208   -350.53103     21604.86    5.1929543 
    4810    802.58654    -6867.811   -6778.2813   -946.32009    21634.865    5.2204319 
    4820    816.05989   -6869.1292   -6778.0965   -1502.8499     21663.46    5.2458309 
    4830    806.79032   -6867.9724   -6777.9738   -1639.0264    21689.857    5.2649058 
    4840    813.53702   -6868.6664   -6777.9151   -1859.0641    21713.739    5.2751494 
    4850    814.83869   -6868.8093   -6777.9128   -2015.3896    21734.804      5.27911 
    4860    811.75176   -6868.5216   -6777.9694   -2342.6114    21752.775    5.2756842 
    4870    814.78522   -6868.9657   -6778.0752   -2761.9563    21767.161    5.2662952 
    4880    814.65072   -6869.1046    -6778.229   -3043.0511    21777.344    5.2591094 
    4890    808.75404   -6868.6568   -6778.4391   -2945.5634    21782.954     5.262358 
    4900    785.20614   -6866.2687   -6778.6778   -2462.9967    21784.154    5.2757121 
    4910    772.30952    -6865.054   -6778.9017   -1975.3052    21781.634    5.2887298 
    4920    776.92139   -6865.7455   -6779.0788   -1521.0324    21776.143    5.2907487 
    4930    790.25348   -6867.3787   -6779.2247   -1018.1761     21768.39    5.2781023 
    4940    795.68319   -6868.1123   -6779.3526   -578.94799    21759.133    5.2532372 
    4950    810.09434     -6869.86   -6779.4928   -255.92914    21749.023    5.2267561 
    4960    816.03876    -6870.694   -6779.6636    165.99396      21738.6    5.2083649 
    4970    800.45083   -6869.1504   -6779.8589    448.94537     21728.45     5.202128 
    4980    803.42959   -6869.6782   -6780.0544    405.91141    21718.975    5.2098046 
    4990    834.48944   -6873.3761   -6780.2875   -51.712883    21710.102      5.23109 
    5000    828.20488   -6872.9799   -6780.5924    86.630945    21701.282    5.2619127 
Loop time of 2223.88 on 16 procs for 3000 steps with 864 atoms

Performance: 0.117 ns/day, 205.915 hours/ns, 1.349 timesteps/s
97.6% CPU use with 16 MPI tasks x 1 OpenMP threads

MPI task timing breakdown:
Section |  min time  |  avg time  |  max time  |%varavg| %total
---------------------------------------------------------------
Pair    | 1375.3     | 1849.2     | 2212.9     | 513.8 | 83.15
Bond    | 0.00025558 | 0.00087351 | 0.002661   |   0.0 |  0.00
Neigh   | 0.029096   | 0.041153   | 0.054941   |   3.9 |  0.00
Comm    | 10.403     | 266.51     | 671.56     |1302.1 | 11.98
Output  | 0.18677    | 0.18984    | 0.23474    |   2.7 |  0.01
Modify  | 0.31036    | 107.89     | 190.69     | 807.0 |  4.85
Other   |            | 0.01417    |            |       |  0.00

Nlocal:        54.0000 ave          69 max          41 min
Histogram: 3 1 1 1 2 4 0 1 2 1
Nghost:        466.312 ave         505 max         403 min
Histogram: 2 0 1 1 2 2 0 1 3 4
Neighs:         0.00000 ave           0 max           0 min
Histogram: 16 0 0 0 0 0 0 0 0 0
FullNghs:      2172.25 ave        3388 max        1302 min
Histogram: 3 2 1 2 2 2 1 0 1 2

Total # of neighbors = 34756
Ave neighs/atom = 40.226852
Ave special neighs/atom = 0.0000000
Neighbor list builds = 300
Dangerous builds = 300
Setting up Verlet run ...
  Unit style    : metal
  Current step  : 5000
  Time step     : 0.001
Per MPI rank memory allocation (min/avg/max) = 8.898 | 8.906 | 8.914 Mbytes
Step Temp PotEng TotEng Press Volume c_msd[4] 
    5000    828.20488   -6872.9799   -6780.5924    86.630945    21701.282    5.2619127 
    5010     814.8742   -6871.5359   -6780.6355    490.93117    21701.462    5.3036634 
    5020    803.18062   -6870.3375   -6780.7415    703.25952    21702.369    5.3452921 
    5030    800.93669    -6870.238   -6780.8923    692.30595    21704.316    5.3846554 
    5040    792.54544   -6869.4828   -6781.0731    688.40676     21707.32    5.4205661 
    5050    778.66931   -6868.1302   -6781.2684    849.09204    21711.407    5.4526652 
    5060    771.49938   -6867.5124   -6781.4505    784.76639    21716.754     5.481944 
    5070    790.35991   -6869.7892   -6781.6234    279.55061    21723.222     5.511352 
    5080    796.87331   -6870.7028   -6781.8103   -362.73945    21730.106    5.5453023 
    5090    794.76332   -6870.6865   -6782.0294   -1012.5695     21736.47    5.5872348 
    5100    804.81412   -6872.0807   -6782.3025   -1275.1871    21741.368    5.6391179 
    5110    778.18459   -6869.4365   -6782.6288   -607.43453    21744.491    5.6971634 
    5120    757.81648   -6867.5033   -6782.9677    23.227334    21746.698    5.7542271 
    5130    771.04763    -6869.295   -6783.2835    239.73255    21748.906    5.8073813 
    5140    784.93572   -6871.1653   -6783.6045    136.01589    21751.452    5.8569791 
    5150    778.30489   -6870.7689   -6783.9479    11.494379    21754.215    5.9013057 
    5160    785.25893   -6871.9244   -6784.3276    152.96887     21757.05    5.9386477 
    5170     782.8494   -6872.0776   -6784.7495      310.486    21760.136    5.9718997 
    5180    781.07246   -6872.3653   -6785.2355    161.57562    21763.659    6.0047865 
    5190    776.30213   -6872.3698   -6785.7721     119.2795    21767.467    6.0376758 
    5200    770.43253   -6872.2871   -6786.3442   -53.010082    21771.432     6.069473 
    5210    756.21571   -6871.2777   -6786.9207   -397.56928    21775.306    6.0991829 
    5220    751.90163   -6871.3513   -6787.4756   -892.99274    21778.555    6.1250841 
    5230    762.13447   -6873.0117   -6787.9945   -1253.5681    21780.475    6.1471483 
    5240    777.64128   -6875.2465   -6788.4994   -1121.5913    21780.567    6.1681004 
    5250    774.88595   -6875.4403   -6789.0006   -473.30857    21779.056     6.193362 
    5260    773.77205   -6875.8121   -6789.4967   -1.2567924      21776.8    6.2231546 
    5270    754.73142   -6874.1442   -6789.9528    457.28283    21774.547     6.252407 
    5280    744.04543   -6873.3327   -6790.3333    500.23389    21772.949    6.2769647 
    5290    750.56378   -6874.3599   -6790.6334    185.05461    21772.058    6.2953577 
    5300     743.7268   -6873.8183   -6790.8545     68.55837    21771.483    6.3103747 
    5310     746.2175   -6874.2334   -6790.9917   -292.62491    21770.998    6.3256285 
    5320    755.13634    -6875.286   -6791.0494    -386.2325    21770.126    6.3440069 
    5330    743.84932   -6873.9997   -6791.0222    115.80172    21768.754    6.3681899 
    5340    743.13797   -6873.7957   -6790.8976     622.3646    21767.555     6.395436 
    5350    744.54293    -6873.716   -6790.6611    751.38726    21767.249    6.4238006 
    5360    755.88861   -6874.6395    -6790.319    199.59539    21767.983    6.4535158 
    5370    751.48285    -6873.694    -6789.865    -248.1933    21769.048    6.4839844 
    5380    751.93446   -6873.1722   -6789.2928   -410.32952    21769.771    6.5095266 
    5390    771.15411   -6874.6203   -6788.5969   -128.37095    21769.929    6.5262131 
    5400    767.24397   -6873.3971   -6787.8099    601.93698    21769.965    6.5370858 
    5410    791.49424   -6875.2746   -6786.9822    638.46683    21770.819    6.5439031 
    5420    827.19546   -6878.4428   -6786.1679    84.168043    21772.563    6.5516592 
    5430    840.63152   -6879.2576   -6785.4839   -194.04008    21774.472    6.5681702 
    5440    832.42502   -6877.8508   -6784.9925    54.257013    21776.172    6.5980047 
    5450    808.48434   -6874.8686    -6784.681    47.054093    21777.914    6.6420263 
    5460     778.2899   -6871.2895   -6784.4701   -161.87631    21779.707    6.6942325 
    5470    766.74797   -6869.8155   -6784.2837   -304.27162    21781.268    6.7432488 
    5480     780.8429   -6871.1962    -6784.092   -385.63933     21782.39    6.7856806 
    5490    809.70094   -6874.2474    -6783.924   -455.14386     21782.93    6.8237977 
    5500    817.47619    -6875.017   -6783.8263   -101.17733    21782.846    6.8578151 
    5510    806.77297   -6873.7996   -6783.8028    543.24106    21782.655    6.8880834 
    5520    817.13101    -6874.987   -6783.8348    647.30727    21783.216    6.9149478 
    5530    823.56968   -6875.7963   -6783.9258    354.19025    21784.698    6.9400879 
    5540     807.9316   -6874.2016   -6784.0756    119.55367    21786.726    6.9679724 
    5550    784.70539   -6871.7764   -6784.2414    4.4953771    21788.961    6.9978671 
    5560    784.29641   -6871.8802   -6784.3908   -328.87916    21791.161    7.0270019 
    5570    798.84575    -6873.634   -6784.5215   -633.86049    21792.886    7.0564172 
    5580    801.06482   -6874.0241   -6784.6641   -310.51085    21793.746    7.0893821 
    5590    807.73375   -6874.9389    -6784.835    129.08173    21794.154    7.1323265 
    5600    816.82278    -6876.177   -6785.0592   -32.803658    21794.674    7.1872302 
    5610    790.85037   -6873.5401   -6785.3196   -264.86756    21795.144    7.2449079 
    5620    785.53547   -6873.2164   -6785.5887   -662.08799    21795.193    7.2934795 
    5630    795.02203   -6874.5362   -6785.8503   -944.24981    21794.268    7.3289608 
    5640    796.22866   -6874.9355    -6786.115   -1057.7328    21791.922    7.3580289 
    5650    792.14319   -6874.7609   -6786.3962   -1078.5183    21787.981    7.3883372 
    5660    783.53299   -6874.0862    -6786.682    -986.5904    21782.429     7.420377 
    5670     784.8176   -6874.5056    -6786.958   -989.82636    21775.357    7.4485238 
    5680    794.77108   -6875.8882   -6787.2303   -813.77469    21766.808    7.4728238 
    5690    804.90773   -6877.3155   -6787.5268   -397.68596    21757.044    7.5005575 
    5700    789.99615   -6875.9682    -6787.843   -55.448799    21746.659     7.536496 
    5710    782.60426   -6875.4701   -6788.1695    -130.1002    21736.101    7.5767652 
    5720    769.55071   -6874.3168   -6788.4723     280.5399    21725.427    7.6165554 
    5730    777.67987   -6875.5029   -6788.7515    530.69257    21715.109     7.652816 
    5740    771.05051   -6875.0169   -6789.0051     835.8044    21705.565     7.686057 
    5750    760.52082   -6874.0633   -6789.2261    960.06945    21697.219    7.7145081 
    5760    751.02798   -6873.1695   -6789.3912    895.37209    21690.282    7.7335238 
    5770    763.13315   -6874.6198   -6789.4912    428.46772    21684.623    7.7409959 
    5780    795.47557   -6878.2912   -6789.5547   -280.18034    21679.545     7.743439 
    5790    800.45889   -6878.9211   -6789.6287   -545.78935     21674.09    7.7480258 
    5800    796.22545   -6878.5633   -6789.7431   -632.63358     21667.81    7.7593428 
    5810    776.84073   -6876.5375   -6789.8797   -205.03476    21660.627    7.7784435 
    5820    770.50812   -6875.9629   -6790.0115    64.915866    21653.071     7.799918 
    5830    776.97915   -6876.7976   -6790.1244    216.39856    21645.577    7.8242105 
    5840    778.32773   -6877.0503   -6790.2267    455.75436    21638.377    7.8529723 
    5850    782.31027    -6877.597   -6790.3291    734.26743    21631.843    7.8818379 
    5860    792.26639   -6878.8326   -6790.4541     803.5499    21626.375    7.9091378 
    5870    792.29092   -6879.0061   -6790.6249    706.72865    21622.059    7.9400216 
    5880    779.62262   -6877.8086   -6790.8405    909.45492    21618.832    7.9759153 
    5890    781.66428   -6878.2907   -6791.0949    1166.4252    21616.963    8.0140718 
    5900    781.72905   -6878.5965   -6791.3934    1531.3789    21616.851    8.0558423 
    5910    762.54405   -6876.7817   -6791.7188    1901.5408    21619.047    8.1024168 
    5920    760.97544   -6876.9397   -6792.0518    1722.1893    21624.038    8.1518732 
    5930    753.83085   -6876.4579   -6792.3669    1397.5991    21631.635    8.1984317 
    5940    748.96563   -6876.1852   -6792.6369    1092.2975    21641.392    8.2347132 
    5950    757.49068   -6877.3524   -6792.8532    595.66047     21652.82    8.2639132 
    5960    751.69778   -6876.8606   -6793.0075     311.1996    21665.271    8.2968728 
    5970    758.18313   -6877.6735    -6793.097   -267.76681    21678.251    8.3391724 
    5980    766.14582   -6878.5865   -6793.1218   -673.96816     21690.97    8.3954521 
    5990    765.06313   -6878.4369    -6793.093   -680.45916    21702.839    8.4674918 
    6000    780.13657   -6880.0517   -6793.0263   -871.45797    21713.744    8.5474071 
    6010    777.34119   -6879.6413   -6792.9278   -432.23382    21723.522    8.6279116 
    6020    772.45877   -6878.9766   -6792.8077    128.65324    21732.734    8.7051892 
    6030    764.34665   -6877.9126   -6792.6486    456.05556    21742.201    8.7748471 
    6040    755.79473   -6876.7455   -6792.4355    582.07407     21752.43    8.8346779 
    6050    748.32467   -6875.6129   -6792.1362    235.89307    21763.582    8.8840982 
    6060    758.17607   -6876.3187    -6791.743   -580.56217    21775.132    8.9266743 
    6070    758.06546   -6875.8135   -6791.2502   -1188.1741    21785.958    8.9701431 
    6080     764.5415   -6875.9638    -6790.678   -1647.0004    21795.109    9.0180209 
    6090    800.18154   -6879.3093   -6790.0478    -2450.713    21801.771    9.0667092 
    6100    808.67034   -6879.6325   -6789.4241   -2495.5179    21804.878    9.1108534 
    6110    790.10552   -6877.0069   -6788.8694   -1652.9292    21804.341    9.1431129 
    6120    779.98752   -6875.3706   -6788.3618   -914.74728    21801.261    9.1607134 
    6130    773.48299   -6874.1497   -6787.8665   -640.03067    21796.693    9.1676559 
    6140    783.18793   -6874.7444   -6787.3786   -568.57829    21791.069    9.1662633 
    6150     788.4928   -6874.8615   -6786.9039   -359.05021     21784.53    9.1610864 
    6160    787.80761   -6874.3428   -6786.4617    136.14044    21777.409    9.1572896 
    6170    789.71819   -6874.1432    -6786.049    618.56011    21770.412    9.1558615 
    6180    794.61209     -6874.31   -6785.6698    822.19804    21764.228     9.153707 
    6190    806.99806   -6875.3525   -6785.3307    996.93325    21759.222    9.1468411 
    6200    830.86991   -6877.7478    -6785.063    1126.8884    21755.644    9.1354908 
    6210    822.88387   -6876.6892   -6784.8953    1672.2241    21753.796    9.1255958 
    6220    835.01951   -6877.9877     -6784.84    1788.1357     21754.39    9.1228495 
    6230    836.53202   -6878.2056   -6784.8892     1985.361    21757.746    9.1268425 
    6240    832.97453   -6877.9763   -6785.0567    2158.2696     21764.19    9.1323401 
    6250    841.61424   -6879.2297   -6785.3463    1983.3767     21773.99    9.1382198 
    6260    821.67752   -6877.4048   -6785.7454    1833.7314    21786.989    9.1442545 
    6270    794.02085    -6874.773   -6786.1988    1697.0902    21803.042    9.1467222 
    6280    790.83124   -6874.8761   -6786.6577    786.96153    21821.875      9.14495 
    6290    787.26477   -6874.9126   -6787.0921   -143.86952    21842.264     9.138718 
    6300     787.3464    -6875.331   -6787.5013   -540.91841    21862.875    9.1268227 
    6310    783.15865   -6875.2435    -6787.881   -827.14009    21883.023    9.1103858 
    6320    778.48961     -6875.07   -6788.2283   -1247.8693    21902.221    9.0907807 
    6330    770.90774   -6874.5221   -6788.5261   -1894.2478    21919.793    9.0677361 
    6340     753.8004   -6872.8395   -6788.7519   -2525.0267    21934.735    9.0432246 
    6350     756.4645     -6873.28   -6788.8952   -3041.5022     21946.03    9.0180739 
    6360    769.00337   -6874.7547   -6788.9712   -3119.5131    21952.874    8.9901858 
    6370    780.30004   -6876.0568   -6789.0132   -3008.0679    21955.014    8.9579473 
    6380    787.31484   -6876.8754   -6789.0492   -2707.2574    21952.555    8.9221408 
    6390    787.53906   -6876.9429   -6789.0917   -2077.7856    21945.917    8.8830056 
    6400    770.30862   -6875.0513   -6789.1222   -1461.6859    21935.987    8.8426921 
    6410    740.30229   -6871.6762   -6789.0944   -1197.0492     21923.63    8.7999473 
    6420     748.7827   -6872.5065   -6788.9787   -1230.5009    21909.238    8.7488019 
    6430    771.26313   -6874.8247   -6788.7891   -1052.5725    21892.829    8.6842437 
    6440    772.94679   -6874.7804    -6788.557   -683.36553    21874.647    8.6107521 
    6450    771.65898   -6874.3825   -6788.3028   -500.83953    21855.191    8.5403266 
    6460    770.70957   -6873.9937   -6788.0199    -176.9754    21834.778    8.4806959 
    6470    767.47689   -6873.3122    -6787.699    402.06738    21813.918    8.4304255 
    6480    760.63294   -6872.1664   -6787.3166    954.80676    21793.487    8.3841978 
    6490    783.67152   -6874.2986   -6786.8789    563.57571    21774.173    8.3399416 
    6500    798.51923   -6875.5042   -6786.4281    23.536624    21755.517    8.3000073 
    6510    783.08232    -6873.362    -6786.008   -71.417843    21736.803    8.2608462 
    6520    781.89764   -6872.8286   -6785.6067   -372.15622     21717.78    8.2184356 
    6530    809.10684   -6875.4836   -6785.2266   -671.35501    21698.027     8.179189 
    6540    805.65883   -6874.7751   -6784.9026   -281.73224    21677.181    8.1481231 
    6550    798.29949   -6873.6992   -6784.6477    403.36023    21655.761    8.1199415 
    6560    807.72962   -6874.5477   -6784.4442    926.38358    21634.732    8.0903785 
    6570    791.93266    -6872.628   -6784.2867    1870.7783    21614.982    8.0630954 
    6580    772.02776   -6870.2724   -6784.1515    2483.3489    21597.806    8.0403237 
    6590    779.14318   -6870.9394   -6784.0248    2740.2646    21584.135    8.0237458 
    6600    788.08999   -6871.8223   -6783.9096    3144.3318    21574.476    8.0158901 
    6610    809.76911    -6874.164    -6783.833     2606.225    21569.271      8.01447 
    6620    823.26437    -6875.656   -6783.8196    2142.2781    21567.941    8.0155117 
    6630    819.14386   -6875.2533   -6783.8766     2074.941     21569.85     8.017236 
    6640    823.26214   -6875.8248   -6783.9887    1908.6155    21574.866    8.0199302 
    6650    830.88282   -6876.8393   -6784.1531    1432.9383    21582.768      8.02836 
    6660    825.65368   -6876.4746   -6784.3717    595.17467    21592.856    8.0449348 
    6670    826.86516   -6876.8797   -6784.6416   -35.778006    21603.988    8.0659334 
    6680    816.87943   -6876.0848   -6784.9607   -12.492908    21615.299    8.0912702 
    6690    792.55056   -6873.7078   -6785.2976    239.77133    21626.774    8.1219382 
    6700    796.09937   -6874.4304   -6785.6243   -35.912075    21638.685    8.1529892 
    6710    803.72364   -6875.6063   -6785.9497   -368.69196    21650.684    8.1852118 
    6720    782.28046   -6873.5371   -6786.2726   -100.00508    21662.387    8.2187353 
    6730    776.95748   -6873.2438    -6786.573   -89.233231    21674.049    8.2457248 
    6740    781.02181   -6873.9598   -6786.8356   -183.32603    21685.739     8.263006 
    6750    786.64945   -6874.8299    -6787.078   -298.46092    21697.319    8.2769421 
    6760    780.64378   -6874.3883   -6787.3063   -174.85195    21708.674    8.2979928 
    6770     778.0169   -6874.3061   -6787.5171   -229.90252    21719.902    8.3306109 
    6780      780.893   -6874.8208    -6787.711   -255.23303    21730.954    8.3682492 
    6790    775.31039   -6874.3719   -6787.8849   -331.77229    21741.769    8.4005677 
    6800    773.27621    -6874.293   -6788.0329   -382.97292    21752.262    8.4235158 
    6810    775.84907   -6874.7015   -6788.1544   -379.54136    21762.344    8.4388989 
    6820    769.81889   -6874.1237   -6788.2493   -97.096176    21772.053    8.4492597 
    6830    764.29525   -6873.5689   -6788.3107   -33.999273    21781.734    8.4571016 
    6840    767.12826   -6873.9062   -6788.3319   -262.65146    21791.483    8.4689091 
    6850    751.27403    -6872.105   -6788.2993   -165.50113    21801.062    8.4919877 
    6860     751.3045   -6872.0025   -6788.1934   -158.61434    21810.552    8.5242852 
    6870    784.02027   -6875.4669   -6788.0083   -259.24167    21819.959      8.55708 
    6880    789.98992   -6875.9095   -6787.7849    81.139747    21829.198    8.5857926 
    6890    777.01949    -6874.233   -6787.5553    570.36191    21838.756    8.6095618 
    6900    780.31824   -6874.3438   -6787.2981    631.20972     21849.31    8.6272096 
    6910    785.08445   -6874.5758   -6786.9984    697.72903    21861.053    8.6405966 
    6920    789.31019   -6874.7152   -6786.6665    419.64073    21874.052     8.652594 
    6930    790.90567   -6874.5315   -6786.3048   -311.38432    21887.904    8.6689384 
    6940    793.27013   -6874.4109   -6785.9204    -767.3231    21901.593    8.6940769 
    6950    798.58077   -6874.6041   -6785.5212   -791.69785    21914.441    8.7277748 
    6960    800.55685   -6874.4186   -6785.1153   -788.15846    21926.346    8.7692295 
    6970    813.53256   -6875.4565   -6784.7057   -1061.4781    21937.228    8.8168439 
    6980    832.82086   -6877.2239   -6784.3215   -1518.6958    21946.654    8.8694946 
    6990    844.12154   -6878.1787   -6784.0157   -1692.6312    21953.957     8.927396 
    7000    839.35046   -6877.4627   -6783.8319   -1505.8152    21958.824    8.9880366 
    7010    816.01292   -6874.7893   -6783.7618   -1033.9482    21961.486     9.049418 
    7020       798.92   -6872.8853   -6783.7645   -552.55913    21962.616    9.1130851 
    7030    801.14538   -6873.1724   -6783.8035   -557.03437    21962.843    9.1774021 
    7040    796.58425   -6872.7328   -6783.8726   -379.01993    21962.257    9.2364898 
    7050    798.31574   -6873.0358   -6783.9825   -391.74322    21961.048    9.2886084 
    7060    805.65687    -6874.011   -6784.1388   -988.83609    21959.123    9.3361314 
    7070     802.3872   -6873.8712   -6784.3637    -1165.347    21955.701    9.3777867 
    7080    775.99716   -6871.2055   -6784.6418    -692.9798    21950.517    9.4132467 
    7090     770.6929    -6870.914    -6784.942   -575.47293    21944.098    9.4457227 
    7100    771.78019   -6871.3479   -6785.2546   -845.34941    21936.601    9.4774363 
    7110    765.77842   -6871.0044   -6785.5807    -1004.224    21927.663    9.5060049 
    7120    769.58967    -6871.756   -6785.9071   -805.99099    21917.043    9.5254293 
    7130    779.40841   -6873.1821   -6786.2379   -440.51138    21904.995    9.5345837 
    7140    789.31582   -6874.6518   -6786.6024   -165.39627    21892.014    9.5379179 
    7150    793.41588    -6875.528   -6787.0213   -127.05159    21878.498    9.5431572 
    7160    790.46517   -6875.6793   -6787.5017   -213.83319    21864.496    9.5557916 
    7170    782.84961   -6875.3489   -6788.0209   -111.99335    21849.919    9.5758354 
    7180    785.48512   -6876.1889   -6788.5668   -80.915163    21834.863    9.5997343 
    7190    781.51688   -6876.3057   -6789.1263    287.06828    21819.435    9.6210138 
    7200    763.93814   -6874.8868   -6789.6683    675.66011    21804.145    9.6347034 
    7210    747.23906   -6873.5043   -6790.1486    438.31731    21789.486    9.6408366 
    7220    742.67565    -6873.389   -6790.5424   -67.383246    21775.163    9.6418879 
    7230    745.41741   -6873.9991   -6790.8467   -396.04758    21760.457    9.6405292 
    7240    741.22103   -6873.7446   -6791.0603    135.58213    21744.971    9.6346383 
    7250    729.46535   -6872.5332   -6791.1602    1087.0014    21729.417    9.6226429 
    7260    746.05519   -6874.3683   -6791.1447    1298.7438    21715.083    9.6071661 
    7270    778.20579    -6877.851    -6791.041    913.25042    21702.356    9.5940978 
    7280    803.75464   -6880.5711   -6790.9111      530.837     21690.76    9.5870123 
    7290    814.14782   -6881.6368   -6790.8174     325.8015     21679.74    9.5866022 
    7300    799.28867   -6879.9355   -6790.7736    652.63417     21669.05    9.5927564 
    7310    786.57506   -6878.5011   -6790.7575    1056.4257    21659.117    9.6027301 
    7320    776.92046   -6877.4039   -6790.7373     1325.978    21650.552    9.6096656 
    7330    779.26459   -6877.6236   -6790.6955     1394.027    21643.767    9.6107197 
    7340    786.65294   -6878.3833   -6790.6309    1384.1311     21638.92    9.6100015 
    7350    789.58753   -6878.6379   -6790.5582      1302.79    21636.041    9.6111275 
    7360    796.14273   -6879.2951   -6790.4842    1312.1667    21635.092    9.6150777 
    7370    812.14667   -6881.0268   -6790.4307    1259.8164     21636.09    9.6195733 
    7380    803.23595   -6880.0173   -6790.4152    1592.7164    21639.093    9.6225486 
    7390      795.944   -6879.2305   -6790.4418    1475.3924    21644.524    9.6246508 
    7400    800.10759   -6879.7513   -6790.4981    1047.7733    21652.278    9.6305727 
    7410    786.22979   -6878.2896   -6790.5845    1363.4878    21661.924    9.6462433 
    7420    774.49629   -6877.0828   -6790.6866    1273.5668    21673.802    9.6705164 
    7430    780.88783   -6877.8855   -6790.7763    630.17913    21687.837    9.6980957 
    7440      790.941   -6879.0941   -6790.8634    24.421903    21703.168     9.723795 
    7450     786.4026   -6878.6875   -6790.9631    22.297903    21718.993    9.7444783 
    7460    784.72765   -6878.6225   -6791.0849    223.12325    21735.261    9.7645266 
    7470    785.98583   -6878.9002   -6791.2223   -13.843597      21752.2    9.7855138 
    7480    783.41609   -6878.7657   -6791.3744   -278.82375    21769.537    9.8025417 
    7490    766.44774    -6877.027   -6791.5286   -184.87041    21786.915    9.8203197 
    7500    760.83197   -6876.5277   -6791.6557   -374.48614    21804.364    9.8463937 
    7510    770.78715   -6877.7198   -6791.7374   -1046.9144    21821.563    9.8806247 
    7520    766.81628   -6877.3206   -6791.7811   -1611.4083     21837.57    9.9198731 
    7530     747.6541   -6875.1898   -6791.7878   -1574.5096    21851.563    9.9587308 
    7540    733.61404   -6873.5537    -6791.718   -1271.0724    21863.476    9.9930102 
    7550    745.18215   -6874.6619   -6791.5357   -1300.4636    21873.621    10.021809 
    7560    761.12337   -6876.1387   -6791.2343    -1290.847    21881.977    10.043336 
    7570    753.14308   -6874.8551   -6790.8409   -790.86313    21888.582    10.052907 
    7580    750.53753   -6874.0824   -6790.3588   -659.09335    21894.035    10.042846 
    7590    781.44059   -6876.9443   -6789.7734   -1040.9737    21898.498     10.01169 
    7600    773.35669   -6875.3947   -6789.1256   -633.99775     21901.55    9.9729179 
    7610    766.24306   -6873.9439   -6788.4684   -13.193811    21903.705    9.9374157 
    7620      805.053   -6877.6105   -6787.8056   -321.47474     21905.74    9.9121704 
    7630    809.26833   -6877.4469   -6787.1718   -372.52177    21907.368    9.8991242 
    7640    786.50512   -6874.3571   -6786.6212    67.429377    21908.514    9.8949247 
    7650    782.95893   -6873.4552    -6786.115    434.27486     21909.79    9.8956007 
    7660    792.43079   -6874.0348    -6785.638    195.58752     21911.67    9.8970402 
    7670    800.54614   -6874.5102    -6785.208   -275.68705    21913.847     9.895206 
    7680     799.1558   -6873.9806   -6784.8335    -573.7069    21915.666     9.889345 
    7690    800.77136   -6873.8393    -6784.512   -814.71763    21916.622     9.889719 
    7700    808.74852   -6874.4629   -6784.2458    -1014.534    21916.344     9.907677 
    7710    800.95604   -6873.3893   -6784.0414   -980.70305    21914.535    9.9395846 
    7720    784.38694   -6871.3825   -6783.8829   -495.74916    21911.275    9.9712041 
    7730    768.95332   -6869.5019    -6783.724   -13.591575    21907.214    9.9946645 
    7740     770.9083   -6869.5327   -6783.5367    167.79163    21903.049    10.008763 
    7750    796.59261   -6872.1829   -6783.3217    65.536891    21899.069    10.015246 
    7760    803.49646   -6872.7443   -6783.1131    64.185918    21895.157     10.02146 
    7770    798.88283   -6872.0526    -6782.936   -137.83114    21891.256    10.034515 
    7780    823.40166   -6874.6514   -6782.7997   -574.37417    21887.087    10.054737 
    7790    841.03217   -6876.5626   -6782.7442   -903.02757    21882.036     10.08035 
    7800    825.21758    -6874.862   -6782.8077   -963.16665     21875.59    10.109373 
    7810    807.96794   -6873.0941    -6782.964   -679.63602    21867.653    10.134965 
    7820    791.26896    -6871.432   -6783.1648   -236.82713    21858.633    10.151661 
    7830    801.01992   -6872.7467   -6783.3917   -85.573298    21849.128    10.164127 
    7840    810.50376   -6874.0826   -6783.6696    219.74563    21839.457    10.181545 
    7850    804.37506   -6873.7411   -6784.0118    509.90927    21830.036    10.207247 
    7860    807.37396   -6874.4852   -6784.4215    574.93937    21821.297    10.236611 
    7870    795.37942   -6873.6286   -6784.9028    269.88456    21813.317    10.261378 
    7880    766.86879   -6870.9603   -6785.4149     20.94182    21805.691    10.277488 
    7890    763.39074   -6871.0668   -6785.9094    93.601936     21798.09    10.290676 
    7900    787.42554   -6874.2351   -6786.3966    268.17224    21790.584    10.312907 
    7910    792.72687    -6875.338   -6786.9082    724.30473    21783.483    10.353487 
    7920    783.11119    -6874.803   -6787.4458    914.35458     21777.39    10.408366 
    7930    761.51546   -6872.9179   -6787.9697    924.19745    21772.642    10.463934 
    7940    761.53742      -6873.4   -6788.4493     396.7099    21769.161     10.51296 
    7950    766.89737   -6874.4259   -6788.8773   -117.49379    21766.272    10.558458 
    7960    767.33004   -6874.8625   -6789.2657   -695.27006    21763.183    10.605614 
    7970    763.24846   -6874.7462   -6789.6046   -1219.6308    21759.019    10.649913 
    7980    762.04726   -6874.8993   -6789.8918   -1023.0119    21753.085    10.690168 
    7990    761.69769   -6875.0826   -6790.1141   -634.31995    21745.601    10.735351 
    8000    773.04917   -6876.5216   -6790.2868   -651.52488    21737.058     10.79138 
    8010    774.72816    -6876.851   -6790.4289   -364.80346    21727.533    10.853429 
    8020    771.23756   -6876.5783   -6790.5456   -185.60007    21717.382    10.908023 
    8030    769.88299   -6876.5202   -6790.6386   -479.19874    21706.817    10.948788 
    8040    759.50553   -6875.4178   -6790.6938   -530.68819     21695.52    10.974366 
    8050    754.99203   -6874.9155    -6790.695   -293.38817    21683.402    10.981505 
    8060     754.9894    -6874.842   -6790.6217   -166.38191    21670.748    10.977141 
    8070    749.91852   -6874.1106   -6790.4561   -58.345888    21657.762    10.974288 
    8080    759.14903   -6874.8525   -6790.1683     74.69001    21644.614    10.980311 
    8090    778.99362   -6876.6194   -6789.7214    293.48493    21631.517    10.998288 
    8100    801.01636   -6878.4562   -6789.1016    721.97944    21618.799    11.028088 
    8110     806.9729   -6878.3243   -6788.3053    1543.3863    21607.137    11.061771 
    8120    795.90623   -6876.1448   -6787.3602    2166.3116     21597.69     11.09203 
    8130    801.52697   -6875.7115      -6786.3    1813.5985    21591.291    11.123586 
    8140    830.49263   -6877.8303   -6785.1876     837.4028    21587.468    11.164123 
    8150    827.10257   -6876.4237   -6784.1592    502.72087    21584.951    11.214047 
    8160    822.76576   -6875.0959   -6783.3152    862.33011    21583.256    11.264005 
    8170     823.6716   -6874.5303   -6782.6485    1493.5558    21582.878    11.316448 
    8180    821.24188   -6873.7654   -6782.1547    2252.7934    21584.747    11.384602 
    8190    837.67172   -6875.2604   -6781.8169    2593.6607    21589.944     11.46811 
    8200    843.27421   -6875.7021   -6781.6336    2428.4794    21598.995    11.555999 
    8210    826.59809   -6873.7931   -6781.5848    2176.3218    21611.785    11.634057 
    8220    809.05449   -6871.8775   -6781.6262    1668.0722    21627.901    11.697285 
    8230    802.48773   -6871.2306   -6781.7118    1390.3709    21646.711    11.755827 
    8240     812.5841   -6872.4778   -6781.8329    1092.9607    21667.781     11.81688 
    8250    819.31855   -6873.4052    -6782.009    932.46744    21690.699    11.881023 
    8260     812.1088   -6872.8337   -6782.2417    924.97091    21715.247    11.948804 
    8270    832.69793   -6875.4217    -6782.533    434.23507    21741.325    12.021617 
    8280     845.6267   -6877.2388   -6782.9079   -102.29775    21768.268    12.100433 
    8290    832.03498   -6876.2148   -6783.4001    20.960078    21795.358    12.179922 
    8300    807.99865   -6874.1026   -6783.9691     351.9113     21822.71    12.250325 
    8310    788.15713   -6872.4681    -6784.548    193.16331    21850.727    12.312961 
    8320    773.17728   -6871.3253   -6785.0762    -279.0791    21879.204    12.372799 
    8330    768.13813   -6871.2002   -6785.5132   -873.40071    21907.433    12.425135 
    8340    790.94081   -6874.1093   -6785.8786   -1464.9276    21934.508     12.46576 
    8350    806.02747   -6876.1338   -6786.2202   -1666.1432    21959.575     12.49925 
    8360    802.31662   -6876.0734   -6786.5738    -1534.276     21982.28    12.530424 
    8370    791.83748    -6875.258   -6786.9273   -1359.5317    22002.742    12.558912 
    8380     790.3336   -6875.4219    -6787.259   -1142.1176    22021.217    12.589193 
    8390    798.29936   -6876.6279   -6787.5764   -1044.9224    22038.007    12.624308 
    8400    793.89572    -6876.441   -6787.8808   -1203.5099    22053.234    12.660524 
    8410    781.11362   -6875.3027   -6788.1683   -1653.5066    22066.619    12.697391 
    8420    762.34037   -6873.4468   -6788.4066   -2111.1027    22077.509    12.732178 
    8430    757.27015   -6873.0505   -6788.5759   -2728.8047    22085.149    12.758874 
    8440    755.94822   -6872.9994   -6788.6723   -3131.4357    22088.614     12.77328 
    8450     767.5714   -6874.3397   -6788.7159   -3191.2823    22087.246    12.772874 
    8460    770.79034   -6874.7063   -6788.7235   -2697.7747    22080.983    12.759613 
    8470    756.19986   -6873.0468   -6788.6916   -1899.9053    22070.527    12.737642 
    8480    753.84667   -6872.6861   -6788.5934   -1261.9571     22057.05    12.708574 
    8490    769.62582   -6874.2813   -6788.4284   -1146.5015    22041.459    12.670931 
    8500    771.86716   -6874.3223   -6788.2193   -654.90779    22024.073    12.623083 
    8510     781.5443   -6875.1585   -6787.9761   -66.012871     22005.61    12.569488 
    8520    815.83455    -6878.734   -6787.7264   -199.74806    21986.857    12.519503 
    8530    834.04657   -6880.5766   -6787.5375   -438.20269    21967.731    12.475866 
    8540    832.46481   -6880.3218   -6787.4591   -643.37196     21947.84    12.429128 
    8550    831.42771   -6880.2412   -6787.4942   -453.72551    21926.954    12.367986 
    8560    823.00136   -6879.4336   -6787.6266     94.09328    21905.348    12.295932 
    8570    801.02902   -6877.1794   -6787.8234    846.04518    21883.866    12.230391 
[...]
   22890    772.24694   -6872.0021   -6785.8568   -1665.2695    21983.819    28.228246 
   22900    777.92863   -6872.7318   -6785.9527   -1525.0305    21959.711    28.220391 
   22910    785.05995   -6873.6201   -6786.0455   -1424.3845    21933.022    28.200241 
   22920    772.87584   -6872.3461   -6786.1306   -1198.4444    21903.944    28.177143 
   22930    760.21549   -6870.9985   -6786.1953   -877.02046      21872.8    28.159264 
   22940    751.99355   -6870.0883   -6786.2023    -351.0972      21840.1    28.142455 
   22950    748.74527   -6869.6345   -6786.1108    306.46345    21806.679    28.113009 
   22960    770.09903   -6871.8087    -6785.903    426.81781     21773.44    28.062376 
   22970    785.23271   -6873.1541   -6785.5602    833.66855    21740.734    28.003968 
   22980    790.71519   -6873.2981   -6785.0927    1600.6325    21709.184    27.959194 
   22990    793.55422   -6873.0259   -6784.5038     2126.896    21679.883    27.943894 
   23000    805.37577   -6873.6679    -6783.827    1996.8959    21653.591    27.962959 
   23010    803.33352   -6872.7219   -6783.1088    2299.0446    21630.305     27.99982 
   23020    793.83488    -6870.939   -6782.3856    2817.5543    21610.434    28.041201 
   23030    798.82913   -6870.7812   -6781.6706    2835.9799    21594.654     28.07335 
   23040    814.29587    -6871.827    -6780.991    2754.3124    21583.068     28.07401 
   23050    813.84331   -6871.1766   -6780.3912    2888.5935    21575.594    28.047097 
   23060    811.51442    -6870.413   -6779.8874    3143.1772    21572.436    28.016395 
   23070    823.54197   -6871.3407   -6779.4734    2809.6492    21573.859    28.003641 
   23080    829.85369   -6871.7317   -6779.1602    2521.8853    21579.492     28.01976 
   23090    823.11113   -6870.7701   -6778.9508    2299.3037     21588.89    28.060901 
   23100    812.60882   -6869.4742   -6778.8264    1911.8113    21601.685    28.104918 
   23110    807.35294   -6868.8226   -6778.7612    1899.6579    21617.415    28.136269 
   23120    799.54389   -6867.9287   -6778.7384    1780.9578     21635.97    28.166938 
   23130    801.25978   -6868.1231   -6778.7414    1035.6472    21657.096    28.207325 
   23140    797.10344   -6867.6826   -6778.7645      146.229    21679.711    28.254205 
   23150     782.6415   -6866.0988    -6778.794    86.274775    21702.627    28.309433 
   23160    800.19988   -6868.0846   -6778.8211   -145.68495    21725.554    28.370189 
   23170    808.00399   -6868.9909   -6778.8569    19.920335    21748.243    28.431038 
   23180     818.0049   -6870.2021   -6778.9524    -72.94911    21770.812    28.487999 
   23190    819.01861   -6870.4959   -6779.1332   -626.76171    21793.086      28.5473 
   23200    802.74945   -6868.9458   -6779.3979   -989.06417    21814.304    28.613279 
   23210    791.19769   -6867.9735   -6779.7142   -1098.0297    21833.921    28.677796 
   23220    780.31308   -6867.0877   -6780.0426   -1338.8105    21851.707    28.737465 
   23230    766.50577   -6865.8675   -6780.3626   -1186.6764    21867.385    28.789046 
   23240     762.6407   -6865.7345   -6780.6608   -821.29166    21881.165    28.830303 
   23250    774.12609   -6867.2893   -6780.9344   -1011.0085    21893.503    28.863742 
   23260     793.6404   -6869.7394   -6781.2076   -1394.7883     21904.16    28.886588 
   23270    800.66105    -6870.838    -6781.523   -1188.2841    21912.687    28.889608 
   23280    783.62457   -6869.2911   -6781.8766   -890.93133     21919.34    28.870382 
   23290    790.61609   -6870.4496   -6782.2551   -1029.3134    21924.498    28.842204 
   23300    814.57316   -6873.5529    -6782.686   -1064.4145    21928.067    28.814696 
   23310    816.43464   -6874.2889   -6783.2144   -814.57835    21930.017    28.784412 
   23320    789.88033   -6871.9279   -6783.8155   -468.10829    21930.717     28.74771 
   23330    779.90833   -6871.4288   -6784.4289   -360.86179    21930.667    28.698597 
   23340    785.18322   -6872.6238   -6785.0355   -502.43668     21930.04    28.641691 
   23350    783.47119   -6873.0377   -6785.6403    -638.9677    21928.649    28.593146 
   23360    760.04451   -6870.9896   -6786.2055   -298.96596    21926.385    28.561668 
   23370    756.27439     -6871.05   -6786.6865   -440.29756    21923.629    28.545088 
   23380    767.14907   -6872.6588   -6787.0822   -974.69406    21920.186    28.536023 
   23390    764.01464   -6872.6282   -6787.4012   -1136.0468    21915.344    28.530554 
   23400    759.05776   -6872.3157   -6787.6417   -1076.5524    21908.856    28.526457 
   23410    754.69412   -6871.9849   -6787.7976   -740.68314    21900.862    28.518053 
   23420    765.24047   -6873.2459   -6787.8822   -158.04253    21891.872    28.497983 
   23430    770.01671    -6873.808   -6787.9115    557.05625    21882.756    28.468644 
   23440    768.38622   -6873.6126   -6787.8979    1143.6871    21874.577     28.43434 
   23450    762.86822   -6872.9377   -6787.8386    1307.0035    21868.166    28.400076 
   23460    763.25192   -6872.8817   -6787.7398    1240.5405    21863.778    28.367817 
   23470     759.2402   -6872.2918   -6787.5974    998.36932    21861.285    28.336801 
   23480    761.24393   -6872.3322   -6787.4143    796.03358    21860.333    28.308467 
   23490    769.65979   -6873.0481   -6787.1913    583.67448    21860.601    28.292706 
   23500    791.85329   -6875.2924     -6786.96    143.95448     21861.71    28.310577 
   23510    789.65412   -6874.8323   -6786.7452   -59.320639    21863.065    28.357057 
   23520    781.90073   -6873.7835   -6786.5613   -373.53443    21864.302    28.409467 
   23530    780.36651   -6873.4396   -6786.3886   -873.35817    21864.952     28.45115 
   23540    776.41849   -6872.8343   -6786.2237   -1465.5804    21864.276    28.466789 
   23550    782.56369   -6873.3564   -6786.0603   -2289.5313    21861.371    28.451482 
   23560    796.39853   -6874.7628   -6785.9233   -2905.8644    21855.015     28.41968 
   23570    773.96602   -6872.1507   -6785.8136   -2118.4208    21844.505    28.386425 
   23580    758.80212   -6870.3439   -6785.6984   -1095.4444    21830.862    28.359963 
   23590    756.25397   -6869.9007   -6785.5394   -159.57521    21815.639    28.343926 
   23600    761.27077   -6870.2575   -6785.3366    478.60559     21800.23    28.344695 
   23610    772.30505   -6871.2592   -6785.1075    802.08511    21785.618    28.359722 
   23620    793.19332   -6873.3618   -6784.8799    219.86378    21772.197    28.380449 
   23630    810.23043   -6875.0769   -6784.6945   -328.70341    21759.209    28.399144 
   23640    806.44976   -6874.5377   -6784.5771   -212.36518    21745.907    28.405455 
   23650    805.93191   -6874.4226   -6784.5197   -1.0839765    21732.375    28.400206 
   23660    802.71386   -6874.0549    -6784.511    263.72211    21718.931    28.398902 
   23670    785.54448   -6872.1555   -6784.5268    439.48993    21705.949    28.399095 
   23680    780.74946   -6871.6382   -6784.5444    683.19444    21693.708    28.393831 
   23690    772.24511   -6870.6815   -6784.5364    1451.9987    21682.631    28.390675 
   23700    779.26699    -6871.426   -6784.4975    1834.2878    21673.731    28.396066 
   23710     784.0797   -6871.9059   -6784.4406    1626.8494    21667.541    28.407605 
   23720    776.83513   -6871.0305   -6784.3734    1106.7984    21663.789    28.415379 
   23730      792.947   -6872.7561   -6784.3017    194.37124    21661.675    28.421801 
   23740      804.953   -6874.0413   -6784.2476   -539.88717    21659.893    28.439223 
   23750    801.37577   -6873.6341   -6784.2394   -618.32667    21657.403    28.463651 
   23760    789.47469     -6872.33   -6784.2629   -149.34837    21654.088     28.48141 
   23770     784.9144   -6871.8631   -6784.3047    403.99101    21650.586    28.489396 
   23780    775.12661   -6870.8015    -6784.335    725.92978    21647.697    28.487775 
   23790    774.26372   -6870.7113    -6784.341    623.93154    21645.843    28.471407 
   23800    761.65255   -6869.2614   -6784.2979    820.15959    21644.987    28.450521 
   23810    763.66894   -6869.3876   -6784.1992    923.22472    21645.336     28.44362 
   23820    783.72227   -6871.4668   -6784.0414    623.32176    21647.009    28.459152 
   23830    808.65067   -6874.0674   -6783.8612     180.0317    21649.578    28.494345 
   23840    788.29095   -6871.6304   -6783.6953    636.98255    21652.554    28.533208 
   23850    770.51123    -6869.477   -6783.5253    637.41033    21656.384    28.559526 
   23860    768.12739   -6868.9955   -6783.3097    348.63907    21661.096    28.577579 
   23870    750.89155   -6866.7831     -6783.02    347.43804    21666.343    28.592073 
   23880    751.39318   -6866.4287   -6782.6097    226.02829     21672.06    28.592108 
   23890    786.48172   -6869.7805   -6782.0472   -255.00778    21678.021    28.575607 
   23900    814.90673   -6872.2583   -6781.3543    -691.8689    21683.564    28.550069 
   23910    827.92023   -6872.9729   -6780.6171    -724.7465    21688.087    28.527838 
   23920    823.18114   -6871.7276   -6779.9005   -456.04569     21691.53    28.517505 
   23930    816.79112   -6870.3376   -6779.2233   -410.25643    21694.245    28.520897 
   23940     823.2773   -6870.4217   -6778.5838   -894.21427     21696.25    28.539271 
   23950    821.24667   -6869.6133    -6778.002   -1367.4509     21696.91    28.570958 
   23960    824.66908   -6869.4858   -6777.4927   -1479.6211    21695.588    28.605627 
   23970    825.90892   -6869.1876   -6777.0562   -1245.5837     21692.12    28.638474 
   23980    824.84125   -6868.7043    -6776.692   -541.88748    21686.913      28.6712 
   23990    828.30631   -6868.8049   -6776.4061    309.07655    21680.979    28.707286 
   24000     828.4053   -6868.6259    -6776.216    936.58353    21675.539    28.758494 
   24010    812.21345   -6866.7244   -6776.1207    1672.3161    21671.602    28.828022 
   24020    809.81181   -6866.4316   -6776.0958    1952.2549    21670.154    28.905864 
   24030    822.50451   -6867.8754   -6776.1238    1558.2165    21671.536    28.981589 
   24040    823.34124   -6868.0697   -6776.2248    1167.0453    21675.237     29.05092 
   24050    822.17267    -6868.132   -6776.4174    824.25855    21680.651    29.109497 
   24060    837.21894   -6870.1242   -6776.7311    229.73243    21687.195      29.1579 
   24070    844.34964   -6871.4184   -6777.2299   -345.04865    21694.006    29.207352 
   24080    833.45959   -6870.9386   -6777.9649   -402.87218      21700.3    29.264964 
   24090    815.72526   -6869.9153   -6778.9199   -286.54122    21705.955    29.328785 
   24100    800.06817   -6869.2743   -6780.0255   -296.02292    21711.117    29.384102 
   24110    798.75738   -6870.2746    -6781.172   -710.35471    21715.737    29.419843 
   24120    796.09525   -6871.0637   -6782.2581   -1363.4742    21719.221     29.43403 
   24130    770.48523   -6869.0956   -6783.1469   -1563.5696    21720.706    29.430476 
   24140    772.52139   -6869.9775   -6783.8016   -1676.8029    21719.845    29.420863 
   24150    769.48491   -6870.0965   -6784.2593   -1790.4125    21716.473    29.416239 
   24160    751.27791    -6868.363   -6784.5568   -1705.5308    21710.471    29.417879 
   24170    747.14379   -6868.0683   -6784.7233    -1393.816    21702.004    29.416134 
   24180    748.84796   -6868.3182    -6784.783   -1016.2562    21691.543    29.404964 
   24190    748.52908   -6868.2554   -6784.7559   -592.31563    21679.669    29.390656 
   24200     764.6947   -6869.9625   -6784.6597   -336.22707    21666.996    29.381029 
   24210    779.12105   -6871.4325   -6784.5204    50.883857    21653.967     29.37783 
   24220    781.43038   -6871.5386   -6784.3689    656.40267    21641.155    29.384665 
   24230    777.78044   -6870.9626      -6784.2    1148.9612    21629.427    29.405079 
   24240    788.81295   -6872.0111   -6784.0179    1129.3088    21619.453    29.428358 
   24250    798.38648   -6872.8987   -6783.8375    954.69507    21611.222    29.441628 
   24260     810.8635   -6874.1378   -6783.6848    938.37493    21604.498    29.451367 
   24270     811.7065   -6874.1302   -6783.5831    1173.9031    21599.251    29.469301 
   24280    781.14026   -6870.6487   -6783.5113    1871.1967    21595.855    29.489515 
   24290    795.43584    -6872.182   -6783.4499    1860.5523    21595.143    29.489181 
   24300    803.53637   -6873.0357      -6783.4    1922.4568    21597.226    29.469095 
   24310    782.98664   -6870.7154   -6783.3721    2243.2019    21602.188    29.456108 
   24320    796.51662   -6872.2121   -6783.3595    2195.1731    21610.408    29.465454 
   24330    799.31383   -6872.5255   -6783.3609    1905.6625    21621.819    29.488464 
   24340    792.65688   -6871.8192   -6783.3971    1563.8238    21635.985    29.508843 
   24350    773.84941   -6869.7706   -6783.4465    1475.5195    21652.446    29.517721 
   24360    764.39209   -6868.7403   -6783.4712    1347.0062    21671.013    29.519539 
   24370    774.00722   -6869.7956   -6783.4539    1341.0871    21691.518    29.523892 
   24380    770.59307   -6869.3553   -6783.3945    1258.2938    21713.917    29.533459 
   24390    774.52247   -6869.6936   -6783.2945    726.78953    21738.027    29.542348 
   24400    788.25007   -6871.0804   -6783.1499   -72.409915    21763.052    29.548391 
   24410    778.46187   -6869.8121   -6782.9735   -434.55772    21787.885    29.561483 
   24420    773.33156   -6869.0356   -6782.7693   -627.76636    21811.927    29.588157 
   24430    766.80939   -6868.0441   -6782.5054   -891.53538    21834.854    29.624034 
   24440     772.5721   -6868.3593   -6782.1777   -1462.6187    21856.224    29.664671 
   24450    764.66541   -6867.0733   -6781.7737   -1687.6551    21875.293    29.710776 
   24460    772.39949   -6867.4664   -6781.3041   -1828.5257    21891.655    29.760483 
   24470    791.05001   -6869.0192   -6780.7764   -1630.6866    21905.159    29.801931 
   24480    792.46263   -6868.6309   -6780.2305   -1367.1532    21916.068    29.829635 
   24490    784.49959   -6867.1957   -6779.6835   -1145.5813     21924.82    29.849532 
   24500    796.63326   -6868.0044   -6779.1388   -1344.5365    21931.707    29.862681 
   24510     794.2253   -6867.2045   -6778.6074   -1515.8264    21936.518    29.867578 
   24520    786.14819   -6865.8079   -6778.1119   -1846.6265    21938.929     29.86569 
   24530    781.63741   -6864.8276   -6777.6347   -2164.3815    21938.508    29.857209 
   24540    797.91689   -6866.1804   -6777.1716   -2472.0061    21934.787    29.846676 
   24550    807.94146   -6866.8707   -6776.7436   -2607.5228    21927.318     29.83617 
   24560    813.34529   -6867.1155   -6776.3856   -2503.8203    21915.957    29.822435 
   24570    813.77829   -6866.8909   -6776.1127   -2287.3567    21900.875    29.805931 
   24580    798.59786   -6864.9946   -6775.9098   -1888.1828    21882.447    29.787372 
   24590    805.57958    -6865.616   -6775.7524   -1747.4139    21861.237    29.761503 
   24600    822.53442   -6867.3995   -6775.6445   -1517.0663    21837.545    29.726091 
   24610    830.35962   -6868.2421   -6775.6142   -1110.7254    21811.757    29.681629 
   24620    831.94191   -6868.4877   -6775.6834   -925.39673    21784.463     29.62738 
   24630    829.51639    -6868.385   -6775.8512   -968.68823    21755.964    29.562998 
   24640    834.35937   -6869.1956   -6776.1215   -767.93183    21726.282    29.490456 
   24650    820.64414   -6868.0202   -6776.4761   -183.30233    21695.786     29.41324 
   24660    817.77266   -6868.1227   -6776.8989   -103.76883    21665.221    29.335766 
   24670    818.83628   -6868.7233   -6777.3808   -113.23312    21634.795    29.262177 
   24680    818.32577   -6869.1984   -6777.9129    196.28534    21604.541    29.199292 
   24690    823.49074   -6870.3372   -6778.4756    737.59267    21574.904    29.157522 
   24700    816.78142    -6870.178   -6779.0648    1579.3771    21546.694    29.138604 
   24710      785.486   -6867.2302    -6779.608    2692.6318    21521.156    29.123433 
   24720    795.93026   -6868.8643   -6780.0771    2829.2409    21499.713    29.091929 
   24730    818.64699   -6871.8301   -6780.5088    2415.5005    21482.585    29.050296 
   24740    815.49935   -6871.8945   -6780.9243    2319.0224    21469.227     29.01481 
   24750    812.64402   -6871.9682   -6781.3165    1824.3004    21459.333    28.987143 
   24760    802.50345   -6871.1932   -6781.6727     1318.647    21452.206    28.967831 
   24770    789.86586   -6870.0911   -6781.9803    1502.5375    21447.151    28.953655 
   24780    781.35159   -6869.3896   -6782.2287    2269.7904    21444.416    28.941802 
   24790    783.62965   -6869.8392   -6782.4242    2451.8796    21444.939    28.948264 
   24800    783.85396   -6870.0288   -6782.5887    2365.7558    21449.017    28.984697 
   24810    784.07959   -6870.1929   -6782.7276    2172.8884    21456.516    29.034665 
   24820    794.26424   -6871.4562   -6782.8549    1427.8028    21467.049    29.076414 
   24830    789.67703   -6871.0659   -6782.9762    1125.5515    21479.661    29.103326 
   24840    803.96187   -6872.7933   -6783.1101    956.38201    21493.833    29.126659 
   24850    800.09609   -6872.5175   -6783.2655     975.9385    21509.322     29.16328 
   24860    788.56774   -6871.4091   -6783.4432    820.50579    21526.108    29.225811 
   24870    785.30399   -6871.2091   -6783.6073    3.5782127    21543.879     29.30444 
   24880    792.29517   -6872.1436   -6783.7619   -621.96807    21561.547    29.381117 
   24890    773.13425    -6870.148   -6783.9037    -696.7506    21578.225     29.44288 
   24900    762.23733   -6869.0463   -6784.0176   -483.04585    21593.786    29.479902 
   24910    785.47665   -6871.7144   -6784.0933   -668.04534    21608.462     29.49803 
   24920    808.51113   -6874.3607     -6784.17   -852.04067    21622.022    29.517493 
   24930     799.8942   -6873.5191   -6784.2897   -293.45798    21634.303     29.55064 
   24940    781.16219   -6871.5842   -6784.4443    574.29463    21646.114    29.590209 
   24950    772.83652   -6870.8035   -6784.5925     705.1508    21658.595    29.626544 
   24960    781.31318   -6871.8737    -6784.717    429.65385    21671.987    29.660363 
   24970    786.99214   -6872.6245   -6784.8343    270.52497    21685.929    29.696437 
   24980    781.33991   -6872.1155   -6784.9558    149.68942    21700.171    29.740925 
   24990    755.18834   -6869.3021   -6785.0597    200.49411     21714.56    29.800183 
   25000    750.78428   -6868.8615   -6785.1104    184.99126     21729.16     29.86982 
Loop time of 14805.1 on 16 procs for 20000 steps with 864 atoms

Performance: 0.117 ns/day, 205.626 hours/ns, 1.351 timesteps/s
97.6% CPU use with 16 MPI tasks x 1 OpenMP threads

MPI task timing breakdown:
Section |  min time  |  avg time  |  max time  |%varavg| %total
---------------------------------------------------------------
Pair    | 10477      | 12639      | 14668      |1080.9 | 85.37
Bond    | 0.002388   | 0.0066359  | 0.020645   |   5.0 |  0.00
Neigh   | 0.21205    | 0.27345    | 0.363      |   9.7 |  0.00
Comm    | 124.12     | 1645.4     | 4306.5     |2912.0 | 11.11
Output  | 1.2689     | 1.2906     | 1.6075     |   7.2 |  0.01
Modify  | 11.365     | 519.05     | 926.01     |1738.6 |  3.51
Other   |            | 0.09261    |            |       |  0.00

Nlocal:        54.0000 ave          73 max          40 min
Histogram: 2 2 1 4 0 2 3 1 0 1
Nghost:        477.688 ave         536 max         422 min
Histogram: 4 1 1 2 0 1 1 1 2 3
Neighs:         0.00000 ave           0 max           0 min
Histogram: 16 0 0 0 0 0 0 0 0 0
FullNghs:      2184.00 ave        3615 max        1332 min
Histogram: 4 2 2 1 0 3 2 1 0 1

Total # of neighbors = 34944
Ave neighs/atom = 40.444444
Ave special neighs/atom = 0.0000000
Neighbor list builds = 2000
Dangerous builds = 2000
Total wall time: 5:08:24
