LAMMPS (2 Aug 2023)
OMP_NUM_THREADS environment is not set. Defaulting to 1 thread. (src/comm.cpp:98)
  using 1 OpenMP thread(s) per MPI task
Reading data file ...
  orthogonal box = (0 0 0) to (23.935472 23.935472 71.806417)
  1 by 1 by 1 MPI processor grid
  reading atoms ...
  1536 atoms
Finding 1-2 1-3 1-4 neighbors ...
  special bond factors lj:    0        0        0       
  special bond factors coul:  0        0        0       
     0 = max # of 1-2 neighbors
     0 = max # of 1-3 neighbors
     0 = max # of 1-4 neighbors
     1 = max # of special neighbors
  special bonds CPU = 0.000 seconds
  read_data CPU = 0.041 seconds
768 atoms in group gSolid
768 atoms in group gLiquid
Neighbor list info ...
  update: every = 1 steps, delay = 10 steps, check = yes
  max neighbors/atom: 2000, page size: 100000
  master list distance cutoff = 6.3
  ghost atom cutoff = 6.3
  binsize = 3.15, bins = 8 8 23
  1 neighbor lists, perpetual/occasional/extra = 1 0 0
  (1) pair chgnet/gpu, perpetual
      attributes: full, newton on
      pair build: full/bin
      stencil: full/bin/3d
      bin: standard
Setting up Verlet run ...
  Unit style    : metal
  Current step  : 0
  Time step     : 0.0005
Per MPI rank memory allocation (min/avg/max) = 6.608 | 6.608 | 6.608 Mbytes
   Step          Temp          PotEng         TotEng         Press          Volume        c_msd[4]   
         0   300           -5641.5608     -5582.0365      24644.909      41138.388      0            
        10   299.24644     -5642.903      -5583.5282      24032.771      41236.455      0.0011128423 
        20   298.54168     -5646.9181     -5587.6831      22024.282      41525.877      0.0083831934 
        30   298.32952     -5652.7321     -5593.5392      19055.207      41983.863      0.03188621   
        40   299.22618     -5659.0942     -5599.7235      15718.665      42556.157      0.081703191  
        50   302.11838     -5664.9723     -5605.0277      12510.463      43161.4        0.1590619    
        60   307.85018     -5670.0176     -5608.9357      9774.5462      43725.844      0.25450375   
        70   316.61489     -5674.4399     -5611.619       7621.4595      44216.88       0.35671545   
        80   327.59356     -5678.5126     -5613.5133      6014.2853      44639.851      0.46001173   
        90   338.89166     -5682.2563     -5615.0154      4822.0875      45013.725      0.56367586   
       100   348.21355     -5685.4885     -5616.398       3929.862       45354.482      0.66848796   
       110   353.7525      -5688.0125     -5617.8229      3289.2934      45671.353      0.77480341   
       120   355.19078     -5689.7769     -5619.3019      2841.0955      45968.799      0.88225961   
       130   354.11313     -5690.9678     -5620.7067      2527.7938      46248.834      0.99003888   
       140   352.38825     -5691.8247     -5621.9058      2259.4281      46512.429      1.0972059    
       150   350.86799     -5692.537      -5622.9198      1973.5295      46759.876      1.2028061    
       160   348.36408     -5692.9479     -5623.8275      1676.4242      46990.914      1.3058232    
       170   342.28744     -5692.608      -5624.6933      1388.1557      47205.114      1.4050982    
       180   331.51585     -5691.3003     -5625.5228      1106.3884      47402.177      1.4993303    
       190   318.16985     -5689.4198     -5626.2903      791.66653      47581.936      1.587142     
       200   306.09349     -5687.6884     -5626.955       419.0442       47744.016      1.6670978    
       210   297.61196     -5686.548      -5627.4975     -42.632352      47887.522      1.7376958    
       220   291.93593     -5685.8419     -5627.9176     -512.29601      48010.913      1.7974362    
       230   287.30263     -5685.2432     -5628.2382     -982.03645      48112.555      1.845138     
       240   283.14828     -5684.6514     -5628.4707     -1409.9339      48190.938      1.8800027    
       250   281.12739     -5684.41       -5628.6303     -1785.3745      48244.974      1.901577     
       260   283.04144     -5684.8964     -5628.7369     -2154.7973      48273.97       1.9098255    
       270   288.55048     -5686.062      -5628.8095     -2485.4253      48277.25       1.9049548    
       280   295.62094     -5687.5415     -5628.8861     -2747.213       48254.439      1.887464     
       290   301.31136     -5688.7775     -5628.993      -2879.2368      48205.82       1.8582019    
       300   303.50249     -5689.3704     -5629.1511     -2882.2313      48132.845      1.8185727    
       310   302.70575     -5689.418      -5629.3568     -2768.8226      48038.131      1.7703739    
       320   300.87098     -5689.2931     -5629.596      -2553.1554      47925.218      1.715638     
       330   298.99029     -5689.1624     -5629.8384     -2233.7235      47798.438      1.656663     
       340   296.7523      -5688.9375     -5630.0576     -1820.1096      47662.77       1.5959174    
       350   294.47653     -5688.6588     -5630.2305     -1327.5689      47523.621      1.5358547    
       360   292.86419     -5688.4427     -5630.3343     -780.65682      47386.623      1.478741     
       370   292.58875     -5688.4156     -5630.3619     -225.17017      47257.189      1.4265331    
       380   294.37409     -5688.7233     -5630.3152      319.99407      47140.062      1.3807386    
       390   298.17911     -5689.3766     -5630.2136      844.09029      47039.209      1.3424237    
       400   303.38554     -5690.28       -5630.084       1315.0291      46957.817      1.3123388    
       410   309.37936     -5691.3497     -5629.9644      1723.1451      46898.169      1.2909669    
       420   315.33168     -5692.4623     -5629.896       2053.2437      46861.732      1.27865      
       430   319.72837     -5693.3555     -5629.9168      2309.9539      46849.185      1.2755729    
       440   321.64016     -5693.8722     -5630.0542      2506.4967      46860.542      1.281768     
       450   321.57701     -5694.1337     -5630.3282      2637.6666      46895.387      1.2971237    
       460   320.8707      -5694.3984     -5630.7331      2662.4396      46952.824      1.3214106    
       470   320.7351      -5694.8932     -5631.2548      2574.7133      47031.132      1.3541879    
       480   321.69568     -5695.704      -5631.8749      2373.2047      47127.671      1.3947474    
       490   322.62862     -5696.5774     -5632.5633      2079.7068      47238.903      1.4420679    
       500   322.51359     -5697.2823     -5633.291       1750.3236      47360.643      1.4948696    
       510   321.60264     -5697.8368     -5634.0262      1405.819       47488.574      1.5517563    
       520   320.32186     -5698.292      -5634.7355      1045.8102      47618.536      1.6113015    
       530   318.54176     -5698.6088     -5635.4055      680.49601      47746.516      1.6720835    
       540   315.93671     -5698.7106     -5636.0242      341.9724       47868.893      1.732702     
       550   312.19301     -5698.5315     -5636.5879      35.963178      47982.65       1.7917676    
       560   307.42128     -5698.0942     -5637.0975     -209.11402      48085.438      1.8478899    
       570   302.81902     -5697.6324     -5637.5488     -398.87059      48175.817      1.899817     
       580   299.83291     -5697.4398     -5637.9487     -552.01193      48253.076      1.9465219    
       590   299.09738     -5697.6478     -5638.3026     -683.55214      48316.927      1.987257     
       600   299.68935     -5698.0862     -5638.6235     -761.64604      48367.415      2.0215179    
       610   299.97553     -5698.4469     -5638.9275     -756.31633      48405.132      2.0490854    
       620   299.13312     -5698.5707     -5639.2184     -700.23311      48431.354      2.0700522    
       630   297.73078     -5698.5721     -5639.4981     -585.41388      48447.813      2.0847789    
       640   296.29938     -5698.5516     -5639.7616     -428.1924       48456.649      2.0939367    
       650   295.1865      -5698.5732     -5640.004      -253.67539      48460.197      2.0985011    
       660   294.65876     -5698.6893     -5640.2248     -78.554198      48460.762      2.0996446    
       670   294.7319      -5698.9014     -5640.4223      79.364056      48460.428      2.0985857    
       680   294.44267     -5699.016      -5640.5943      218.1106       48460.943      2.0963953    
       690   293.30381     -5698.9387     -5640.743       333.54258      48463.708      2.0939612    
       700   292.15232     -5698.8344     -5640.8671      421.11581      48469.769      2.0919756    
       710   291.24629     -5698.7494     -5640.962       458.46461      48479.767      2.0909605    
       720   290.36746     -5698.6344     -5641.0213      477.31651      48493.843      2.0913306    
       730   290.25344     -5698.6366     -5641.0462      478.43393      48511.898      2.0934097    
       740   291.54241     -5698.8831     -5641.0369      464.14013      48533.66       2.0974514    
       750   293.44153     -5699.2141     -5640.9911      420.46262      48558.692      2.1036158    
       760   294.6492      -5699.3811     -5640.9185      390.44959      48586.379      2.1118991    
       770   294.83073     -5699.3199     -5640.8213      391.22864      48616.236      2.1222847    
       780   294.71581     -5699.1808     -5640.7049      408.35045      48648.11       2.1348727    
       790   295.43916     -5699.1852     -5640.5658      415.29583      48682.073      2.1497655    
       800   297.76142     -5699.4895     -5640.4094      405.94205      48718.069      2.1669287    
       810   300.93532     -5699.9484     -5640.2385      402.25724      48755.914      2.1862428    
       820   303.5537      -5700.3003     -5640.0709      383.21399      48795.46       2.2074772    
       830   304.93135     -5700.4175     -5639.9147      367.25348      48836.429      2.2301787    
       840   305.33171     -5700.36       -5639.7778      351.37588      48878.569      2.2538393    
       850   305.29982     -5700.2355     -5639.6596      326.02788      48921.657      2.2779277    
       860   305.44147     -5700.1674     -5639.5634      284.2226       48965.372      2.3019382    
       870   305.82764     -5700.1648     -5639.4842      243.22285      49009.28       2.3254295    
       880   305.77321     -5700.0985     -5639.4287      181.93592      49052.899      2.3481105    
       890   304.27458     -5699.7631     -5639.3906      125.56821      49095.633      2.3696917    
       900   301.35592     -5699.1632     -5639.3699      63.862472      49136.94       2.3899757    
       910   298.0561      -5698.4901     -5639.3515     -30.440949      49176.209      2.4088426    
       920   295.58909     -5697.9741     -5639.325      -125.86769      49212.615      2.4261639    
       930   294.07986     -5697.6273     -5639.2777     -236.88566      49245.295      2.4417892    
       940   292.92523     -5697.3259     -5639.2054     -346.96668      49273.283      2.4554728    
       950   292.07976     -5697.0564     -5639.1036     -469.05443      49295.635      2.4669323    
       960   291.92734     -5696.8912     -5638.9687     -579.10615      49311.397      2.4757524    
       970   292.58978     -5696.859      -5638.805      -664.82068      49319.768      2.4813553    
       980   294.00786     -5696.9458     -5638.6104     -729.31139      49320.24       2.4832231    
       990   295.89416     -5697.0992     -5638.3896     -755.17353      49312.6        2.4810024    
      1000   297.57318     -5697.1974     -5638.1546     -745.53316      49297.045      2.4746138    
      1010   298.75693     -5697.1915     -5637.9139     -679.1086       49274.208      2.46426      
      1020   299.68726     -5697.134      -5637.6718     -588.51663      49245.216      2.4504551    
      1030   301.02851     -5697.1622     -5637.4339     -486.64435      49211.422      2.4338267    
      1040   303.25075     -5697.3713     -5637.202      -360.891        49174.274      2.4150519    
      1050   305.96353     -5697.6951     -5636.9875     -222.00453      49135.374      2.3949174    
      1060   308.49071     -5698.0052     -5636.7963     -69.328983      49096.357      2.3742423    
      1070   310.32085     -5698.2122     -5636.6401      86.517943      49058.875      2.3538301    
      1080   311.05964     -5698.2429     -5636.5242      241.82806      49024.526      2.3343733    
      1090   310.53874     -5698.0668     -5636.4514      395.65148      48994.822      2.316443     
      1100   309.26168     -5697.7852     -5636.4232      517.20087      48971.142      2.3004873    
      1110   308.43435     -5697.631      -5636.4332      595.29124      48954.452      2.2867781    
      1120   308.72823     -5697.7365     -5636.4803      630.01601      48945.2        2.2755808    
      1130   309.51228     -5697.9781     -5636.5665      614.95655      48943.335      2.2671863    
      1140   309.86588     -5698.1829     -5636.701       587.84565      48948.327      2.2617439    
      1150   308.88474     -5698.166      -5636.8789      542.61574      48959.484      2.2593204    
      1160   306.90104     -5697.9921     -5637.0985      485.23583      48976.001      2.2598759    
      1170   305.29162     -5697.9258     -5637.3516      398.21067      48996.96       2.2631723    
      1180   304.28176     -5697.9994     -5637.6255      284.97306      49021.187      2.2687608    
      1190   303.45578     -5698.1261     -5637.9161      159.6177       49047.307      2.2760036    
      1200   302.70014     -5698.2719     -5638.2118      38.714202      49073.848      2.2841524    
      1210   301.87901     -5698.4037     -5638.5066     -85.180867      49099.43       2.2925696    
      1220   300.48997     -5698.4125     -5638.791      -195.1176       49122.767      2.3007283    
      1230   298.4917      -5698.281      -5639.056      -294.3714       49142.753      2.308223     
      1240   296.04662     -5698.0316     -5639.2917     -381.0478       49158.485      2.314653     
      1250   293.14011     -5697.6544     -5639.4912     -437.88882      49169.231      2.3196323    
      1260   290.75972     -5697.3384     -5639.6475     -465.30532      49174.598      2.3229146    
      1270   290.16087     -5697.3281     -5639.7561     -485.99439      49174.533      2.3243764    
      1280   291.09796     -5697.5837     -5639.8257     -486.31133      49169.111      2.3240269    
      1290   292.48478     -5697.8884     -5639.8553     -460.69875      49158.59       2.3219956    
      1300   293.7213      -5698.1367     -5639.8582     -402.36235      49143.486      2.3184646    
      1310   295.16532     -5698.4033     -5639.8383     -314.09683      49124.671      2.3137246    
      1320   296.99035     -5698.7256     -5639.7984     -204.32817      49103.273      2.3080928    
      1330   298.70286     -5699.016      -5639.7491     -81.381504      49080.61       2.301915     
      1340   300.27513     -5699.2731     -5639.6942      38.802615      49058.085      2.2956294    
      1350   301.68376     -5699.4961     -5639.6377      134.52555      49036.994      2.2897448    
      1360   302.50666     -5699.6122     -5639.5905      186.94757      49018.301      2.2847638    
      1370   302.67398     -5699.6078     -5639.5529      231.46583      49002.528      2.2810563    
      1380   302.51445     -5699.5488     -5639.5256      259.66039      48990.005      2.2789592    
      1390   302.51224     -5699.5323     -5639.5096      264.7125       48980.889      2.2786534    
      1400   302.95266     -5699.6118     -5639.5017      218.56612      48975.036      2.2800804    
      1410   303.39249     -5699.7056     -5639.5082      169.62739      48971.868      2.2828742    
      1420   303.51205     -5699.7477     -5639.5265      108.11726      48970.687      2.2865195    
      1430   303.49135     -5699.7788     -5639.5618      46.692151      48970.729      2.2904182    
      1440   303.28272     -5699.7905     -5639.6149     -5.5047603      48971.299      2.2941049    
      1450   302.60341     -5699.7272     -5639.6863     -57.084903      48971.789      2.2972443    
      1460   301.72489     -5699.6473     -5639.7808     -76.192101      48971.664      2.2996195    
      1470   300.96715     -5699.6115     -5639.8953     -80.472273      48970.713      2.301225     
      1480   300.36286     -5699.6349     -5640.0386     -74.580891      48968.926      2.3021341    
      1490   299.60429     -5699.6543     -5640.2085     -50.743324      48966.411      2.3023661    
      1500   298.52342     -5699.6506     -5640.4193     -11.224299      48963.446      2.3018661    
      1510   297.1407      -5699.6265     -5640.6695      31.157636      48960.483      2.3006469    
      1520   295.45462     -5699.5814     -5640.959       81.761647      48957.99       2.2986813    
      1530   293.6173      -5699.5437     -5641.2858      97.323769      48956.451      2.2959309    
      1540   292.27419     -5699.6246     -5641.6332      116.18485      48956.049      2.2922429    
      1550   292.28924     -5699.9821     -5641.9877      90.364692      48956.858      2.287529     
      1560   293.77677     -5700.6251     -5642.3356      30.425718      48958.575      2.2817234    
      1570   295.77651     -5701.3601     -5642.6738     -26.359861      48960.554      2.2747916    
      1580   297.15988     -5701.9622     -5643.0014     -96.277579      48962.127      2.2667742    
      1590   297.76236     -5702.3866     -5643.3063     -157.5609       48962.58       2.2577063    
      1600   298.44058     -5702.8099     -5643.5951     -218.49422      48961.268      2.2476925    
      1610   299.10589     -5703.2073     -5643.8604     -254.35774      48957.609      2.2368919    
      1620   298.72357     -5703.3765     -5644.1054     -277.98482      48951.251      2.2255437    
      1630   297.44123     -5703.3413     -5644.3247     -277.96713      48942.038      2.2139109    
      1640   296.16974     -5703.2802     -5644.5158     -243.98691      48930.097      2.2022812    
      1650   295.59721     -5703.3285     -5644.6778     -212.55867      48915.856      2.1909892    
      1660   296.09152     -5703.5618     -5644.813      -189.43443      48899.721      2.180343     
      1670   297.37007     -5703.924      -5644.9215     -161.51886      48882.025      2.1705981    
      1680   298.67963     -5704.2751     -5645.0128     -137.52504      48863.14       2.1619108    
      1690   299.30055     -5704.4791     -5645.0936     -106.64433      48843.376      2.1543443    
      1700   299.14776     -5704.5223     -5645.1671     -53.90943       48823.104      2.1479701    
      1710   298.29031     -5704.4176     -5645.2325      17.417266      48802.916      2.142926     
      1720   296.7937      -5704.1733     -5645.2852      97.318495      48783.584      2.1393939    
      1730   294.76637     -5703.8093     -5645.3235      178.58536      48765.948      2.1375183    
      1740   292.37334     -5703.3505     -5645.3394      268.98611      48750.858      2.1374891    
      1750   289.71072     -5702.8107     -5645.3279      352.11677      48739.184      2.1395478    
      1760   287.33082     -5702.2877     -5645.2772      420.088        48731.743      2.1439471    
      1770   286.00721     -5701.9303     -5645.1824      467.02684      48729.165      2.1508764    
      1780   286.54543     -5701.89       -5645.0353      458.86398      48731.758      2.160352     
      1790   288.67618     -5702.1178     -5644.8403      433.39316      48739.316      2.1721905    
      1800   290.69031     -5702.2793     -5644.6022      375.43238      48751.375      2.1861498    
      1810   291.85599     -5702.2423     -5644.3339      310.30503      48767.219      2.201846     
      1820   292.80235     -5702.1383     -5644.0421      260.1266       48786.035      2.2187806    
      1830   294.30996     -5702.1387     -5643.7434      180.87748      48807.112      2.2364917    
      1840   296.51963     -5702.28       -5643.4463      90.067367      48829.536      2.2544413    
      1850   298.92538     -5702.4847     -5643.1737      10.160154      48852.313      2.2721504    
      1860   300.82199     -5702.6206     -5642.9332     -74.466805      48874.521      2.2892324    
      1870   301.68347     -5702.5979     -5642.7396     -150.87435      48895.264      2.305328     
      1880   301.57365     -5702.4225     -5642.586      -219.22819      48913.738      2.3201667    
      1890   300.66091     -5702.1226     -5642.4671     -282.75491      48929.239      2.333576     
      1900   299.08465     -5701.7168     -5642.3741     -340.74346      48941.147      2.3454116    
      1910   297.06166     -5701.2356     -5642.2943     -369.2625       48948.962      2.3555458    
      1920   295.16891     -5700.7826     -5642.2169     -382.87685      48952.455      2.3639058    
      1930   294.20497     -5700.5094     -5642.1349     -385.25666      48951.597      2.3704678    
      1940   294.7054      -5700.5204     -5642.0466     -377.56557      48946.492      2.3752992    
      1950   296.15059     -5700.7115     -5641.951      -358.46812      48937.35       2.3785877    
      1960   297.49637     -5700.8745     -5641.847      -318.02921      48924.506      2.380565     
      1970   298.10549     -5700.8936     -5641.7452     -263.37338      48908.491      2.3815139    
      1980   297.89146     -5700.7438     -5641.6378     -189.95664      48890.016      2.3817       
      1990   297.42803     -5700.5431     -5641.5291     -94.897197      48869.971      2.3813397    
      2000   297.5702      -5700.4581     -5641.4159      26.619606      48849.453      2.3806919    
      2010   298.50335     -5700.5186     -5641.2912      145.09436      48829.787      2.3800706    
      2020   299.50231     -5700.5918     -5641.1662      253.39903      48812.255      2.3797851    
      2030   299.87061     -5700.5361     -5641.0375      364.94069      48797.992      2.3802288    
      2040   299.47708     -5700.3314     -5640.9109      471.27473      48788.132      2.3819228    
      2050   298.74471     -5700.0579     -5640.7826      560.38918      48783.726      2.3855011    
      2060   298.65575     -5699.9125     -5640.6549      627.20178      48785.62       2.3915417    
      2070   300.16301     -5700.0787     -5640.5221      635.10944      48794.354      2.4004971    
      2080   303.11557     -5700.5354     -5640.3929      574.89054      48809.816      2.4125702    
      2090   306.45422     -5701.0803     -5640.2754      503.46816      48831.274      2.4275944    
      2100   308.72214     -5701.4352     -5640.1803      400.1319       48857.764      2.4451281    
      2110   309.26459     -5701.4769     -5640.1144      300.94295      48888.057      2.4644361    
      2120   308.39885     -5701.2755     -5640.0848      213.90222      48920.984      2.484738     
      2130   306.82763     -5700.9653     -5640.0863      120.93074      48955.494      2.5052503    
      2140   304.97295     -5700.6266     -5640.1156      40.158347      48990.538      2.5251184    
      2150   302.92892     -5700.2692     -5640.1637     -29.843783      49025.213      2.5436534    
      2160   300.94938     -5699.9385     -5640.2258     -117.0809       49058.698      2.5602946    
      2170   299.47946     -5699.7202     -5640.2992     -193.95763      49090.101      2.5745004    
      2180   298.58392     -5699.6177     -5640.3743     -263.40804      49118.596      2.5857291    
      2190   297.93814     -5699.5712     -5640.456      -332.32898      49143.458      2.5935174    
      2200   297.11933     -5699.4961     -5640.5434     -377.71449      49164.037      2.5976472    
      2210   295.98875     -5699.3584     -5640.63       -389.80174      49179.902      2.5981538    
      2220   294.71619     -5699.1936     -5640.7177     -387.94654      49190.994      2.5952384    
      2230   293.79753     -5699.0914     -5640.7978     -372.36299      49197.478      2.5891644    
      2240   293.63967     -5699.1299     -5640.8676     -344.56642      49199.627      2.5801376    
      2250   294.42627     -5699.3427     -5640.9243     -318.43041      49197.835      2.5683487    
      2260   296.2473      -5699.748      -5640.9683     -296.18955      49192.48       2.5539999    
      2270   298.77276     -5700.2838     -5641.003      -273.81841      49183.885      2.5373049    
      2280   300.93573     -5700.7474     -5641.0375     -253.94558      49172.381      2.518557     
      2290   301.78481     -5700.9602     -5641.0818     -230.19807      49158.285      2.4981396    
      2300   301.63056     -5700.9862     -5641.1384     -168.2142       49141.951      2.4764875    
      2310   301.43019     -5701.0184     -5641.2104     -87.700871      49124.126      2.454292     
      2320   301.99628     -5701.2155     -5641.2951     -45.728816      49105.685      2.4323774    
      2330   303.01978     -5701.5242     -5641.4007     -39.160556      49087.105      2.4113909    
      2340   303.42865     -5701.7358     -5641.5313     -20.966933      49068.519      2.3917546    
      2350   303.02022     -5701.812      -5641.6885     -1.6829817      49050.101      2.3738381    
      2360   302.60554     -5701.9127     -5641.8714     -7.5915772      49032.032      2.3579521    
      2370   302.7212      -5702.1434     -5642.0792     -13.775189      49014.27       2.3442784    
      2380   303.2516      -5702.4844     -5642.3149     -30.921413      48996.71       2.3329453    
      2390   303.7879      -5702.8491     -5642.5733     -21.910735      48979.203      2.3239725    
      2400   303.61001     -5703.0956     -5642.855       2.7185111      48961.816      2.3173852    
      2410   302.02745     -5703.0824     -5643.1558      49.394043      48944.816      2.3132045    
      2420   298.95697     -5702.7729     -5643.4556      109.80573      48928.699      2.3113526    
      2430   295.48536     -5702.3708     -5643.7423      173.58995      48914.123      2.3116346    
      2440   293.20118     -5702.1735     -5643.9981      227.83563      48901.775      2.3138507    
      2450   292.80293     -5702.3115     -5644.2152      248.92047      48892.188      2.317815     
      2460   293.63621     -5702.6543     -5644.3927      235.91666      48885.517      2.3233774    
      2470   294.48966     -5702.9711     -5644.5401      210.97716      48881.577      2.3303623    
      2480   294.66393     -5703.1245     -5644.659       212.69306      48880.102      2.3385727    
      2490   293.94335     -5703.078      -5644.7554      224.68933      48881.039      2.3478499    
      2500   292.6638      -5702.8934     -5644.8247      217.82528      48884.43       2.3581157    
      2510   291.24763     -5702.6517     -5644.864       205.20374      48890.189      2.3692693    
      2520   289.93907     -5702.3994     -5644.8713      189.43035      48898.149      2.3811887    
      2530   288.97831     -5702.1764     -5644.839       176.10554      48908.105      2.3937367    
      2540   288.94728     -5702.0951     -5644.7638      153.92803      48919.863      2.4067459    
      2550   290.3956      -5702.2654     -5644.6467      84.468652      48933.089      2.4199339    
      2560   293.10747     -5702.6418     -5644.4851      2.3216712      48947.025      2.4328626    
      2570   296.43149     -5703.1062     -5644.2899     -82.99466       48960.762      2.4450681    
      2580   299.41038     -5703.4812     -5644.0739     -154.84235      48973.368      2.4560258    
      2590   301.41105     -5703.6515     -5643.8472     -214.65713      48984.039      2.4652003    
      2600   302.0707      -5703.5559     -5643.6208     -229.46757      48992.183      2.4720316    
      2610   301.36286     -5703.1974     -5643.4027     -202.83097      48997.646      2.4760416    
      2620   299.88981     -5702.6902     -5643.1878     -137.64709      49000.774      2.4769061    
      2630   298.96344     -5702.2947     -5642.976      -75.113441      49002.305      2.4745218    
      2640   299.38724     -5702.1658     -5642.7631     -8.6454879      49002.981      2.46891      
      2650   300.49168     -5702.1738     -5642.552       54.216591      49003.546      2.4602496    
      2660   301.28227     -5702.1277     -5642.349       125.97626      49004.736      2.4489592    
      2670   301.87943     -5702.0493     -5642.1521      167.3341       49007.289      2.435734     
      2680   303.22274     -5702.1343     -5641.9705      181.71808      49011.645      2.4213437    
      2690   304.98067     -5702.3196     -5641.807       175.79723      49017.958      2.4065678    
      2700   305.51404     -5702.2837     -5641.6653      187.05019      49026.192      2.3921365    
      2710   303.82993     -5701.8351     -5641.5509      190.56837      49036.39       2.3787791    
      2720   300.6631      -5701.1111     -5641.4552      209.7829       49048.611      2.3671158    
      2730   297.34189     -5700.3593     -5641.3624      215.14402      49063.021      2.3577701    
      2740   295.30149     -5699.8564     -5641.2644      170.58055      49079.604      2.3511647    
      2750   295.40245     -5699.7675     -5641.1554      92.144817      49097.85       2.347411     
      2760   297.28853     -5700.0194     -5641.0331     -5.1252105      49116.874      2.3463802    
      2770   299.63695     -5700.3571     -5640.9048     -111.68878      49135.563      2.347762     
      2780   301.41937     -5700.5896     -5640.7837     -213.76682      49152.74       2.3511127    
      2790   302.43727     -5700.683      -5640.6751     -308.92248      49167.276      2.3558382    
      2800   303.00116     -5700.7057     -5640.5859     -385.25558      49178.136      2.3612531    
      2810   303.1432      -5700.6658     -5640.5178     -421.43521      49184.534      2.3666691    
      2820   302.53218     -5700.4962     -5640.4695     -429.37607      49186.104      2.3714938    
      2830   301.59394     -5700.2794     -5640.4389     -413.99731      49182.801      2.3752807    
      2840   301.13119     -5700.1677     -5640.419      -372.55618      49174.874      2.3778031    
      2850   301.05944     -5700.1432     -5640.4087     -317.19587      49162.849      2.3790977    
      2860   300.79846     -5700.0861     -5640.4033     -259.32209      49147.376      2.3793831    
      2870   300.47683     -5700.0194     -5640.4005     -178.4248       49129.188      2.3789617    
      2880   300.34242     -5699.9941     -5640.4019     -88.282723      49109.21       2.3782311    
      2890   300.51022     -5700.0271     -5640.4016      5.5516686      49088.487      2.3775706    
      2900   301.24627     -5700.1758     -5640.4042      93.135521      49068.062      2.3773237    
      2910   302.46271     -5700.42       -5640.4071      170.6131       49048.923      2.3778694    
      2920   303.51723     -5700.6398     -5640.4176      241.16256      49031.94       2.3796345    
      2930   303.59997     -5700.6786     -5640.44        297.41573      49017.866      2.3830913    
      2940   302.7896      -5700.5493     -5640.4715      337.07778      49007.288      2.3886368    
      2950   302.20905     -5700.4728     -5640.5102      365.48541      49000.604      2.3965256    
      2960   302.65567     -5700.6079     -5640.5567      372.12577      48998.075      2.4068406    
      2970   303.93792     -5700.917      -5640.6114      340.54109      48999.701      2.4194817    
      2980   305.36559     -5701.2645     -5640.6756      318.4098       49005.146      2.4340865    
      2990   306.25367     -5701.5267     -5640.7616      295.19769      49014.107      2.4501991    
      3000   306.18774     -5701.6187     -5640.8666      264.74441      49026.297      2.467313     
      3010   305.0279      -5701.5176     -5640.9957      230.51556      49041.343      2.4848721    
      3020   302.99292     -5701.2576     -5641.1394      189.35731      49058.833      2.5022467    
      3030   300.89248     -5700.9928     -5641.2914      114.65059      49078.255      2.5187898    
      3040   299.51311     -5700.8749     -5641.4472      36.772595      49098.8        2.5338483    
      3050   298.67948     -5700.8562     -5641.5939     -77.329202      49119.52       2.5469478    
      3060   297.61023     -5700.7877     -5641.7376     -187.29581      49139.204      2.5576707    
      3070   296.07842     -5700.6152     -5641.869      -294.94462      49156.609      2.5656908    
      3080   294.06222     -5700.3314     -5641.9853     -389.312        49170.541      2.5708032    
      3090   291.83906     -5699.985      -5642.0799     -448.71882      49179.981      2.5729083    
      3100   289.79374     -5699.6396     -5642.1404     -503.06283      49184.248      2.5720503    
      3110   288.43679     -5699.3972     -5642.1672     -529.6202       49182.795      2.5682956    
      3120   287.98193     -5699.2906     -5642.1509     -543.79957      49175.328      2.561745     
      3130   288.36758     -5699.3042     -5642.0879     -542.24358      49161.749      2.552506     
      3140   289.34918     -5699.3906     -5641.9796     -501.29728      49142.163      2.5407162    
      3150   290.60528     -5699.4781     -5641.8179     -437.17508      49117.061      2.5266338    
      3160   291.84329     -5699.5162     -5641.6103     -351.64275      49087.221      2.5106259    
      3170   293.22123     -5699.5334     -5641.3542     -245.55018      49053.663      2.4931055    
      3180   295.2644      -5699.6371     -5641.0524     -137.73365      49017.571      2.4744899    
      3190   298.07885     -5699.8627     -5640.7196     -2.7650925      48980.223      2.4552653    
      3200   301.32435     -5700.1578     -5640.3708      112.20789      48943.09       2.4360231    
      3210   304.44683     -5700.4354     -5640.0288      220.96197      48907.504      2.4172509    
      3220   306.98399     -5700.6292     -5639.7191      318.97244      48874.669      2.3993495    
      3230   308.92266     -5700.7482     -5639.4535      404.55736      48845.643      2.3826979    
      3240   310.18934     -5700.7928     -5639.2468      473.42555      48821.325      2.3676742    
      3250   310.60015     -5700.7306     -5639.1031      536.91188      48802.47       2.354615     
      3260   310.27113     -5700.579      -5639.0167      574.14132      48789.723      2.3438697    
      3270   309.7067      -5700.4318     -5638.9815      590.34171      48783.447      2.335658     
      3280   309.4696      -5700.3907     -5638.9875      575.08216      48783.774      2.3300635    
      3290   309.57441     -5700.4585     -5639.0345      524.35635      48790.492      2.3270602    
      3300   309.26798     -5700.4764     -5639.1132      458.1893       48803.01       2.3266173    
      3310   307.83931     -5700.2992     -5639.2195      399.80389      48820.591      2.328693     
      3320   305.20976     -5699.8993     -5639.3413      341.20854      48842.576      2.3332879    
      3330   302.2635      -5699.439      -5639.4656      277.76442      48868.308      2.3403409    
      3340   299.91924     -5699.0911     -5639.5828      202.04221      48897.035      2.3496039    
      3350   298.28456     -5698.8684     -5639.6845      116.78529      48927.901      2.3605856    
      3360   297.15551     -5698.7271     -5639.7671      23.62693       48959.948      2.3725776    
      3370   296.55139     -5698.6641     -5639.824      -81.121996      48992.121      2.3847129    
      3380   296.82418     -5698.7563     -5639.8622     -196.64313      49023.245      2.3960237    
      3390   297.73605     -5698.9596     -5639.8845     -313.32022      49052.016      2.4055392    
      3400   298.75947     -5699.172      -5639.8938     -419.14953      49077.14       2.4123802    
      3410   299.57041     -5699.3375     -5639.8985     -505.24806      49097.442      2.4157326    
      3420   299.89822     -5699.4038     -5639.8997     -553.70624      49111.962      2.415016     
      3430   299.82591     -5699.3928     -5639.9031     -574.73909      49120.164      2.4100169    
      3440   299.87583     -5699.4093     -5639.9096     -574.81993      49121.839      2.4008573    
      3450   300.32222     -5699.5012     -5639.913      -564.96752      49116.984      2.3880391    
      3460   301.19129     -5699.6832     -5639.9226     -529.80261      49105.766      2.3722762    
      3470   302.51093     -5699.9575     -5639.935      -487.93627      49088.575      2.3543248    
      3480   303.97798     -5700.2714     -5639.9578     -431.5305       49065.928      2.3348708    
      3490   305.10909     -5700.5354     -5639.9974     -357.03185      49038.49       2.3145273    
      3500   305.99104     -5700.7668     -5640.0538     -282.59871      49007.095      2.293855     
      3510   306.75589     -5700.9979     -5640.1332     -193.62788      48972.637      2.2733931    
      3520   307.02156     -5701.1558     -5640.2383     -80.417263      48936.135      2.253664     
      3530   306.46525     -5701.1766     -5640.3695      54.25085       48898.875      2.235095     
      3540   305.11615     -5701.0646     -5640.5252      207.35759      48862.375      2.2180233    
      3550   303.31055     -5700.876      -5640.6948      364.96138      48828.325      2.2027516    
      3560   301.42064     -5700.6841     -5640.8779      504.40931      48798.447      2.1895134    
      3570   300.11386     -5700.6123     -5641.0654      626.66588      48774.299      2.1785051    
      3580   299.92907     -5700.7661     -5641.2559      702.49622      48757.175      2.169945     
      3590   301.06152     -5701.184      -5641.449       745.33705      48747.93       2.1640677    
      3600   303.37007     -5701.8406     -5641.6476      737.35588      48746.991      2.1611402    
      3610   306.35095     -5702.6488     -5641.8644      683.85363      48754.262      2.1613818    
      3620   308.78803     -5703.3717     -5642.1037      612.38699      48769.158      2.1648445    
      3630   309.69914     -5703.8232     -5642.3745      516.19719      48790.864      2.1714467    
      3640   308.85803     -5703.9489     -5642.667       414.02871      48818.342      2.1809278    
      3650   306.56078     -5703.7976     -5642.9716      304.88993      48850.436      2.1929361    
      3660   303.70864     -5703.5255     -5643.2654      192.73081      48885.92       2.2070724    
      3670   301.34859     -5703.3168     -5643.5249      83.698253      48923.547      2.2229002    
      3680   300.33424     -5703.3307     -5643.7401     -41.173714      48962.069      2.240017     
      3690   300.73082     -5703.5742     -5643.9049     -196.04844      49000.043      2.2579231    
      3700   301.77491     -5703.9086     -5644.0321     -337.28272      49035.755      2.2759442    
      3710   302.34965     -5704.1217     -5644.1312     -472.01813      49067.589      2.2933441    
      3720   302.09632     -5704.1514     -5644.2111     -582.65937      49094.058      2.3093476    
      3730   301.53602     -5704.1107     -5644.2817     -651.66548      49113.92       2.3232406    
      3740   300.97493     -5704.0649     -5644.3472     -693.23824      49126.378      2.3344423    
      3750   300.09561     -5703.9507     -5644.4074     -718.73122      49130.953      2.3424748    
      3760   298.44921     -5703.6812     -5644.4646     -681.18622      49127.421      2.3469404    
      3770   296.1342      -5703.2677     -5644.5104     -606.91688      49116.168      2.3476481    
      3780   293.84656     -5702.8458     -5644.5425     -499.03089      49098.052      2.3446287    
      3790   292.24748     -5702.5345     -5644.5485     -397.39961      49074.259      2.3381105    
      3800   291.63533     -5702.3899     -5644.5253     -298.88448      49045.975      2.3284523    
      3810   291.57234     -5702.3185     -5644.4664     -192.27186      49014.354      2.3161659    
      3820   291.54227     -5702.2222     -5644.376      -72.58323       48980.594      2.3019238    
      3830   291.42068     -5702.0739     -5644.2518      44.095071      48946.021      2.2864771    
      3840   291.63881     -5701.9534     -5644.0881      181.93099      48912.014      2.270702     
      3850   292.79521     -5701.986      -5643.8912      310.43504      48880.082      2.2556025    
      3860   295.18806     -5702.2328     -5643.6632      402.7996       48851.617      2.2421605    
      3870   298.43623     -5702.6298     -5643.4157      484.22705      48827.698      2.2312555    
      3880   301.46586     -5702.9784     -5643.1633      557.26812      48809.242      2.2236113    
      3890   303.54699     -5703.1505     -5642.9224      614.06953      48797.027      2.2197579    
      3900   304.94839     -5703.2091     -5642.703       651.28192      48791.672      2.2200792    
      3910   305.98736     -5703.2249     -5642.5126      648.36352      48793.564      2.2247591    
      3920   306.87455     -5703.2432     -5642.3549      651.99837      48802.758      2.2338141    
      3930   307.95453     -5703.3351     -5642.2325      618.81852      48819.243      2.247195     
      3940   309.4254      -5703.5402     -5642.1457      558.53174      48842.704      2.2646873    
      3950   310.53797     -5703.7145     -5642.0993      477.81551      48872.502      2.2858769    
      3960   310.19262     -5703.6427     -5642.096       404.36859      48907.775      2.3101979    
      3970   308.13186     -5703.2714     -5642.1336      323.44023      48947.676      2.3369833    
      3980   304.96306     -5702.7089     -5642.1998      247.84739      48991.32       2.3654584    
      3990   301.71552     -5702.1519     -5642.2872      180.00176      49037.865      2.3949028    
      4000   299.05108     -5701.7139     -5642.3778      73.448039      49086.485      2.42468      
      4010   297.0461      -5701.4052     -5642.467      -55.338239      49135.971      2.4540915    
      4020   295.48518     -5701.17       -5642.5416     -177.31032      49184.885      2.4824345    
      4030   294.33389     -5700.9987     -5642.5986     -302.56195      49231.796      2.5090883    
      4040   293.71884     -5700.9119     -5642.6338     -426.53471      49275.248      2.5335312    
      4050   293.56507     -5700.8954     -5642.6479     -528.67135      49313.829      2.555367     
      4060   293.60963     -5700.8939     -5642.6376     -632.32329      49346.316      2.5742609    
      4070   293.67969     -5700.8719     -5642.6017     -730.25093      49371.509      2.5898345    
      4080   293.9479      -5700.8661     -5642.5426     -788.71844      49388.358      2.601667     
      4090   294.11564     -5700.8082     -5642.4515     -818.2878       49396.165      2.6094569    
      4100   293.72739     -5700.6072     -5642.3275     -825.15074      49394.561      2.6129899    
      4110   292.85449     -5700.2651     -5642.1586     -782.43551      49383.513      2.612105     
      4120   292.39684     -5699.952      -5641.9363     -695.15005      49363.517      2.6068782    
      4130   293.33722     -5699.8473     -5641.645      -606.95048      49335.542      2.597671     
      4140   295.98324     -5700.0099     -5641.2826     -499.5014       49300.654      2.5848895    
      4150   299.44717     -5700.2834     -5640.8688     -364.76793      49260.108      2.5690407    
      4160   302.61476     -5700.4713     -5640.4282     -193.94086      49215.473      2.5508012    
      4170   304.63015     -5700.4384     -5639.9954      3.1135529      49168.7        2.5310049    
      4180   305.04251     -5700.1293     -5639.6045      223.02651      49122.049      2.5105849    
      4190   304.403       -5699.6591     -5639.2611      432.85962      49077.996      2.4905968    
      4200   303.99673     -5699.2925     -5638.9752      612.74105      49038.902      2.4720854    
      4210   304.35217     -5699.1266     -5638.7388      747.57928      49006.748      2.4560564    
      4220   305.0667      -5699.0804     -5638.5508      859.96485      48983.09       2.44349      
      4230   305.49607     -5699.0229     -5638.4082      925.10859      48969.144      2.4352226    
      4240   305.28351     -5698.8842     -5638.3115      945.34642      48965.617      2.4317999    
      4250   304.33924     -5698.6355     -5638.2502      915.97524      48972.709      2.4334414    
      4260   303.13505     -5698.3667     -5638.2204      857.9945       48990.122      2.4400611    
      4270   302.43774     -5698.2162     -5638.2082      759.58336      49017.201      2.4514093    
      4280   302.69062     -5698.2667     -5638.2086      626.42132      49052.869      2.4670994    
      4290   303.86128     -5698.5128     -5638.2224      449.09805      49095.614      2.4865744    
      4300   305.53967     -5698.8669     -5638.2435      265.48563      49143.497      2.5091423    
      4310   307.20256     -5699.2365     -5638.2831      75.459381      49194.409      2.5341018    
      4320   308.34817     -5699.5243     -5638.3436     -99.467494      49246.194      2.5606903    
      4330   308.67249     -5699.677      -5638.432      -266.30081      49296.793      2.5880098    
      4340   307.97494     -5699.6561     -5638.5495     -408.85129      49344.273      2.6150309    
      4350   306.36057     -5699.4781     -5638.6918     -513.21545      49386.993      2.6407826    
      4360   304.3191      -5699.2423     -5638.861      -591.73167      49423.732      2.6644031    
      4370   302.3637      -5699.0358     -5639.0425     -671.34714      49453.554      2.6850633    
      4380   300.61702     -5698.8805     -5639.2338     -720.34149      49475.59       2.7019672    
      4390   299.25112     -5698.8047     -5639.429      -763.62014      49489.245      2.7145308    
      4400   298.56505     -5698.8611     -5639.6215     -790.34035      49494.073      2.7222797    
      4410   298.52696     -5699.0424     -5639.8103     -796.19085      49489.807      2.7248921    
      4420   298.48506     -5699.2192     -5639.9955     -789.7035       49476.392      2.7222374    
      4430   297.8405      -5699.2727     -5640.1769     -748.78631      49453.965      2.71423      
      4440   296.25187     -5699.1284     -5640.3478     -681.30786      49423.019      2.7009306    
      4450   294.06399     -5698.849      -5640.5025     -585.88101      49384.385      2.6825534    
      4460   292.21922     -5698.6099     -5640.6294     -473.00913      49339.194      2.6594099    
      4470   291.76839     -5698.6146     -5640.7236     -354.16393      49288.786      2.6319572    
      4480   293.2341      -5698.9662     -5640.7843     -239.3205       49234.549      2.6007785    
      4490   296.31197     -5699.6089     -5640.8163     -123.59442      49177.848      2.5666803    
      4500   300.05031     -5700.3647     -5640.8305      0.61783567     49120.057      2.5307522    
      4510   303.83586     -5701.1228     -5640.8374      128.15664      49062.612      2.494258     
      4520   307.16536     -5701.8014     -5640.8554      264.30971      49006.988      2.458515     
      4530   309.48478     -5702.3082     -5640.902       392.96458      48954.691      2.424766     
      4540   310.68771     -5702.632      -5640.9871      519.84033      48907.177      2.3940858    
      4550   311.0634      -5702.8473     -5641.1279      623.89031      48865.82       2.3672947    
      4560   310.83622     -5703.007      -5641.3326      710.05925      48831.725      2.344975     
      4570   309.75319     -5703.0725     -5641.613       781.46166      48805.816      2.3275932    
      4580   307.66989     -5703.0231     -5641.977       835.04015      48788.811      2.3154012    
      4590   305.07189     -5702.9531     -5642.4225      845.43144      48781.186      2.3084854    
      4600   302.39161     -5702.9286     -5642.9298      832.347        48783.032      2.3068106    
      4610   299.66266     -5702.9139     -5643.4566      800.52552      48794.16       2.3102321    
      4620   296.56376     -5702.796      -5643.9535      747.54681      48814.163      2.3184903    
      4630   293.23629     -5702.554      -5644.3717      687.11464      48842.423      2.3312611    
      4640   290.80456     -5702.3822     -5644.6824      585.53917      48878.2        2.3481505    
      4650   289.84772     -5702.3998     -5644.8898      447.82829      48920.362      2.3685485    
      4660   289.82901     -5702.5151     -5645.0089      289.76566      48967.356      2.3916742    
      4670   290.07494     -5702.6173     -5645.0623      122.52123      49017.389      2.416691     
      4680   290.56039     -5702.7151     -5645.0637     -41.157248      49068.545      2.4427348    
      4690   291.25222     -5702.8176     -5645.029      -220.58563      49118.921      2.4690012    
      4700   291.58105     -5702.818      -5644.9641     -382.37105      49166.527      2.4946784    
      4710   291.2108      -5702.6521     -5644.8717     -508.98083      49209.536      2.5189866    
      4720   290.48163     -5702.3903     -5644.7545     -605.04381      49246.526      2.5413654    
      4730   289.98824     -5702.15       -5644.6122     -685.96025      49276.4        2.5613833    
      4740   290.26963     -5702.0361     -5644.4425     -748.22306      49298.274      2.5786802    
      4750   291.63632     -5702.1134     -5644.2486     -790.5628       49311.476      2.5929801    
      4760   293.59443     -5702.2874     -5644.034      -791.50773      49315.602      2.6041184    
      4770   295.29745     -5702.3961     -5643.8049     -767.54624      49310.666      2.6121051    
      4780   296.3864      -5702.3767     -5643.5694     -714.34889      49297.003      2.6169936    
      4790   297.10053     -5702.283      -5643.334      -610.29834      49275.323      2.6189756    
      4800   297.7296      -5702.1672     -5643.0934     -477.33317      49246.848      2.6183789    
      4810   298.65378     -5702.1141     -5642.8569     -341.11822      49213.119      2.6155873    
      4820   299.83971     -5702.1156     -5642.6231     -201.17702      49175.746      2.6109486    
      4830   300.92918     -5702.1053     -5642.3967     -56.329753      49136.371      2.6048101    
      4840   301.6003      -5702.024      -5642.1822      75.153008      49096.626      2.5975749    
      4850   301.75796     -5701.8519     -5641.9788      190.56667      49057.991      2.5896726    
      4860   301.69515     -5701.6523     -5641.7917      280.38966      49021.752      2.5815293    
      4870   302.12728     -5701.5648     -5641.6184      366.12618      48988.943      2.5734722    
      4880   303.45485     -5701.6703     -5641.4605      422.15565      48960.455      2.5658686    
      4890   305.30386     -5701.8962     -5641.3196      489.83279      48936.958      2.5590692    
      4900   306.93507     -5702.1028     -5641.2025      523.61016      48919.088      2.5534468    
      4910   307.89991     -5702.209      -5641.1172      557.27804      48907.226      2.5492983    
      4920   308.11736     -5702.2009     -5641.066       569.28549      48901.672      2.5468893    
      4930   307.98271     -5702.153      -5641.0448      556.07928      48902.531      2.5464061    
      4940   308.00357     -5702.1742     -5641.0619      518.62187      48909.598      2.5479211    
      4950   308.08908     -5702.2401     -5641.1108      465.40929      48922.429      2.5514935    
      4960   307.90361     -5702.2877     -5641.1952      394.97788      48940.403      2.5571543    
      4970   307.29182     -5702.2874     -5641.3163      327.74508      48962.732      2.5648445    
      4980   306.29504     -5702.2456     -5641.4723      247.26194      48988.622      2.5744393    
      4990   305.26758     -5702.2295     -5641.66        149.60982      49017.155      2.5857028    
      5000   304.22681     -5702.2375     -5641.8746      52.916852      49047.25       2.5982355    
      5010   302.82222     -5702.2002     -5642.1159     -28.799715      49077.832      2.6115681    
      5020   300.93027     -5702.0823     -5642.3734     -104.583        49107.943      2.6251977    
      5030   298.79627     -5701.9255     -5642.6401     -162.02312      49136.751      2.6385214    
      5040   296.7099      -5701.7725     -5642.901      -217.57828      49163.58       2.6509291    
      5050   295.14264     -5701.704      -5643.1435     -258.80343      49187.833      2.6618335    
      5060   294.59673     -5701.8193     -5643.3671     -314.79213      49209.013      2.6707142    
      5070   294.91854     -5702.0801     -5643.564      -368.51706      49226.515      2.6771165    
      5080   295.49419     -5702.3676     -5643.7373     -415.01573      49239.751      2.6806473    
      5090   295.92735     -5702.6063     -5643.8901     -443.83263      49248.219      2.6809865    
      5100   296.13635     -5702.7821     -5644.0244     -456.2729       49251.598      2.6778949    
      5110   296.2721      -5702.9238     -5644.1392     -455.04957      49249.778      2.6712918    
      5120   296.51618     -5703.0707     -5644.2376     -426.67797      49242.813      2.6613939    
      5130   296.91838     -5703.23       -5644.3171     -391.86372      49231.021      2.6487084    
      5140   297.37155     -5703.3856     -5644.3828     -312.59588      49214.875      2.6340101    
      5150   297.67222     -5703.498      -5644.4356     -209.42679      49195.269      2.6183184    
      5160   297.433       -5703.4907     -5644.4758     -80.434877      49173.404      2.6026859    
      5170   296.5709      -5703.3512     -5644.5073      71.515294      49150.743      2.5881889    
      5180   295.54147     -5703.1626     -5644.5229      236.13747      49129.025      2.5759628    
      5190   295.07783     -5703.0674     -5644.5197      393.6552       49110.12       2.5670745    
      5200   295.62222     -5703.1582     -5644.5025      511.65848      49095.741      2.5624037    
      5210   296.49484     -5703.2944     -5644.4656      582.8289       49087.185      2.5625808    
      5220   296.66204     -5703.2765     -5644.4145      624.29695      49085.242      2.5678767    
      5230   295.8031      -5703.0359     -5644.3443      646.17858      49090.357      2.5782013    
      5240   294.56967     -5702.6942     -5644.2474      635.3887       49102.745      2.5932486    
      5250   293.86482     -5702.4119     -5644.1049      578.61715      49122.253      2.6125067    
      5260   294.29457     -5702.2811     -5643.8889      489.54679      49148.242      2.6352974    
      5270   295.95256     -5702.3057     -5643.5844      365.1429       49179.7        2.6608167    
      5280   298.45291     -5702.384      -5643.1667      219.63461      49215.225      2.6881369    
      5290   301.21937     -5702.4137     -5642.6475      85.204748      49253.196      2.7163803    
      5300   303.54274     -5702.2928     -5642.0656     -61.820813      49292.022      2.7447447    
      5310   305.19362     -5702.0402     -5641.4854     -188.51156      49330.062      2.7724541    
      5320   306.37628     -5701.7574     -5640.968      -314.80815      49365.828      2.7987936    
      5330   307.19278     -5701.4894     -5640.5379     -396.32943      49397.939      2.8230654    
      5340   307.31684     -5701.1851     -5640.209      -454.28706      49425.432      2.844865     
      5350   306.54213     -5700.7866     -5639.9643     -495.75645      49447.641      2.8640434    
      5360   305.01382     -5700.3051     -5639.7859     -505.82472      49464.133      2.8806146    
      5370   302.98005     -5699.7722     -5639.6566     -483.52556      49474.826      2.8947135    
      5380   300.93795     -5699.2665     -5639.5561     -445.09014      49479.934      2.9066113    
      5390   299.41498     -5698.8798     -5639.4715     -400.33657      49479.889      2.9166173    
      5400   298.86472     -5698.6915     -5639.3925     -338.77007      49475.246      2.9250733    
      5410   299.55834     -5698.7516     -5639.3149     -281.86885      49466.687      2.9323379    
      5420   301.25626     -5699.0167     -5639.2432     -231.08977      49454.891      2.9387454    
      5430   303.28378     -5699.3514     -5639.1756     -177.30967      49440.454      2.9445021    
      5440   304.92019     -5699.6221     -5639.1215     -116.82008      49424.001      2.949791     
      5450   306.01128     -5699.8041     -5639.0871     -44.72973       49406.244      2.9548337    
      5460   306.9523      -5699.9791     -5639.0754      5.0808481      49387.96       2.9598005    
      5470   307.5868      -5700.1223     -5639.0927      48.291969      49369.759      2.9646772    
      5480   307.36054     -5700.1219     -5639.1372      83.836818      49352.128      2.9692972    
      5490   306.29723     -5699.9872     -5639.2134      117.47545      49335.483      2.9733736    
      5500   304.60325     -5699.7546     -5639.317       139.50045      49320.174      2.9766087    
      5510   302.53404     -5699.4694     -5639.4423      160.87638      49306.459      2.978764     
      5520   300.51564     -5699.2094     -5639.5827      194.95733      49294.606      2.9796904    
      5530   299.22039     -5699.0991     -5639.7295      217.51752      49284.967      2.9793461    
      5540   299.06451     -5699.2218     -5639.8831      231.51881      49277.798      2.977756     
      5550   299.6286      -5699.4913     -5640.0407      247.29511      49273.279      2.9750659    
      5560   299.98408     -5699.7261     -5640.2049      262.06918      49271.582      2.9715619    
      5570   299.77193     -5699.8575     -5640.3785      278.81857      49272.884      2.9676677    
      5580   299.23795     -5699.9319     -5640.5588      281.77577      49277.351      2.9638443    
      5590   298.69138     -5700.0051     -5640.7405      289.37402      49285.074      2.9606066    
      5600   298.23294     -5700.0989     -5640.9252      288.76112      49296.124      2.9584983    
      5610   297.82718     -5700.2025     -5641.1093      269.71228      49310.469      2.9579414    
      5620   297.51107     -5700.3215     -5641.2911      225.51715      49327.903      2.959171     
      5630   297.33559     -5700.464      -5641.4683      152.30435      49347.931      2.9622822    
      5640   297.10343     -5700.594      -5641.6444      61.637485      49369.744      2.9671986    
      5650   296.62296     -5700.6694     -5641.8152     -50.05785       49392.286      2.9736835    
      5660   295.93637     -5700.6984     -5641.9804     -150.71846      49414.329      2.9812723    
      5670   295.13152     -5700.6965     -5642.1382     -240.82265      49434.719      2.9893535    
      5680   294.22327     -5700.6647     -5642.2866     -298.38861      49452.457      2.9973275    
      5690   293.58557     -5700.6757     -5642.4241     -342.96271      49466.809      3.0047026    
      5700   293.47829     -5700.7775     -5642.5472     -372.32259      49477.255      3.0110418    
      5710   293.58586     -5700.9067     -5642.6551     -398.52416      49483.422      3.0159546    
      5720   293.42391     -5700.9686     -5642.7491     -407.57705      49484.996      3.0190085    
      5730   292.75672     -5700.917      -5642.8299     -383.01617      49481.904      3.0198626    
      5740   291.67106     -5700.7657     -5642.894      -334.66342      49474.413      3.0183633    
      5750   290.703       -5700.6119     -5642.9323     -278.5968       49463.027      3.0145276    
      5760   290.75976     -5700.6295     -5642.9386     -244.13205      49448.34       3.0085074    
      5770   292.30328     -5700.9056     -5642.9085     -201.45099      49430.778      3.0005592    
      5780   294.9653      -5701.3641     -5642.8388     -167.47346      49410.776      2.9910371    
      5790   297.89294     -5701.8307     -5642.7245     -120.0008       49388.756      2.9802935    
      5800   300.3599      -5702.1727     -5642.577      -83.536919      49365.198      2.9686586    
      5810   302.0109      -5702.3185     -5642.3952     -24.845836      49340.563      2.9563169    
      5820   302.86756     -5702.2811     -5642.1879      43.073758      49315.517      2.9435342    
      5830   302.99769     -5702.079      -5641.9599      106.9866       49290.826      2.9306693    
      5840   302.92904     -5701.8179     -5641.7124      178.60479      49267.243      2.918061     
      5850   303.43476     -5701.6615     -5641.4557      223.72346      49245.526      2.9060044    
      5860   304.88884     -5701.6849     -5641.1906      259.92883      49226.214      2.8946828    
      5870   307.02684     -5701.8545     -5640.936       261.62111      49209.688      2.8842347    
      5880   309.4649      -5702.1024     -5640.7001      245.40425      49196.021      2.8747257    
      5890   311.86354     -5702.3741     -5640.496       206.50981      49185.033      2.8661444    
      5900   313.80275     -5702.6005     -5640.3375      167.31335      49176.342      2.8583419    
      5910   314.75754     -5702.6865     -5640.2341      126.96616      49169.489      2.8510653    
      5920   314.56323     -5702.5997     -5640.1859      106.9999       49164.064      2.8440316    
      5930   313.48264     -5702.3994     -5640.2         97.700669      49159.837      2.8370681    
      5940   311.87844     -5702.15       -5640.2689      103.72476      49156.713      2.8300969    
      5950   310.3974      -5701.9786     -5640.3913      105.15392      49154.724      2.823038     
      5960   309.3116      -5701.931      -5640.5592      131.03568      49153.93       2.8158571    
      5970   308.24068     -5701.9347     -5640.7753      149.00108      49154.594      2.808661     
      5980   306.79535     -5701.9054     -5641.0328      162.84623      49156.968      2.8016118    
      5990   304.718       -5701.7798     -5641.3194      196.36282      49161.251      2.7948944    
      6000   301.79997     -5701.5099     -5641.6285      232.56125      49167.811      2.7888034    
      6010   298.14687     -5701.0928     -5641.9362      247.77554      49177.079      2.7835967    
      6020   294.16796     -5700.594      -5642.2269      263.75527      49189.292      2.7794016    
      6030   290.51494     -5700.1187     -5642.4763      270.46879      49204.624      2.7762891    
      6040   287.96938     -5699.8147     -5642.6774      262.83993      49223.195      2.774383     
      6050   286.93302     -5699.751      -5642.8194      238.75969      49244.974      2.7738193    
      6060   287.27843     -5699.9059     -5642.9057      173.44439      49269.672      2.7746459    
      6070   288.34768     -5700.1501     -5642.9378      96.273443      49296.619      2.7767719    
      6080   289.76937     -5700.4189     -5642.9246      16.063886      49324.966      2.7800226    
      6090   291.10349     -5700.6321     -5642.873      -75.459194      49353.789      2.7841398    
      6100   291.95365     -5700.7137     -5642.786      -140.56583      49382.093      2.7888025    
      6110   292.52433     -5700.7101     -5642.6691     -209.61375      49409.064      2.7937253    
      6120   293.52067     -5700.7676     -5642.5289     -268.00085      49433.936      2.7985488    
      6130   295.51537     -5700.9979     -5642.3634     -346.69087      49455.949      2.8029357    
      6140   298.6249      -5701.4363     -5642.1848     -419.32195      49474.192      2.8065105    
      6150   302.56395     -5702.038      -5642.0049     -494.22431      49487.761      2.8089579    
      6160   306.42409     -5702.64       -5641.8411     -549.88719      49495.761      2.81         
      6170   309.16398     -5703.0487     -5641.7061     -579.76059      49497.487      2.809434     
      6180   310.17067     -5703.1578     -5641.6155     -574.95358      49492.541      2.8071138    
      6190   310.21831     -5703.1219     -5641.5702     -551.41178      49480.892      2.8030188    
      6200   310.2728      -5703.1337     -5641.5711     -524.96104      49462.704      2.7971005    
      6210   310.19897     -5703.163      -5641.615      -478.61847      49438.237      2.7892437    
      6220   309.46061     -5703.0996     -5641.6982     -412.79808      49407.981      2.7794209    
      6230   308.21306     -5702.9744     -5641.8205     -343.51702      49372.616      2.7676894    
      6240   306.91308     -5702.8693     -5641.9733     -242.38919      49332.938      2.7542074    
      6250   305.33792     -5702.7389     -5642.1555     -139.06232      49290.047      2.739334     
      6260   303.26648     -5702.5254     -5642.353      -22.30333       49245.13       2.7234403    
      6270   301.2153      -5702.3284     -5642.5629      93.6104        49199.514      2.7069787    
      6280   299.60899     -5702.2236     -5642.7769      196.47849      49154.541      2.6904469    
      6290   298.46454     -5702.2072     -5642.9875      293.71733      49111.419      2.6743389    
      6300   297.62185     -5702.2441     -5643.1917      395.0989       49071.299      2.65909      
      6310   297.13491     -5702.3416     -5643.3857      477.19649      49035.337      2.6450861    
      6320   296.96842     -5702.4899     -5643.5671      553.63434      49004.533      2.6326834    
      6330   297.06387     -5702.6825     -5643.7408      588.10947      48979.717      2.6222529    
      6340   297.11799     -5702.8572     -5643.9047      612.76596      48961.365      2.6140511    
      6350   296.81084     -5702.948      -5644.0565      640.94651      48949.811      2.6082763    
      6360   296.27555     -5702.9868     -5644.2015      661.05864      48945.402      2.6051063    
      6370   295.80604     -5703.0275     -5644.3353      667.57896      48948.422      2.6046321    
      6380   295.92092     -5703.1721     -5644.4572      651.73725      48959.014      2.6068703    
      6390   296.54663     -5703.4083     -5644.5692      606.81816      48977.076      2.6117738    
      6400   297.47222     -5703.6973     -5644.6745      531.95746      49002.201      2.619211     
      6410   298.73344     -5704.0481     -5644.7751      439.31092      49033.65       2.6289177    
      6420   300.44129     -5704.4912     -5644.8794      320.94527      49070.438      2.6405568    
      6430   302.18588     -5704.9574     -5644.9994      193.49216      49111.302      2.6536631    
      6440   303.09106     -5705.2826     -5645.145       66.411515      49154.838      2.6676308    
      6450   302.65935     -5705.4001     -5645.3482     -47.044184      49199.642      2.6817489    
      6460   301.05341     -5705.3668     -5645.6335     -164.45306      49244.387      2.695243     
      6470   298.36172     -5705.2467     -5646.0475     -258.224        49287.764      2.7073389    
      6480   294.55524     -5705.0559     -5646.6119     -365.2694       49328.586      2.7173609    
      6490   290.01042     -5704.8241     -5647.2819     -454.0824       49365.622      2.7246424    
      6500   285.77818     -5704.6509     -5647.9484     -531.3996       49397.765      2.7286505    
      6510   282.66756     -5704.5923     -5648.507      -580.41276      49424.088      2.7290189    
      6520   280.93178     -5704.6538     -5648.9129     -620.83479      49443.938      2.7255242    
      6530   280.30319     -5704.8021     -5649.186      -637.50818      49456.81       2.7180053    
      6540   280.28199     -5704.957      -5649.3451     -621.72221      49462.452      2.7064415    
      6550   280.70498     -5705.1112     -5649.4153     -594.18791      49460.945      2.691048     
      6560   281.89098     -5705.3448     -5649.4136     -553.63906      49452.556      2.6721311    
      6570   283.83311     -5705.6642     -5649.3476     -514.97673      49437.695      2.6501774    
      6580   285.83337     -5705.9425     -5649.2291     -461.50686      49416.806      2.6257972    
      6590   287.43938     -5706.0948     -5649.0628     -403.74675      49390.441      2.5996408    
      6600   288.86928     -5706.1681     -5648.8523     -315.403        49359.305      2.5724268    
      6610   290.44041     -5706.2329     -5648.6054     -228.44858      49324.354      2.544885     
      6620   292.09988     -5706.2882     -5648.3314     -148.25934      49286.583      2.5176385    
      6630   293.65348     -5706.301      -5648.036      -69.21996       49246.911      2.4911081    
      6640   294.72585     -5706.2073     -5647.7294      18.376184      49206.283      2.4655763    
      6650   295.40985     -5706.0355     -5647.422       102.17365      49165.687      2.4412476    
      6660   296.17105     -5705.8802     -5647.1157      180.94386      49126.087      2.4183656    
      6670   297.2404      -5705.7949     -5646.8182      254.20889      49088.412      2.3971938    
      6680   298.77792     -5705.8187     -5646.5369      334.94406      49053.524      2.3779944    
      6690   300.70076     -5705.9359     -5646.2726      411.68237      49022.307      2.361041     
      6700   302.73148     -5706.1018     -5646.0355      466.96754      48995.628      2.3466419    
      6710   304.17794     -5706.1816     -5645.8284      522.38143      48974.162      2.3350082    
      6720   304.34432     -5706.0417     -5645.6555      587.07349      48958.532      2.3263505    
      6730   303.06497     -5705.647      -5645.5145      636.42917      48949.455      2.3209036    
      6740   300.99668     -5705.1178     -5645.3957      675.46108      48947.536      2.3189229    
      6750   298.91534     -5704.6014     -5645.2924      701.3617       48953.238      2.3206532    
      6760   297.23384     -5704.1675     -5645.192       695.0988       48966.878      2.3263613    
      6770   296.17347     -5703.8536     -5645.0886      641.12044      48988.429      2.3361842    
      6780   295.88054     -5703.6793     -5644.9724      545.58603      49017.335      2.350007     
      6790   296.07821     -5703.5885     -5644.8423      410.00305      49052.55       2.3673871    
      6800   296.16744     -5703.457      -5644.6932      264.15119      49092.612      2.3875988    
      6810   296.02349     -5703.264      -5644.5287      120.29275      49135.879      2.4098478    
      6820   295.70609     -5703.0187     -5644.3464     -8.3887081      49180.752      2.4334749    
      6830   295.40934     -5702.7572     -5644.1438     -137.49397      49225.714      2.4578819    
      6840   295.50554     -5702.5576     -5643.9251     -247.53985      49269.278      2.4824788    
      6850   296.01682     -5702.4254     -5643.6914     -355.69709      49310.131      2.5067643    
      6860   296.73843     -5702.3181     -5643.441      -438.18435      49347.03       2.53022      
      6870   297.51212     -5702.2185     -5643.1878     -495.85198      49378.987      2.552416     
      6880   298.28698     -5702.1174     -5642.933      -532.15883      49405.282      2.5730908    
      6890   299.07162     -5702.027      -5642.6869     -565.24888      49425.455      2.5920788    
      6900   299.94755     -5701.9622     -5642.4483     -577.29328      49439.151      2.6092645    
      6910   300.62697     -5701.8754     -5642.2267     -571.68665      49446.211      2.6246377    
      6920   300.67569     -5701.6816     -5642.0233     -536.11783      49446.723      2.6382841    
      6930   300.20182     -5701.4048     -5641.8404     -466.90392      49441.102      2.6503821    
      6940   299.62879     -5701.1316     -5641.6809     -391.78381      49430.115      2.6612481    
      6950   299.48921     -5700.9562     -5641.5332     -316.59461      49414.636      2.67127      
      6960   299.74219     -5700.8752     -5641.4021     -234.5521       49395.553      2.6808221    
      6970   300.27646     -5700.8643     -5641.2851     -150.66488      49373.808      2.6902352    
      6980   301.11833     -5700.9261     -5641.18       -57.287297      49350.397      2.6997269    
      6990   302.32567     -5701.0774     -5641.0916      25.957946      49326.367      2.7093866    
      7000   303.74044     -5701.2799     -5641.0135      115.70029      49302.704      2.7192083    
      7010   305.12923     -5701.5        -5640.958       202.11268      49280.422      2.7291474    
      7020   306.4668      -5701.7325     -5640.9251      280.17274      49260.514      2.7391373    
      7030   307.74376     -5701.9779     -5640.9171      338.30372      49243.856      2.7491032    
      7040   308.62905     -5702.1749     -5640.9385      372.74387      49231.09       2.7589669    
      7050   308.67458     -5702.235      -5640.9895      391.61222      49222.606      2.768561     
      7060   307.67342     -5702.12       -5641.0732      386.61368      49218.601      2.7777868    
      7070   305.73523     -5701.8439     -5641.1816      368.61346      49219.021      2.7865302    
      7080   303.41591     -5701.5117     -5641.3097      354.68784      49223.648      2.7946133    
      7090   301.51965     -5701.2697     -5641.4438      310.02899      49232.248      2.8018855    
      7100   300.4463      -5701.1895     -5641.5766      243.71726      49244.303      2.808116     
      7110   300.16047     -5701.2605     -5641.7044      150.26538      49259.012      2.813009     
      7120   300.43348     -5701.4344     -5641.8241      31.737073      49275.291      2.8161941    
      7130   300.94326     -5701.649      -5641.9376     -72.97562       49291.825      2.8172619    
      7140   301.62305     -5701.8878     -5642.0415     -165.78019      49307.4        2.8158823    
      7150   302.56413     -5702.1823     -5642.1492     -233.12088      49320.989      2.8118099    
      7160   303.94233     -5702.5657     -5642.2592     -295.93103      49331.81       2.8049277    
      7170   305.48135     -5702.9879     -5642.376      -342.33641      49339.177      2.7951318    
      7180   306.65377     -5703.3538     -5642.5093     -352.79624      49342.616      2.7823461    
      7190   307.00208     -5703.5728     -5642.6591     -332.95599      49342.016      2.7667256    
      7200   306.64388     -5703.665      -5642.8225     -306.81565      49337.617      2.7486803    
      7210   305.99536     -5703.7112     -5642.9973     -256.02029      49329.794      2.7286843    
      7220   305.05722     -5703.7006     -5643.1728     -168.33628      49319.183      2.7073006    
      7230   303.7719      -5703.6163     -5643.3436     -82.931416      49306.736      2.6852468    
      7240   302.25885     -5703.4735     -5643.501       9.1523933      49293.454      2.6632796    
      7250   300.77546     -5703.3201     -5643.6419      90.713582      49280.379      2.6422396    
      7260   299.27455     -5703.1406     -5643.7603      162.50623      49268.463      2.622876     
      7270   297.79295     -5702.9388     -5643.8525      210.87733      49258.482      2.6057809    
      7280   296.50872     -5702.7532     -5643.9216      258.92077      49250.994      2.5913657    
      7290   295.43682     -5702.5854     -5643.9666      259.37529      49246.461      2.579913     
      7300   294.34015     -5702.3899     -5643.9886      238.27208      49244.907      2.5714721    
      7310   293.27556     -5702.1735     -5643.9834      196.14419      49246.049      2.5659104    
      7320   292.52817     -5701.9966     -5643.9548      162.17283      49249.438      2.5629683    
      7330   292.25485     -5701.8896     -5643.9021      113.53219      49254.625      2.5623258    
      7340   292.45764     -5701.8501     -5643.8223      61.79092       49261.052      2.5635977    
      7350   293.07389     -5701.8743     -5643.7242      10.792586      49268.122      2.5664093    
      7360   293.86802     -5701.9087     -5643.6011     -25.803864      49275.271      2.5704576    
      7370   294.46092     -5701.8864     -5643.4611     -42.277243      49282.077      2.5755308    
      7380   294.79194     -5701.8007     -5643.3097     -48.783648      49288.333      2.5815341    
      7390   295.16163     -5701.7073     -5643.143      -36.648123      49293.983      2.5884047    
      7400   296.15089     -5701.7267     -5642.9661     -25.563745      49299.161      2.5960452    
      7410   297.83033     -5701.8765     -5642.7827     -17.297405      49304.006      2.6043365    
      7420   299.82081     -5702.0878     -5642.599      -35.003749      49308.573      2.6131174    
      7430   301.60546     -5702.2606     -5642.4178     -79.547816      49312.67       2.6221062    
      7440   302.88184     -5702.3467     -5642.2506     -107.98834      49315.838      2.6308366    
      7450   303.71646     -5702.361      -5642.0993     -128.34733      49317.748      2.6389725    
      7460   304.46163     -5702.3767     -5641.9672     -158.91348      49318.162      2.6462428    
      7470   305.71346     -5702.5144     -5641.8565     -208.08274      49316.732      2.6522836    
      7480   307.53229     -5702.7913     -5641.7724     -262.89515      49312.936      2.6567535    
      7490   309.07583     -5703.0428     -5641.7178     -321.26163      49306.152      2.6592674    
      7500   309.59656     -5703.1329     -5641.7045     -364.3991       49295.765      2.6594739    
      7510   309.05386     -5703.0483     -5641.7276     -360.55637      49281.378      2.6571082    
      7520   308.00233     -5702.9055     -5641.7934     -330.48266      49263.02       2.6521002    
      7530   306.79753     -5702.7638     -5641.8908     -261.80871      49241.055      2.644572     
      7540   305.63813     -5702.6624     -5642.0194     -168.38887      49216.276      2.6348806    
      7550   304.75908     -5702.6411     -5642.1725     -52.107131      49189.784      2.6236314    
      7560   304.29165     -5702.729      -5642.3532      66.722092      49162.886      2.6116213    
      7570   304.00825     -5702.8802     -5642.5607      164.02956      49136.891      2.5997044    
      7580   303.51014     -5703.0125     -5642.7917      257.47223      49112.912      2.5887007    
      7590   302.43288     -5703.056      -5643.049       368.55982      49092.03       2.5793441    
      7600   301.01503     -5703.0509     -5643.3252      450.70551      49075.427      2.5722894    
      7610   299.61901     -5703.0641     -5643.6154      496.58906      49063.991      2.5678832    
      7620   298.34462     -5703.1066     -5643.9107      515.50908      49058.222      2.5661326    
      7630   296.96701     -5703.1208     -5644.1983      489.93856      49058.272      2.5667341    
      7640   295.49494     -5703.1014     -5644.471       451.4304       49063.883      2.5691792    
      7650   294.12974     -5703.0765     -5644.717       384.89217      49074.549      2.5728884    
      7660   292.89348     -5703.0428     -5644.9286      309.77551      49089.541      2.5772617    
      7670   292.06651     -5703.0498     -5645.0996      194.32051      49107.944      2.5817103    
      7680   291.90033     -5703.1465     -5645.2293      66.757181      49128.464      2.5854996    
      7690   291.90454     -5703.2325     -5645.3145     -57.514147      49149.665      2.587892     
[...]
     18200   1284.0414     -5447.2471     -5192.4749      2567.8931      55758.154      27.326525    
     18210   1280.5205     -5445.5295     -5191.4559      2645.8893      55772.544      27.420654    
     18220   1282.8621     -5445.0978     -5190.5596      2656.2376      55788.268      27.519569    
     18230   1290.7304     -5445.8624     -5189.763       2638.6003      55805.379      27.622617    
     18240   1296.9546     -5446.3938     -5189.0594      2663.9767      55823.215      27.727414    
     18250   1300.4974     -5446.4802     -5188.4429      2680.6041      55840.881      27.83113     
     18260   1304.089      -5446.6641     -5187.9141      2580.5165      55857.337      27.930258    
     18270   1305.9869     -5446.5853     -5187.4588      2467.8279      55871.578      28.021016    
     18280   1322.1637     -5449.4183     -5187.0821      2310.0937      55882.58       28.099134    
     18290   1341.0218     -5452.9006     -5186.8227      2170.8307      55889.553      28.161723    
     18300   1344.325      -5453.4631     -5186.7298      2152.1255      55891.958      28.207273    
     18310   1339.3538     -5452.563      -5186.816       2213.358       55889.659      28.23618     
     18320   1338.9691     -5452.7325     -5187.0619      2295.3514      55882.643      28.249134    
     18330   1339.2485     -5453.1881     -5187.462       2383.9442      55870.66       28.245867    
     18340   1331.1404     -5452.1246     -5188.0073      2601.9689      55853.619      28.226939    
     18350   1317.0752     -5449.9893     -5188.6627      2873.1861      55832.554      28.197064    
     18360   1300.6282     -5447.4272     -5189.364       3178.302       55809.345      28.163705    
     18370   1282.6073     -5444.5375     -5190.0498      3445.432       55786.002      28.133809    
     18380   1268.5015     -5442.3406     -5190.6517      3569.0919      55764.167      28.112198    
     18390   1265.7644     -5442.2805     -5191.1347      3562.9484      55744.747      28.100821    
     18400   1269.005      -5443.2762     -5191.4875      3463.4382      55728.016      28.100363    
     18410   1268.6381     -5443.4271     -5191.7112      3383.8535      55713.814      28.110387    
     18420   1264.8556     -5442.7665     -5191.801       3417.3365      55701.941      28.130098    
     18430   1259.6696     -5441.6726     -5191.7361      3443.1273      55692.284      28.158559    
     18440   1254.8625     -5440.4725     -5191.4899      3489.0872      55684.722      28.194281    
     18450   1254.6033     -5439.9631     -5191.0319      3578.3043      55679.337      28.236394    
     18460   1259.6714     -5440.2744     -5190.3376      3655.5871      55676.736      28.286416    
     18470   1268.7817     -5441.1434     -5189.399       3766.2109      55677.923      28.348276    
     18480   1278.8913     -5441.9846     -5188.2343      3892.4702      55684.327      28.428215    
     18490   1287.3768     -5442.3186     -5186.8846      4003.9951      55697.415      28.532753    
     18500   1297.3915     -5442.8383     -5185.4172      4129.2437      55718.177      28.666255    
     18510   1311.9998     -5444.2302     -5183.9107      4195.8589      55746.782      28.82954     
     18520   1327.5507     -5445.8734     -5182.4683      4218.6673      55782.377      29.019626    
     18530   1337.6888     -5446.6        -5181.1834      4250.6191      55823.439      29.23139     
     18540   1340.9068     -5446.1642     -5180.1091      4264.99        55868.396      29.459475    
     18550   1341.7729     -5445.4816     -5179.2546      4284.4005      55916.06       29.699302    
     18560   1342.5287     -5444.9667     -5178.5898      4181.8196      55965.73       29.947392    
     18570   1339.5912     -5443.8761     -5178.082       4078.3697      56016.717      30.200403    
     18580   1329.649      -5441.5089     -5177.6875      3993.8684      56068.61       30.456739    
     18590   1317.1473     -5438.6917     -5177.3508      3890.5862      56121.058      30.715074    
     18600   1305.0572     -5435.9542     -5177.0122      3762.6083      56173.647      30.973619    
     18610   1299.8409     -5434.5341     -5176.627       3512.2026      56225.804      31.229657    
     18620   1300.9767     -5434.3022     -5176.1698      3260.6719      56276.781      31.48005     
     18630   1300.1657     -5433.6138     -5175.6423      3036.9969      56326.079      31.723496    
     18640   1296.0626     -5432.1958     -5175.0384      2867.2955      56373.268      31.959271    
     18650   1294.7495     -5431.244      -5174.3472      2736.8366      56417.985      32.186506    
     18660   1299.7001     -5431.4403     -5173.5612      2642.0483      56459.865      32.403946    
     18670   1305.4156     -5431.7091     -5172.696       2562.6167      56498.66       32.610992    
     18680   1306.9952     -5431.0968     -5171.7702      2564.5305      56534.48       32.808251    
     18690   1307.186      -5430.1674     -5170.8029      2630.5407      56568.036      32.998008    
     18700   1306.2524     -5428.9757     -5169.7965      2701.7113      56600.495      33.183894    
     18710   1302.0257     -5427.0967     -5168.7561      2768.458       56633.102      33.369536    
     18720   1296.2944     -5424.8796     -5167.6763      2825.7158      56666.813      33.556895    
     18730   1294.8635     -5423.4708     -5166.5514      2853.3513      56702.008      33.745696    
     18740   1302.4618     -5423.8151     -5165.388       2762.8651      56738.884      33.935974    
     18750   1314.926      -5425.114      -5164.2139      2643.0816      56777.647      34.129118    
     18760   1322.1557     -5425.4095     -5163.0749      2600.8107      56818.635      34.327921    
     18770   1319.6368     -5423.8345     -5161.9996      2661.208       56862.309      34.536045    
     18780   1314.2465     -5421.7441     -5160.9788      2757.8843      56909.147      34.75707     
     18790   1311.4198     -5420.1866     -5159.9822      2786.6059      56959.455      34.993581    
     18800   1312.042      -5419.3103     -5158.9824      2697.4374      57013.032      35.245724    
     18810   1319.785      -5419.8311     -5157.9668      2522.9212      57068.978      35.5104      
     18820   1333.3206     -5421.4874     -5156.9375      2248.4595      57125.893      35.782       
     18830   1347.0298     -5423.1995     -5155.9295      1998.0969      57182.027      36.053178    
     18840   1355.2814     -5423.8766     -5154.9694      1737.7216      57235.633      36.316389    
     18850   1356.7581     -5423.276      -5154.0758      1579.3757      57285.073      36.564296    
     18860   1353.9956     -5421.8976     -5153.2455      1502.7688      57329.326      36.792105    
     18870   1354.9197     -5421.2853     -5152.4498      1415.8691      57367.692      36.996695    
     18880   1368.5169     -5423.2141     -5151.6808      1291.4565      57398.968      37.173101    
     18890   1385.4022     -5425.8523     -5150.9687      1147.2239      57421.292      37.313034    
     18900   1397.2129     -5427.5885     -5150.3614      1080.962       57433.098      37.409172    
     18910   1402.2621     -5428.1261     -5149.8972      1185.7072      57433.803      37.458186    
     18920   1402.7592     -5427.9093     -5149.5818      1398.0602      57424.053      37.462347    
     18930   1398.4951     -5426.8821     -5149.4006      1661.6628      57405.15       37.427353    
     18940   1389.3114     -5424.9818     -5149.3225      1980.4635      57378.467      37.359769    
     18950   1381.7402     -5423.4661     -5149.309       2283.4786      57345.386      37.26658     
     18960   1382.5481     -5423.6433     -5149.326       2493.524       57307.198      37.154234    
     18970   1385.5513     -5424.2802     -5149.3669      2664.6622      57265.198      37.028689    
     18980   1386.1285     -5424.4636     -5149.4359      2819.467       57220.832      36.896652    
     18990   1382.8965     -5423.9139     -5149.5275      2962.4736      57175.44       36.764623    
     19000   1379.9782     -5423.443      -5149.6356      3009.2207      57129.984      36.636931    
     19010   1379.4194     -5423.443      -5149.7464      3081.4014      57084.941      36.514844    
     19020   1377.1095     -5423.0881     -5149.8499      3141.7092      57040.953      36.399568    
     19030   1371.4386     -5422.0441     -5149.931       3294.1732      56998.991      36.293312    
     19040   1363.7393     -5420.5525     -5149.9671      3455.5506      56960.429      36.200252    
     19050   1355.3005     -5418.8401     -5149.9291      3581.7835      56926.223      36.123715    
     19060   1356.915      -5419.0052     -5149.7739      3646.4322      56896.625      36.065137    
     19070   1373.2747     -5421.9807     -5149.5033      3652.4722      56871.522      36.024433    
     19080   1383.2628     -5423.595      -5149.1358      3668.6721      56850.681      36.000622    
     19090   1384.3259     -5423.3643     -5148.6942      3723.3438      56834.323      35.995099    
     19100   1388.7393     -5423.7206     -5148.1748      3683.9387      56823.206      36.011569    
     19110   1395.9769     -5424.5603     -5147.5785      3573.291       56818.267      36.054194    
     19120   1399.0581     -5424.5054     -5146.9122      3475.1208      56820.149      36.125035    
     19130   1399.7894     -5423.9198     -5146.1815      3377.8698      56828.989      36.223684    
     19140   1403.2416     -5423.803      -5145.3798      3322.8947      56844.301      36.347762    
     19150   1409.1786     -5424.108      -5144.5068      3331.7448      56865.167      36.493565    
     19160   1414.0179     -5424.137      -5143.5756      3364.3839      56890.42       36.656514    
     19170   1413.7607     -5423.1178     -5142.6074      3463.9634      56918.905      36.831672    
     19180   1406.8622     -5420.7473     -5141.6057      3625.0653      56949.977      37.015213    
     19190   1398.4358     -5418.03       -5140.5603      3818.4768      56983.602      37.205377    
     19200   1399.3485     -5417.1028     -5139.452       3898.7988      57020.378      37.403898    
     19210   1408.7835     -5417.8052     -5138.2824      3884.2349      57061.23       37.615742    
     19220   1415.1371     -5417.8748     -5137.0913      3849.7878      57107.087      37.847506    
     19230   1416.2942     -5416.938      -5135.9249      3789.0419      57158.799      38.105229    
     19240   1417.0532     -5415.9712     -5134.8075      3752.5305      57217.136      38.392884    
     19250   1421.1667     -5415.7332     -5133.7533      3614.059       57282.607      38.712182    
     19260   1425.0956     -5415.5288     -5132.7694      3436.0039      57354.552      39.061744    
     19270   1430.5346     -5415.7119     -5131.8734      3223.4924      57431.754      39.437662    
     19280   1435.6921     -5415.9346     -5131.0727      2995.5787      57512.573      39.83326     
     19290   1441.2301     -5416.3363     -5130.3756      2751.7237      57594.984      40.239533    
     19300   1443.3859     -5416.1777     -5129.7893      2569.3764      57676.627      40.645424    
     19310   1444.0199     -5415.8284     -5129.3141      2422.3447      57755.258      41.039769    
     19320   1443.1941     -5415.2963     -5128.9459      2345.3713      57828.983      41.412638    
     19330   1443.4576     -5415.0784     -5128.6757      2255.4967      57896.531      41.75729     
     19340   1438.9495     -5414.005      -5128.4968      2230.4353      57956.882      42.069405    
     19350   1427.523      -5411.6202     -5128.3792      2228.0006      58009.282      42.346489    
     19360   1420.5187     -5410.1433     -5128.2921      2210.8584      58053.248      42.587274    
     19370   1425.143      -5410.9797     -5128.2109      2123.6741      58088.466      42.790744    
     19380   1431.6228     -5412.1941     -5128.1396      1978.366       58114.947      42.957181    
     19390   1434.0451     -5412.6324     -5128.0974      1794.9038      58132.885      43.08705     
     19400   1433.5238     -5412.5226     -5128.0909      1661.4747      58142.42       43.180224    
     19410   1429.0145     -5411.6488     -5128.1119      1496.293       58143.583      43.236118    
     19420   1422.7744     -5410.4432     -5128.1444      1346.3648      58135.967      43.251895    
     19430   1422.7154     -5410.4594     -5128.1722      1209.6649      58118.749      43.222909    
     19440   1423.278      -5410.585      -5128.1862      1105.4229      58091.315      43.146867    
     19450   1415.8732     -5409.1069     -5128.1774      1111.2099      58053.706      43.024967    
     19460   1401.6521     -5406.2168     -5128.1089      1246.7848      58006.806      42.86209     
     19470   1383.6663     -5402.4434     -5127.9042      1577.3609      57952.185      42.666033    
     19480   1367.6827     -5398.8365     -5127.4687      1962.3815      57892.003      42.446903    
     19490   1364.8643     -5397.4951     -5126.6865      2289.1709      57828.637      42.215152    
     19500   1375.4145     -5398.3462     -5125.4443      2516.2273      57764.25       41.980196    
     19510   1386.0415     -5398.6721     -5123.6616      2791.5072      57700.569      41.75038     
     19520   1390.9703     -5397.3245     -5121.336       3086.4399      57639.507      41.535124    
     19530   1408.473      -5398.08       -5118.6187      3241.0082      57583.115      41.343893    
     19540   1442.7468     -5402.1251     -5115.8635      3261.9221      57532.647      41.182253    
     19550   1472.6524     -5405.6942     -5113.4989      3269.9614      57488.231      41.050615    
     19560   1488.9182     -5407.1953     -5111.7726      3432.664       57449.504      40.946722    
     19570   1491.7798     -5406.6387     -5110.6482      3625.8619      57416.751      40.870466    
     19580   1481.0174     -5403.8119     -5109.9568      3887.9769      57390.747      40.822678    
     19590   1471.1184     -5401.4194     -5109.5285      4017.3035      57372.458      40.805856    
     19600   1466.8414     -5400.2941     -5109.2517      4003.6942      57362.308      40.823474    
     19610   1466.4199     -5400.0264     -5109.0676      3870.0148      57359.938      40.876123    
     19620   1468.4939     -5400.3212     -5108.9509      3678.2311      57364.364      40.960078    
     19630   1471.3952     -5400.8372     -5108.8913      3508.3395      57374.309      41.068499    
     19640   1470.1006     -5400.5782     -5108.8892      3407.0733      57388.607      41.194659    
     19650   1464.9144     -5399.5913     -5108.9313      3419.3532      57406.704      41.33497     
     19660   1466.3972     -5399.9579     -5109.0037      3370.5554      57428.921      41.490318    
     19670   1471.7761     -5401.1276     -5109.1061      3294.3127      57455.53       41.662947    
     19680   1472.1412     -5401.3418     -5109.2479      3230.7176      57486.462      41.854765    
     19690   1468.834      -5400.865      -5109.4273      3153.6917      57521.443      42.065873    
     19700   1461.3237     -5399.5792     -5109.6317      3096.1947      57560.25       42.294857    
     19710   1449.8679     -5397.5024     -5109.8279      3053.1017      57602.871      42.540582    
     19720   1440.4416     -5395.7787     -5109.9745      2955.0436      57649.211      42.802494    
     19730   1435.8333     -5394.9192     -5110.0293      2849.0932      57698.529      43.07875     
     19740   1436.3597     -5394.9642     -5109.9699      2677.9131      57749.842      43.366414    
     19750   1440.7964     -5395.6575     -5109.7828      2521.4789      57801.805      43.659934    
     19760   1444.5736     -5396.1013     -5109.4772      2501.9825      57853.008      43.952735    
     19770   1445.299      -5395.8318     -5109.0638      2507.8631      57903.139      44.242743    
     19780 CHGNet v0.3.0 initialized with 412,525 parameters
CHGNet will run on cuda:0
CHGNet will run on cuda:0
  1442.3697     -5394.7295     -5108.5427      2510.9698      57952.956      44.53275     
     19790   1437.9508     -5393.2053     -5107.8953      2601.895       58003.627      44.827319    
     19800   1436.6674     -5392.1576     -5107.1022      2570.5057      58056.544      45.131697    
     19810   1440.1755     -5391.8958     -5106.1443      2461.2435      58112.621      45.449408    
     19820   1452.835      -5393.2903     -5105.027       2274.32        58171.573      45.779417    
     19830   1463.152      -5394.0952     -5103.7849      2083.2404      58231.962      46.116691    
     19840   1463.0733     -5392.7673     -5102.4726      2019.0949      58292.025      46.454802    
     19850   1461.0419     -5391.0092     -5101.1175      1969.1702      58350.399      46.788119    
     19860   1466.3554     -5390.684      -5099.738       1834.9687      58405.647      47.10938     
     19870   1475.5752     -5391.1362     -5098.361       1706.4882      58456.271      47.410485    
     19880   1482.2535     -5391.1399     -5097.0396      1604.1132      58501.242      47.685532    
     19890   1487.4682     -5390.9458     -5095.8108      1522.2724      58540.137      47.931747    
     19900   1492.7403     -5390.8729     -5094.6919      1532.6956      58572.696      48.147212    
     19910   1497.3216     -5390.7817     -5093.6917      1602.2247      58598.93       48.331909    
     19920   1497.9838     -5390.0354     -5092.814       1720.3273      58619.188      48.488763    
     19930   1495.5339     -5388.7778     -5092.0425      1870.3751      58634.166      48.622972    
     19940   1494.157      -5387.8169     -5091.3548      2012.5001      58644.757      48.740328    
     19950   1493.5167     -5387.0698     -5090.7347      2158.0678      58651.707      48.844673    
     19960   1489.5325     -5385.7006     -5090.156       2347.8792      58655.611      48.936951    
     19970   1488.7169     -5384.981      -5089.5982      2535.0183      58657.246      49.018025    
     19980   1495.3969     -5385.7573     -5089.0492      2665.3432      58657.827      49.092172    
     19990   1502.4571     -5386.6241     -5088.5151      2697.7798      58658.668      49.16536     
     20000   1512.4261     -5388.1073     -5088.0203      2618.0797      58660.97       49.242492    
Loop time of 2782.39 on 1 procs for 10000 steps with 1536 atoms

Performance: 0.155 ns/day, 154.577 hours/ns, 3.594 timesteps/s, 5.520 katom-step/s
135.2% CPU use with 1 MPI tasks x 1 OpenMP threads

MPI task timing breakdown:
Section |  min time  |  avg time  |  max time  |%varavg| %total
---------------------------------------------------------------
Pair    | 2772.4     | 2772.4     | 2772.4     |   0.0 | 99.64
Bond    | 0.0029288  | 0.0029288  | 0.0029288  |   0.0 |  0.00
Neigh   | 2.5661     | 2.5661     | 2.5661     |   0.0 |  0.09
Comm    | 0.34206    | 0.34206    | 0.34206    |   0.0 |  0.01
Output  | 6.3535     | 6.3535     | 6.3535     |   0.0 |  0.23
Modify  | 0.65124    | 0.65124    | 0.65124    |   0.0 |  0.02
Other   |            | 0.06325    |            |       |  0.00

Nlocal:           1536 ave        1536 max        1536 min
Histogram: 1 0 0 0 0 0 0 0 0 0
Nghost:           2308 ave        2308 max        2308 min
Histogram: 1 0 0 0 0 0 0 0 0 0
Neighs:              0 ave           0 max           0 min
Histogram: 1 0 0 0 0 0 0 0 0 0
FullNghs:        40460 ave       40460 max       40460 min
Histogram: 1 0 0 0 0 0 0 0 0 0

Total # of neighbors = 40460
Ave neighs/atom = 26.341146
Ave special neighs/atom = 0
Neighbor list builds = 977
Dangerous builds = 882
System init for write_data ...
System init for write_restart ...
Total wall time: 1:39:44
