LAMMPS (29 Sep 2021 - Update 3)
OMP_NUM_THREADS environment is not set. Defaulting to 1 thread. (src/comm.cpp:98)
  using 1 OpenMP thread(s) per MPI task
Reading data file ...
  orthogonal box = (-1.0612916 -0.64119513 -1.3711943) to (18.113273 17.693176 35.475156)
  2 by 2 by 4 MPI processor grid
  reading atoms ...
  432 atoms
  reading velocities ...
  432 velocities
Finding 1-2 1-3 1-4 neighbors ...
  special bond factors lj:    0        0        0       
  special bond factors coul:  0        0        0       
     0 = max # of 1-2 neighbors
     0 = max # of 1-3 neighbors
     0 = max # of 1-4 neighbors
     1 = max # of special neighbors
  special bonds CPU = 0.005 seconds
  read_data CPU = 0.072 seconds
Neighbor list info ...
  update every 1 steps, delay 10 steps, check yes
  max neighbors/atom: 2000, page size: 100000
  master list distance cutoff = 6.22
  ghost atom cutoff = 6.22
  binsize = 3.11, bins = 7 6 12
  1 neighbor lists, perpetual/occasional/extra = 1 0 0
  (1) pair quip, perpetual
      attributes: full, newton on
      pair build: full/bin
      stencil: full/bin/3d
      bin: standard
Setting up Verlet run ...
  Unit style    : metal
  Current step  : 0
  Time step     : 0.001
Per MPI rank memory allocation (min/avg/max) = 8.882 | 8.882 | 8.882 Mbytes
Step Temp PotEng TotEng Press Volume c_msd[4] 
       0    292.87198   -3736.4642    -3720.148    784.56533    12953.466            0 
      10    298.43732   -3736.7708   -3720.1445    780.13257    12953.297 0.0041257246 
      20    301.66676   -3736.9408   -3720.1346    825.03233    12953.019  0.015729079 
      30    298.93208   -3736.7717   -3720.1179    812.51268    12952.773  0.032136151 
      40    294.05623   -3736.4703   -3720.0881    731.32617    12952.319  0.049544014 
      50    298.24513   -3736.6535   -3720.0379     699.7813    12951.252   0.06480173 
      60    309.93451   -3737.2314   -3719.9646    626.55053     12949.36   0.07763628 
      70    314.67736   -3737.4025   -3719.8715    506.45296    12946.638  0.090299781 
      80    315.53903    -3737.341    -3719.762    335.46977    12943.155   0.10464458 
      90    311.07948   -3736.9629   -3719.6323    267.85946    12938.987   0.12112099 
     100    306.43089   -3736.5469   -3719.4753    381.55283    12934.355   0.13869936 
     110    319.48711   -3737.0812   -3719.2822    413.21914    12929.639   0.15576489 
     120    335.29068   -3737.7354   -3719.0559    392.74054    12925.169   0.17210892 
     130    336.72365   -3737.5794   -3718.8202    613.96077    12921.181   0.18843763 
     140    327.19283   -3736.8223    -3718.594    1003.8968    12917.877   0.20470318 
     150    324.20575   -3736.4401   -3718.3783    1191.2636     12915.43   0.21982696 
     160     332.7855   -3736.7097   -3718.1698    1172.7882    12913.931   0.23297601 
     170    346.99526   -3737.3073   -3717.9759    1070.5212     12913.47   0.24427679 
     180    352.29843   -3737.4362   -3717.8093    982.31017    12914.158   0.25477633 
     190    338.30957   -3736.5201   -3717.6725    1109.5113    12916.134   0.26533011 
     200    323.76743   -3735.5872   -3717.5498    1398.1482    12919.535   0.27560316 
     210    315.72656   -3735.0089   -3717.4194    1780.1261    12924.333   0.28523408 
     220    312.75024   -3734.6931   -3717.2694    2103.9312    12930.438   0.29391038 
     230    312.84744   -3734.5239   -3717.0948    2191.5829    12937.848   0.30091255 
     240    319.63896   -3734.7004    -3716.893    1983.6649    12946.619   0.30584947 
     250    331.29393   -3735.1214   -3716.6646    1589.1493    12956.712   0.30952392 
     260    347.70328   -3735.7861   -3716.4152     1136.698    12967.877   0.31312689 
     270    358.85403   -3736.1498   -3716.1577    815.50731    12979.832   0.31802161 
     280    355.83406   -3735.7309    -3715.907    704.10472    12992.566   0.32493378 
     290    352.68914   -3735.3135   -3715.6648    739.39657    13006.334   0.33302913 
     300     358.1997    -3735.372   -3715.4163    778.93939    13021.228   0.34123685 
     310    357.49076   -3735.0727   -3715.1565    964.64878    13036.977    0.3495415 
     320     353.1344    -3734.562   -3714.8884    983.59362    13053.307   0.35757051 
     330    354.57513   -3734.3594   -3714.6056    708.74455    13069.958    0.3649173 
     340    356.49961   -3734.1634   -3714.3024    203.03304    13086.496   0.37188643 
     350    351.33549   -3733.5545   -3713.9812   -275.71198    13102.208   0.37845942 
     360    349.11605   -3733.0958   -3713.6462   -608.73843    13116.324   0.38435009 
     370    358.57602   -3733.2721   -3713.2954   -772.34939    13128.266     0.390315 
     380    368.41686   -3733.4581   -3712.9332    -765.1135    13137.707   0.39777515 
     390    362.67236   -3732.7804   -3712.5755   -563.10706    13144.662    0.4066348 
     400    364.60691    -3732.536   -3712.2233   -489.23779     13149.43   0.41462563 
     410    375.80286   -3732.7982   -3711.8618   -567.37904    13152.091   0.42135511 
     420    387.78097   -3733.0977    -3711.494   -693.80206    13152.364    0.4286587 
     430    392.99642   -3733.0232   -3711.1289   -730.03463    13150.042   0.43814645 
     440    385.69986   -3732.2608   -3710.7731   -619.16979    13145.196    0.4497958 
     450    374.20971   -3731.2699   -3710.4223   -367.42095    13138.078   0.46168217 
     460    373.49992   -3730.8687   -3710.0606   -65.660171    13129.133   0.47148503 
     470    380.81814   -3730.8911   -3709.6753    232.62708    13118.874   0.47880884 
     480    390.69994   -3731.0359   -3709.2695    486.46787    13107.806    0.4849454 
     490    404.35944   -3731.3777   -3708.8504    667.17946    13096.325   0.49099211 
     500    409.74537    -3731.255   -3708.4276    853.15139    13084.646   0.49777003 
     510    419.61305   -3731.3866   -3708.0095     1054.366    13072.813     0.505416 
     520    432.27004   -3731.6707   -3707.5884    1210.2252     13060.86   0.51482545 
     530    428.41177   -3731.0389   -3707.1716    1356.4029    13049.062   0.52685364 
     540    420.29023   -3730.1732   -3706.7583    1435.9748    13038.052   0.54005594 
     550    426.68081   -3730.1066   -3706.3357     1520.081    13028.634   0.55244279 
     560    444.46231   -3730.6578   -3705.8963    1634.4479    13021.287   0.56402081 
     570    454.22204   -3730.7581   -3705.4529    1701.9075    13015.958   0.57618096 
     580    459.13671   -3730.5977   -3705.0187     1641.827    13012.295   0.58960571 
     590    466.55649   -3730.5846   -3704.5922    1486.0188    13010.048   0.60402475 
     600    474.90276   -3730.6289   -3704.1715    1462.8222    13009.372   0.61904087 
     610    465.16547   -3729.6773   -3703.7624    1542.0424    13010.578   0.63405601 
     620     462.8893   -3729.1507   -3703.3626    1562.1202    13013.824   0.64729215 
     630    468.46846   -3729.0532   -3702.9543    1463.1695    13019.041   0.65890243 
     640    460.39992   -3728.1878   -3702.5384    1303.1821    13025.944   0.67067106 
     650    469.68089   -3728.2803   -3702.1138    797.75025    13034.196   0.68365384 
     660     474.3592   -3728.0953   -3701.6682    363.20914    13043.214   0.69946738 
     670    470.50756   -3727.4298   -3701.2173   -56.120436    13052.289   0.71755411 
     680    478.70547    -3727.425   -3700.7558   -519.21998    13060.635   0.73451724 
     690    493.80165   -3727.7896   -3700.2794   -731.90944    13067.314   0.74944305 
     700    496.85402   -3727.4863    -3699.806    -660.8538    13071.669   0.76397707 
     710    488.46281   -3726.5594   -3699.3466   -515.63335    13073.384   0.77874803 
     720    489.17427   -3726.1489   -3698.8964   -482.93508      13072.1   0.79312195 
     730    493.31729   -3725.9258   -3698.4425   -196.76018    13067.505   0.80747044 
     740    489.79054   -3725.2728   -3697.9861    164.06195    13059.943   0.82338793 
     750    495.92535   -3725.1503   -3697.5217    245.54765    13050.126   0.84235147 
     760    490.83144    -3724.389   -3697.0443    234.97711    13038.833   0.86454492 
     770    498.63148   -3724.3367   -3696.5574    391.32412    13026.749   0.88716845 
     780    518.23826   -3724.9218   -3696.0502    540.15411    13014.378   0.90758833 
     790    528.80321   -3724.9985   -3695.5383    640.71161    13001.949   0.92503241 
     800    531.70232   -3724.6582   -3695.0364     685.6183    12989.614   0.94084393 
     810    531.85557   -3724.1722   -3694.5419    745.11885    12977.763   0.95717059 
     820    523.54068   -3723.2179   -3694.0509    1075.8058    12967.071   0.97530353 
     830    519.02215   -3722.4731   -3693.5578    1706.7257      12958.3   0.99483955 
     840    530.57406   -3722.6119    -3693.053     2165.901    12951.935    1.0139056 
     850     538.3152   -3722.5262   -3692.5361    2492.0053    12948.058    1.0321199 
     860    533.28207   -3721.7334   -3692.0236    2780.5062    12946.793    1.0503341 
     870    546.69737   -3721.9692   -3691.5121    2465.6798     12948.32    1.0687845 
     880    557.72024   -3722.0653    -3690.994    2025.0479    12952.297    1.0879637 
     890    567.21298   -3722.0804   -3690.4803    1718.7697     12958.08    1.1073092 
     900    573.47117   -3721.9224   -3689.9736    1779.9815    12965.145    1.1270073 
     910    573.21861   -3721.4153   -3689.4807    1914.3737    12973.382    1.1469843 
     920     566.7609   -3720.5737   -3688.9988     1798.741    12982.919    1.1666552 
     930     562.3038   -3719.8464   -3688.5198    1588.1124    12993.835    1.1852623 
     940    589.31367   -3720.8529   -3688.0216    1140.7967    13005.868    1.2022303 
     950    599.11349   -3720.8833    -3687.506    699.70638    13018.132    1.2199305 
     960    577.84249   -3719.1969   -3687.0046    306.91437    13029.816    1.2394452 
     970      575.169   -3718.5525   -3686.5092    234.32583    13040.364    1.2581323 
     980    592.24523   -3718.9915   -3685.9968    537.12185    13049.643    1.2740653 
     990    592.86922   -3718.5068   -3685.4774     985.6822     13058.18    1.2887886 
    1000     578.1666   -3717.1762   -3684.9659    1326.2708    13066.526    1.3043781 
    1010    583.34466   -3716.9457    -3684.447    1327.0252    13074.861    1.3210644 
    1020     599.5053   -3717.3039   -3683.9048    1157.4403    13083.049    1.3385745 
    1030    622.09374   -3718.0065   -3683.3489    939.05483     13090.74    1.3570036 
    1040    614.05284   -3717.0106    -3682.801    1013.6759     13097.57    1.3767117 
    1050    610.32658   -3716.2747   -3682.2727     1284.163    13103.231    1.3941918 
    1060    635.17786   -3717.1266   -3681.7401    1343.8067    13107.762    1.4064527 
    1070    635.23987   -3716.5995   -3681.2096    1581.7993    13111.537    1.4160601 
    1080    626.22714   -3715.5874   -3680.6996    2067.2417    13115.079    1.4245812 
    1090    633.48841   -3715.4861   -3680.1937     2059.554    13119.066    1.4338764 
    1100    640.81534   -3715.3818   -3679.6812    1829.5095    13123.825    1.4469439 
    1110    633.45742   -3714.4613   -3679.1707     1721.632    13129.283    1.4647668 
    1120    653.77479   -3715.0782   -3678.6557    1574.4518    13135.282    1.4853249 
    1130    688.25497   -3716.4717   -3678.1282    1367.4348    13141.453     1.508677 
    1140    691.66513   -3716.1559   -3677.6224     1471.261    13147.573    1.5375138 
    1150    670.47835    -3714.514   -3677.1609    1468.5268    13153.911    1.5700657 
    1160    652.90172    -3713.094   -3676.7201     1337.983    13160.767    1.6006075 
    1170    664.02557   -3713.2613   -3676.2676    982.92444    13168.281    1.6265567 
    1180    684.85273   -3713.9491   -3675.7951    1111.6011    13176.505     1.649382 
    1190    693.00816   -3713.9294   -3675.3211    1221.6018    13185.614    1.6712123 
    1200     679.0406    -3712.691   -3674.8608    1190.9923    13195.772    1.6924395 
    1210     683.8665   -3712.5014   -3674.4024    1001.2074    13206.726     1.711885 
    1220    671.79644   -3711.3554   -3673.9289    1161.6753    13217.603    1.7307865 
    1230    661.66501   -3710.3086   -3673.4465     1224.408    13227.713    1.7508583 
    1240    669.88763   -3710.2581   -3672.9379    1070.5179    13236.739    1.7737576 
    1250    666.30979   -3709.5267   -3672.4058    887.63215    13244.635    1.7984781 
    1260    678.33157   -3709.6475   -3671.8569    762.55686     13251.58    1.8202057 
    1270    704.24716   -3710.5212   -3671.2868    883.17889    13257.603    1.8379269 
    1280    708.67226   -3710.1989    -3670.718    1163.4324    13262.536    1.8547298 
    1290    709.47028   -3709.6951   -3670.1697    1371.9784    13266.312    1.8719568 
    1300    709.37927   -3709.1563    -3669.636    1305.8591    13269.209    1.8891596 
    1310    707.90613   -3708.5479   -3669.1097    998.55249    13271.719    1.9048351 
    1320    728.71882   -3709.1811   -3668.5834    423.27031    13274.252    1.9189691 
    1330    749.89716   -3709.8307   -3668.0531    156.63954    13276.524     1.933066 
    1340    753.33757   -3709.5168   -3667.5475    454.67878    13277.915    1.9474382 
    1350    761.61711   -3709.5012   -3667.0706    802.63306    13278.165    1.9627215 
    1360    765.45203   -3709.2638   -3666.6196    912.14335    13277.256    1.9800426 
    1370    757.42834   -3708.3909   -3666.1938    747.63943     13275.21     1.999119 
    1380    752.53778   -3707.7077    -3665.783    812.58966    13272.114    2.0185134 
    1390    757.38882   -3707.5685   -3665.3736    770.30446    13268.165    2.0353804 
    1400    736.86966   -3706.0092   -3664.9574    1190.4167    13263.537    2.0468475 
    1410    770.14163   -3707.4332   -3664.5277      1430.28    13258.446    2.0493278 
    1420    816.22081   -3709.5515   -3664.0789    1525.0842    13252.978    2.0482814 
    1430    806.36427   -3708.5874   -3663.6639    1547.6835     13247.42    2.0538214 
    1440    773.25921   -3706.3739   -3663.2948    1561.3191     13242.09    2.0691109 
    1450    777.28504   -3706.2387   -3662.9352    1487.1594     13236.85    2.0901054 
    1460    791.37261   -3706.6512    -3662.563    1270.6529    13231.473    2.1122724 
    1470    776.29798   -3705.4345   -3662.1861    1226.9847    13226.247    2.1324038 
    1480    798.51862   -3706.2902   -3661.8039    1113.6912    13221.449    2.1487556 
    1490     800.3541   -3706.0007    -3661.412    1243.8792    13216.972     2.164756 
    1500    797.70281   -3705.4682   -3661.0272    1177.3056    13212.779     2.182475 
    1510    797.44156   -3705.0654   -3660.6391    970.86353    13209.043    2.2028784 
    1520    799.08885   -3704.7631    -3660.245    847.62181    13206.074    2.2237922 
    1530     804.5953   -3704.6665   -3659.8416    825.44488    13204.244    2.2411787 
    1540    798.01011   -3703.8916   -3659.4336    693.37465     13204.02    2.2538663 
    1550    791.38866   -3703.1059   -3659.0168    535.35904    13205.163    2.2653923 
    1560    795.71616   -3702.9094   -3658.5791    681.13725     13206.83    2.2796882 
    1570    794.30545   -3702.3722   -3658.1206    1395.8156    13208.509    2.2955393 
    1580    795.49078   -3701.9612   -3657.6435    1774.5915    13210.607    2.3122387 
    1590    804.21331    -3701.953   -3657.1494    1834.3693    13213.913     2.331328 
    1600    812.10086    -3701.885    -3656.642    1762.4399    13218.884    2.3497762 
    1610    827.34049   -3702.2211    -3656.129     1332.057    13225.507     2.362914 
    1620    846.95757   -3702.8037   -3655.6187    862.26473    13233.256    2.3711725 
    1630    829.25536   -3701.3254   -3655.1266    637.52334     13241.33    2.3817708 
    1640    794.22091    -3698.902   -3654.6551    724.96827    13249.126    2.3989853 
    1650     789.9277   -3698.1757    -3654.168    1049.9671    13256.477     2.419129 
    1660    812.87408   -3698.9298   -3653.6437    1338.6407    13263.885    2.4388306 
    1670    801.92016   -3697.7746   -3653.0987    1756.7765    13272.147    2.4594598 
    1680    799.05586   -3697.0586   -3652.5423    1781.6189    13281.515    2.4768179 
    1690    837.35101   -3698.6031   -3651.9534     1241.978    13291.338     2.487491 
    1700    857.39233   -3699.1145   -3651.3482    817.84467    13300.311    2.4954125 
    1710    852.54635   -3698.2697   -3650.7734    810.33754    13307.357    2.5043637 
    1720    849.02397   -3697.5301   -3650.2301    1088.6909    13312.082    2.5163501 
    1730    848.89393   -3696.9963   -3649.7035    1134.0927    13314.635    2.5318558 
    1740    866.87427   -3697.4781   -3649.1835    1165.3874    13315.703    2.5486241 
    1750    878.78628   -3697.6281   -3648.6699    1363.9769    13316.371    2.5632939 
    1760    890.92608   -3697.8087   -3648.1742    1393.3997    13317.629    2.5726431 
    1770    913.14049   -3698.5712   -3647.6992    1482.6416    13320.045    2.5775284 
    1780    933.35659   -3699.2592   -3647.2609    1637.5636    13323.832    2.5837135 
    1790    927.55562    -3698.548   -3646.8728    1959.9085    13329.243    2.5934805 
    1800    912.18486   -3697.3509    -3646.532    2345.5502    13336.566    2.6031773 
    1810    927.42683   -3697.8848   -3646.2168    2127.5307    13346.056     2.609509 
    1820    926.53881   -3697.5297   -3645.9112    2001.3009    13357.312    2.6174481 
    1830    919.62266   -3696.8519   -3645.6187     1956.166     13369.51    2.6311176 
    1840    936.51069   -3697.5037   -3645.3297    1682.1372    13382.035    2.6513799 
    1850    933.32129   -3697.0416   -3645.0452    1548.7747    13394.497    2.6826772 
    1860    923.59154   -3696.2277   -3644.7734     1286.055    13406.768     2.725041 
    1870    888.71722   -3693.9991   -3644.4877    1065.4579    13418.531    2.7702001 
    1880    886.58422   -3693.5588   -3644.1662    930.45693    13429.208     2.804669 
    1890    903.44971   -3694.1181   -3643.7859    774.86288    13438.217    2.8232606 
    1900    896.15178   -3693.2871   -3643.3615     603.0697    13445.028    2.8319085 
    1910    904.86041   -3693.3137   -3642.9029    315.48186    13449.605    2.8364856 
    1920     901.8203    -3692.649   -3642.4076     597.9013    13452.036    2.8384618 
    1930    903.93713   -3692.2442   -3641.8849    859.12726    13452.249    2.8365006 
    1940    951.02173   -3694.3173   -3641.3348    896.66352    13450.229    2.8298238 
    1950    998.91149   -3696.4364   -3640.7859    959.53769    13446.209     2.821297 
    1960    997.78866   -3695.8821   -3640.2941    1086.2961     13440.74    2.8161071 
    1970    1015.9224   -3696.4835   -3639.8853    549.26801    13433.868    2.8134258 
    1980     1003.789   -3695.4652    -3639.543    371.54196    13425.625    2.8111073 
    1990    974.49869   -3693.5498   -3639.2593    569.63472    13416.722     2.807043 
    2000    960.79809   -3692.5228   -3638.9957    1003.3159    13407.404    2.8010632 
    2010    959.97273   -3692.2058   -3638.7246    1028.0254    13397.664    2.7959999 
    2020    955.70534   -3691.6774    -3638.434    862.12625    13387.785    2.7958071 
    2030    945.88141   -3690.8148   -3638.1187    1006.9571    13378.025    2.8009502 
    2040      960.995   -3691.3068   -3637.7687    991.89767    13368.298    2.8093891 
    2050    995.40395   -3692.8384   -3637.3834    632.12115    13358.522    2.8187777 
    2060    1021.3862    -3693.896   -3636.9935    53.215336    13348.726    2.8285191 
    2070    1012.2447   -3693.0244   -3636.6311    83.124021    13338.672    2.8391099 
    2080    996.46733   -3691.8049   -3636.2906    310.12706    13328.616    2.8491911 
    2090    970.48849   -3690.0178   -3635.9508    493.62786    13319.147      2.85785 
    2100    973.10804    -3689.804    -3635.591     679.2334    13309.962    2.8596744 
    2110    1000.7508   -3690.9521   -3635.1991    981.25393    13300.366    2.8551542 
    2120    995.11663   -3690.2299   -3634.7908    1509.3976    13289.955    2.8544433 
    2130    992.86384   -3689.6897   -3634.3761    1563.7283     13278.95    2.8610033 
    2140    987.82363   -3688.9754   -3633.9426    1533.4504    13267.591     2.874681 
    2150     989.9996   -3688.6455   -3633.4915    1508.3328    13256.219    2.8921945 
    2160    1005.7696   -3689.0523   -3633.0198    1412.2362    13245.115    2.9111459 
    2170     990.0393   -3687.6948   -3632.5386    1425.8931     13234.74    2.9316556 
    2180    999.29275   -3687.7241   -3632.0523    1449.1326    13225.763    2.9521809 
    2190    1047.8932   -3689.9433    -3631.564    1408.1459     13218.19    2.9762323 
    2200    1079.5555   -3691.2432   -3631.0999    1387.0945    13211.664    3.0091544 
    2210    1084.5995   -3691.1366   -3630.7123     1528.911     13206.22    3.0464464 
    2220    1072.1887   -3690.1302   -3630.3974    1914.4346    13201.855    3.0791784 
    2230    1080.1329   -3690.3149   -3630.1395    2057.3351    13198.637    3.1060426 
    2240    1071.4897   -3689.6195   -3629.9256    2304.6684    13196.913    3.1341883 
    2250    1058.0167    -3688.686   -3629.7427    2622.8254    13197.005    3.1683513 
    2260    1055.6917   -3688.3864   -3629.5726    2488.2281    13199.011    3.2062733 
    2270    1047.1099   -3687.7356   -3629.3999    1871.4646    13202.851    3.2437724 
    2280    1037.1398   -3686.9969   -3629.2167    1362.0042    13208.461    3.2779811 
    2290     1022.495   -3685.9717   -3629.0073    1597.2624    13215.975    3.3049042 
    2300    1033.2117   -3686.3272   -3628.7658    1811.7467    13226.169    3.3264031 
    2310    1035.1983   -3686.1542   -3628.4822    1667.8093    13239.457    3.3528981 
    2320     1051.518   -3686.7422    -3628.161    1332.9988      13255.4    3.3872919 
    2330     1042.971   -3685.9031    -3627.798    1249.8005     13273.09    3.4302832 
    2340    1034.4258   -3685.0339   -3627.4049    1112.4047    13291.784    3.4850806 
    2350    1039.9217   -3684.9005   -3626.9653     836.0667    13310.919    3.5457217 
    2360    1022.4152   -3683.4535   -3626.4936    1219.3765    13330.257     3.599922 
    2370    1044.0371   -3684.1567   -3625.9922    1305.4429    13350.121    3.6440205 
    2380    1059.0072   -3684.4464   -3625.4479    838.23678    13369.999    3.6847601 
    2390    1047.0566   -3683.2293   -3624.8966     400.2237    13388.139    3.7230707 
    2400    1031.9218   -3681.8433   -3624.3538    186.78197    13403.412     3.756323 
    2410    1056.7351   -3682.6946   -3623.8227    183.33466    13415.723    3.7825881 
    2420    1094.1661   -3684.2644   -3623.3072    301.28002    13425.311    3.8061926 
    2430    1093.6265   -3683.7682    -3622.841    821.23781    13432.495    3.8361425 
    2440    1114.1813   -3684.5045   -3622.4322     876.1897    13437.831    3.8710055 
    2450    1096.3058   -3683.1451   -3622.0687    1137.8758    13441.915    3.9032221 
    2460    1063.5451   -3680.9855   -3621.7342    1438.1489    13445.331    3.9293487 
    2470     1041.562   -3679.4115    -3621.385    1607.1788    13448.581    3.9536434 
    2480    1036.5807   -3678.7387   -3620.9896    941.98188    13451.812    3.9813262 
    2490    1078.1375   -3680.6015   -3620.5372   -270.04563    13453.984    4.0089072 
    2500    1116.4733   -3682.2485   -3620.0485   -774.49892     13453.56    4.0355055 
    2510    1121.5875    -3682.053   -3619.5681   -788.76428    13450.382    4.0671273 
    2520    1113.2576    -3681.123   -3619.1022   -883.55116    13445.728    4.1116165 
    2530    1098.7916   -3679.8524   -3618.6375    -1020.458    13440.731    4.1673595 
    2540    1068.7952    -3677.704   -3618.1602   -795.34875    13435.424    4.2227072 
    2550    1085.5003   -3678.1183   -3617.6439   -553.05551    13429.479    4.2652381 
    2560    1109.0275   -3678.8648   -3617.0797   -382.46884    13422.849    4.2941001 
    2570    1099.2687   -3677.7392   -3616.4977   -57.147477    13416.009    4.3205241 
    2580    1091.3443   -3676.7045   -3615.9045    247.69476    13409.136    4.3516344 
    2590    1096.6712   -3676.3837    -3615.287    1015.1357    13402.133    4.3865729 
    2600    1157.7224    -3679.148   -3614.6499    719.94025    13395.125    4.4200513 
    2610    1184.9733   -3680.0422    -3614.026    571.89663    13387.718    4.4555623 
    2620    1194.1434   -3679.9876   -3613.4606    768.91966    13380.088    4.4974428 
    2630    1224.7442   -3681.1922   -3612.9603    591.08859    13372.528    4.5438548 
    2640    1232.6537   -3681.2063   -3612.5337    653.53518    13365.028    4.5951142 
    2650    1174.2101   -3677.5865   -3612.1699    1629.9777    13358.085    4.6499097 
    2660    1164.7688   -3676.7262   -3611.8356    1701.4165    13352.523    4.7024017 
    2670    1121.0515    -3673.933   -3611.4779    1107.5018     13347.87    4.7624655 
    2680    1081.4433   -3671.3194   -3611.0709    247.68468    13343.229    4.8339429 
    2690    1084.3476   -3670.9852    -3610.575   -882.93219    13338.405    4.9080035 
    2700    1108.4255   -3671.7248   -3609.9732   -1835.4271    13333.465    4.9778868 
    2710     1120.301   -3671.7092    -3609.296     -1824.82    13328.257    5.0400703 
    2720    1086.8488   -3669.1285    -3608.579   -548.09755    13322.568    5.0897819 
    2730     1105.437   -3669.4047   -3607.8195    608.71083     13316.92    5.1314234 
    2740    1175.2943    -3672.493    -3607.016    1416.0194    13312.164    5.1772301 
    2750     1222.186   -3674.3204    -3606.231     1591.178    13308.408    5.2305998 
    2760    1226.7535    -3673.881   -3605.5372    1680.5931    13304.836    5.2859047 
    2770    1231.4546   -3673.5429   -3604.9372    1447.1586    13301.172    5.3384832 
    2780    1218.3809   -3672.2827   -3604.4054    1439.3897    13297.612    5.3879753 
    2790    1199.8365   -3670.7613    -3603.917    1694.2091     13294.51    5.4326788 
    2800    1205.2432    -3670.585   -3603.4396    1373.3278    13292.206    5.4719249 
    2810    1209.4649   -3670.3369   -3602.9563    1023.0709    13290.072    5.5071729 
    2820    1192.3994   -3668.8919    -3602.462    1067.0639    13287.356    5.5400621 
    2830    1229.8779   -3670.4636   -3601.9457    1223.7594    13284.402    5.5718421 
    2840    1279.1765   -3672.6705   -3601.4062    1370.4075     13282.18    5.6096021 
    2850    1304.0155   -3673.5525   -3600.9044    1098.8346    13281.109    5.6601416 
    2860    1271.5375    -3671.298   -3600.4592     1042.666    13281.074    5.7186062 
    2870    1242.6878    -3669.282   -3600.0505    1299.1893    13282.252     5.779399 
    2880    1264.5254   -3670.0863   -3599.6382    1571.6799    13285.155    5.8399999 
    2890    1287.7457   -3670.9622   -3599.2204    2015.0712    13290.258    5.9028083 
    2900    1297.5272   -3671.1036   -3598.8169    2267.9605    13298.033    5.9657769 
    2910    1367.5038   -3674.6354   -3598.4503    1992.5759     13308.75    6.0258362 
    2920    1363.8424   -3674.1288   -3598.1476    3135.2192    13321.568     6.089555 
    2930    1368.2913   -3674.1833   -3597.9543    4260.2788    13336.285    6.1548502 
    2940    1347.9034    -3672.942   -3597.8488    5092.1347    13353.803    6.2210908 
    2950    1338.1767   -3672.3638   -3597.8125    4787.4454    13374.473    6.2914546 
    2960    1318.5339   -3671.2522   -3597.7951    3478.8175     13397.31    6.3689076 
    2970    1267.6968   -3668.3996   -3597.7748    2599.2538    13420.966    6.4480826 
    2980     1226.539   -3666.0431   -3597.7112    1799.2838    13445.115    6.5246139 
    2990    1246.3455   -3666.9825   -3597.5472    705.71084    13469.417    6.5986107 
    3000    1279.8017   -3668.5681   -3597.2689     -26.2129    13492.137     6.672762 
    3010    1308.5381   -3669.8258   -3596.9256   -476.94663    13511.961    6.7487319 
    3020     1315.293   -3669.8247   -3596.5483    -702.9307    13528.743    6.8275248 
    3030    1308.9869    -3669.076   -3596.1508   -176.22686    13542.819    6.9044787 
    3040     1332.177    -3669.945    -3595.728     368.5836    13555.139    6.9684885 
    3050    1326.4916   -3669.1778   -3595.2775    535.63581    13566.665    7.0233644 
    3060    1319.2681   -3668.3037   -3594.8058    272.81226    13578.145    7.0830962 
    3070    1294.1022   -3666.3836   -3594.2877   -20.746726    13589.292    7.1538857 
    3080    1271.5162   -3664.5471   -3593.7095   -149.98531    13599.518    7.2288931 
    3090    1279.3403   -3664.3237   -3593.0502   -290.44341    13608.727     7.301443 
    3100    1264.3991   -3662.7513   -3592.3102   -300.97009    13617.293    7.3740131 
    3110    1263.6209    -3661.903   -3591.5053   -416.47584    13625.606    7.4487064 
    3120    1277.1975   -3661.7968   -3590.6427     -583.294    13633.504    7.5197526 
    3130    1299.8079   -3662.1804   -3589.7667   -723.69389    13640.737    7.5821192 
    3140    1315.2455   -3662.2002   -3588.9264   -908.39581    13647.334    7.6438215 
    3150    1292.1289    -3660.154    -3588.168   -655.71201     13653.51    7.7100953 
    3160    1283.7884   -3659.0112   -3587.4899    -336.8225    13659.681    7.7787773 
    3170    1321.1767   -3660.4671   -3586.8628   -508.06823    13666.391    7.8571386 
    3180    1338.6187   -3660.8652   -3586.2892   -1243.7387    13673.981    7.9524863 
    3190    1322.9848   -3659.4832   -3585.7783   -1185.4308    13682.228    8.0565019 
    3200    1339.0962   -3659.9086   -3585.3061    -622.3913    13690.715    8.1528388 
    3210    1332.6224   -3659.0908   -3584.8489   -148.23204    13699.467    8.2379487 
    3220    1339.2561   -3659.0155    -3584.404     -184.986    13709.136    8.3119395 
    3230    1345.1985   -3658.8884   -3583.9459   -272.88226    13719.537    8.3770822 
    3240    1314.9546    -3656.731   -3583.4734   -71.663852    13730.317    8.4428791 
    3250    1357.2222   -3658.5852   -3582.9729     -278.639    13741.747    8.5174693 
    3260    1390.7024   -3659.9133   -3582.4357   -271.03018    13753.919    8.6047356 
    3270    1377.0884   -3658.6309   -3581.9118    177.80756    13767.136    8.7060391 
    3280    1407.1188   -3659.7907   -3581.3985    -83.95645    13781.815    8.8112102 
    3290    1364.6873   -3656.8983     -3580.87   -51.420128    13796.958    8.9187681 
    3300    1391.3935   -3657.8537   -3580.3376   -74.467205    13811.603    9.0136409 
    3310    1409.1538   -3658.2782   -3579.7727    236.02821     13825.45    9.0872563 
    3320    1417.3987   -3658.1794   -3579.2145    790.22098    13838.314    9.1413782 
    3330    1470.7996   -3660.6077   -3578.6678    581.45387    13849.988    9.1860976 
    3340    1476.3178   -3660.4148   -3578.1675     380.2491    13860.308     9.239586 
    3350    1436.4335   -3657.7645   -3577.7392    756.73016    13869.734    9.3049808 
    3360    1438.0281   -3657.4543   -3577.3402     958.9559    13879.102    9.3691639 
    3370    1438.7458   -3657.0998   -3576.9456    983.12321    13888.641    9.4318452 
    3380     1415.564     -3655.42   -3576.5574    1149.0782    13898.723    9.4968659 
    3390    1446.9862   -3656.7755   -3576.1623    1036.9679    13910.635    9.5584166 
    3400     1483.113   -3658.3827   -3575.7568    544.77126    13924.866    9.6178626 
    3410    1454.8832   -3656.4174   -3575.3643   0.63966925    13940.264    9.6766822 
    3420    1415.5916   -3653.8283   -3574.9641   -680.83151    13955.147    9.7343504 
    3430    1454.0155   -3655.5272   -3574.5223   -1399.9248     13968.01    9.7897726 
    3440    1501.9239    -3657.729   -3574.0552   -1495.5556    13977.552    9.8500235 
    3450    1509.9761   -3657.7432   -3573.6207   -797.90698    13983.503    9.9173197 
    3460    1511.3444   -3657.4349   -3573.2362   -460.75719    13987.014    9.9946208 
    3470    1523.1484   -3657.7524   -3572.8961   -826.13434     13989.55    10.078563 
    3480    1552.1321    -3659.078    -3572.607   -1662.9014     13992.18    10.162381 
    3490    1518.3811   -3656.9704   -3572.3797   -2063.7751    13994.658    10.242182 
    3500    1507.4179   -3656.1796   -3572.1997    -2788.807    13996.169    10.310982 
    3510    1492.9214   -3655.2074   -3572.0351   -2909.2354    13994.836    10.354676 
    3520    1480.4361   -3654.3557   -3571.8789   -2668.3775    13988.993    10.373102 
    3530    1517.7082   -3656.2682    -3571.715   -2526.6242    13978.524    10.374882 
    3540    1525.9274    -3656.559   -3571.5479   -2033.2092     13964.54    10.364946 
    3550    1481.1661   -3653.9003   -3571.3829   -1385.4966    13948.064    10.349489 
    3560    1488.9128   -3654.1235   -3571.1745   -1128.5046    13930.222    10.336986 
    3570    1524.1381   -3655.8212   -3570.9097   -894.52639    13912.177    10.332639 
    3580    1503.1035   -3654.3467   -3570.6071   -618.69497    13894.987    10.325559 
    3590    1459.6124   -3651.5663   -3570.2496   -74.555934    13878.799    10.305304 
    3600    1505.8208   -3653.6897   -3569.7987    206.58889    13863.386    10.273552 
    3610    1543.4898   -3655.2186   -3569.2291    664.08372    13848.629    10.243442 
    3620     1580.471    -3656.624   -3568.5742    905.10798    13834.824    10.221244 
    3630    1562.8151   -3654.9223   -3567.8561    1343.3937     13822.97    10.217214 
    3640    1498.6089    -3650.581   -3567.0918    1475.4543    13814.707    10.237119 
    3650    1505.7918   -3650.1251   -3566.2358    970.53325    13810.322    10.274781 
    3660    1510.5693   -3649.3941   -3565.2386    775.92638    13808.915    10.316715 
    3670    1487.7369   -3647.0298   -3564.1463    1013.1307    13809.304    10.357268 
    3680    1544.2308   -3649.0096   -3562.9787    308.03748    13811.059    10.393365 
    3690    1546.5341   -3647.9518   -3561.7926    52.107131    13813.653    10.426287 
    3700    1536.4137   -3646.3011   -3560.7057    178.38116    13816.584    10.461891 
    3710    1546.5033   -3645.8917   -3559.7343    517.30387    13819.988    10.498413 
    3720     1568.403   -3646.2694   -3558.8919    827.37096    13824.235    10.536673 
    3730    1576.1661   -3645.9974   -3558.1874     1154.389    13829.599    10.580717 
    3740    1608.5356   -3647.2358   -3557.6225    669.46384    13836.422    10.621276 
    3750    1622.1361   -3647.5516   -3557.1805     302.4299     13844.33    10.651584 
    3760    1627.3589   -3647.5123   -3556.8503    621.74361    13851.956    10.674101 
    3770    1672.4844   -3649.8038   -3556.6278    964.03419    13857.953    10.690774 
    3780    1631.6867   -3647.4202   -3556.5172    2562.3836    13863.128    10.719999 
    3790    1611.5655   -3646.2723   -3556.4902    3952.9929    13870.005    10.773588 
    3800    1618.8586   -3646.6859   -3556.4975    4424.0752    13880.354    10.847372 
    3810    1674.2155   -3649.8409   -3556.5684    3430.7389    13894.974    10.939087 
    3820    1684.0885   -3650.5385    -3556.716    2321.9835    13913.388    11.049048 
    3830    1663.4226   -3649.6177   -3556.9465    882.20396    13934.448    11.171759 
    3840    1605.4566   -3646.6481   -3557.2063    143.25922    13956.319    11.307508 
    3850    1535.4271   -3642.9703     -3557.43    540.13793    13977.339    11.443908 
    3860    1537.4844   -3643.2509   -3557.5959     1103.361    13997.526    11.563823 
    3870    1536.9307    -3643.306   -3557.6819    1254.4343     14017.59    11.666904 
    3880    1538.9908   -3643.4083   -3557.6694    516.84406    14036.846     11.77374 
    3890    1589.9173   -3646.1503   -3557.5743   -437.44924    14054.499    11.889222 
    3900    1634.7424   -3648.5084   -3557.4351     -1960.95    14070.373    12.000489 
    3910    1616.2515   -3647.3149   -3557.2717   -2894.9744    14083.323    12.107402 
    3920     1629.924     -3647.91   -3557.1051   -3261.8082    14091.964    12.197764 
    3930    1627.3419   -3647.5941    -3556.933   -3079.9271    14095.928    12.281169 
    3940    1557.2417   -3643.4982   -3556.7425   -2114.2603    14095.991    12.363563 
    3950     1511.937   -3640.7021   -3556.4704   -1119.7076    14093.381    12.433208 
    3960    1473.4995   -3638.1287   -3556.0383   -150.25277     14089.53    12.496769 
    3970    1487.4023   -3638.2742   -3555.4093    89.400488    14085.732    12.562009 
    3980    1502.7927   -3638.2596   -3554.5373   -192.23561    14082.411    12.629202 
    3990    1586.8482   -3641.8675   -3553.4624   -1444.7546    14079.148    12.697204 
    4000    1627.8971   -3642.9396   -3552.2476   -2090.0474    14074.069    12.760215 
    4010    1661.4529   -3643.6001   -3551.0387   -2180.4422    14066.093    12.812881 
    4020    1712.0768   -3645.2908   -3549.9091   -2168.2056    14055.319    12.871825 
    4030    1718.2122   -3644.6692   -3548.9457   -1420.3084    14042.349    12.955126 
    4040    1700.4271   -3642.9221   -3548.1894   -868.94437    14027.718    13.062877 
    4050    1640.3911   -3638.9759   -3547.5879   -516.30493    14011.734    13.182789 
    4060    1614.7737   -3637.0305   -3547.0696   -506.02782    13994.681    13.295547 
    4070    1661.3385    -3639.154   -3546.5989   -731.79721    13976.102    13.380319 
    4080    1689.5952   -3640.2924   -3546.1631   -31.314577    13955.556    13.440463 
    4090    1733.8317   -3642.3733   -3545.7796    337.84449    13934.163    13.483069 
    4100    1741.5359   -3642.4968   -3545.4739    51.901499    13913.227    13.518948 
    4110    1731.3288   -3641.6974   -3545.2431    447.02826    13893.099    13.555794 
    4120    1785.1762    -3644.529   -3545.0749    974.06768    13874.789    13.588468 
    4130    1801.5554   -3645.3674   -3545.0007    1676.0207    13859.087    13.632613 
    4140    1735.0324   -3641.6775   -3545.0169    2830.5601    13846.793    13.687558 
    4150     1716.134   -3640.6958    -3545.088    3183.0202    13838.356     13.74279 
    4160    1716.1474   -3640.7801   -3545.1717    3065.3684    13832.159    13.811834 
    4170    1714.0822   -3640.7315    -3545.238    2572.5989    13826.743    13.906873 
    4180    1720.6218   -3641.1721   -3545.3143    1724.4431    13822.305    14.009551 
    4190    1685.6682   -3639.2913   -3545.3808    1502.1958    13819.714    14.104757 
    4200    1665.6939   -3638.2111   -3545.4134    2157.0997    13820.084    14.199256 
    4210    1665.8456   -3638.1901   -3545.3839    2983.9011    13823.098    14.306352 
    4220    1668.2712   -3638.2148   -3545.2735     3388.061    13827.325    14.441392 
    4230    1678.0208   -3638.5767   -3545.0923     3451.625    13832.539    14.609949 
    4240    1718.8784   -3640.6034   -3544.8427    2910.3568    13839.163    14.791617 
    4250    1767.2023   -3642.9986   -3544.5458    2212.3017    13846.909    14.947333 
    4260    1766.4099   -3642.6512   -3544.2425    1828.5247    13855.502    15.070832 
    4270    1733.3252   -3640.5023   -3543.9368    1547.0937    13864.254    15.181681 
    4280    1731.2144   -3640.0419    -3543.594    713.08246    13872.203    15.291143 
    4290    1669.0147   -3636.1627     -3543.18    205.89161    13878.281    15.391885 
    4300    1676.0015   -3636.0354   -3542.6634   -779.62361    13882.313    15.481285 
    4310    1711.5739   -3637.3473   -3541.9936   -1105.1376    13883.921    15.580601 
    4320    1735.6603   -3637.8851   -3541.1895   -632.97852    13882.567    15.693656 
    4330    1779.4824    -3639.412    -3540.275   -364.29853    13878.903    15.799794 
    4340    1770.7616    -3637.936   -3539.2849    184.14627    13874.565    15.886696 
    4350    1736.5156   -3635.0056   -3538.2623      1002.33     13871.11    15.958831 
    4360    1742.0934    -3634.246   -3537.1921    879.51599    13868.861    16.029414 
    4370     1785.218   -3635.5442   -3536.0877   -505.19368    13866.639     16.11559 
    4380    1769.9668   -3633.6141   -3535.0073   -828.22476    13862.625    16.208132 
    4390    1806.9411   -3634.6693   -3534.0026    44.877924     13856.37    16.298625 
    4400    1880.6776   -3637.8618   -3533.0872    913.69965    13848.931     16.40042 
    4410    1923.8579   -3639.5221   -3532.3418    1215.3676    13841.901    16.541233 
    4420    1885.0527   -3636.8493   -3531.8309    1321.8201    13835.789    16.714842 
    4430     1796.487    -3631.576   -3531.4917    2000.9733     13830.03    16.887859 
    4440    1733.6202   -3627.7815   -3531.1996    2530.2952    13825.098    17.030201 
    4450    1800.7267   -3631.2195    -3530.899    2105.0052    13822.312    17.130045 
    4460    1864.4883   -3634.4853   -3530.6125    1504.5428    13822.399    17.199844 
    4470    1849.9964   -3633.4715   -3530.4061    1169.5257    13825.775    17.262682 
    4480    1858.9604   -3633.8485   -3530.2838    825.58149    13832.963    17.345676 
    4490    1832.1826   -3632.2819   -3530.2089    1547.5259    13843.548    17.460573 
    4500    1812.8371   -3631.1574   -3530.1622    1871.5231     13857.67    17.607325 
    4510    1865.1929   -3634.0393   -3530.1273     702.6719    13875.562    17.780179 
    4520    1828.2491   -3631.9491   -3530.0953     450.3616    13895.773    17.944371 
    4530    1816.9045   -3631.2974   -3530.0756    621.00902    13917.725    18.057327 
    4540    1828.6349   -3631.9018   -3530.0265    129.10743    13941.261    18.134663 
    4550    1828.8824   -3631.8328   -3529.9437   -436.63955    13965.083    18.232724 
    4560     1804.828    -3630.378    -3529.829   -265.51254    13987.828    18.363655 
    4570    1808.4612   -3630.4485   -3529.6971    -106.2111    14010.294    18.501126 
    4580    1816.4464   -3630.7302    -3529.534    211.44073    14034.205    18.632613 
    4590    1846.4477   -3632.2136    -3529.346    160.68588    14060.442    18.781337 
    4600    1846.7812    -3632.017   -3529.1307    420.95591    14088.635    18.963445 
    4610    1848.5593   -3631.8889   -3528.9036   -310.94787    14118.717     19.17773 
    4620    1858.3079   -3632.1676   -3528.6391   -1004.5511    14150.227    19.404937 
    4630    1889.4705   -3633.5929   -3528.3284   -1745.7011    14181.915    19.628659 
    4640    1925.7732   -3635.2763   -3527.9893   -1825.5442    14211.823    19.842384 
    4650    1911.9681   -3634.1895   -3527.6716   -1898.0149    14238.123    20.064369 
    4660    1796.8603   -3627.4778   -3527.3727   -2197.9445    14260.523    20.306835 
    4670    1772.8112   -3625.7747   -3527.0094   -2411.5877    14279.435    20.559013 
    4680    1805.8543   -3627.1052    -3526.499   -2548.5584     14295.35    20.796631 
    4690    1833.1748   -3627.9642    -3525.836   -2164.9648    14308.687     21.00408 
    4700    1858.0799   -3628.5658   -3525.0501   -1410.8206    14320.211    21.186439 
    4710    1876.1732   -3628.6623   -3524.1385   -1143.4314    14331.388    21.355778 
    4720    1904.3127   -3629.2052   -3523.1138   -1616.1345    14343.191    21.514698 
    4730    1938.5623   -3629.9859   -3521.9864   -2370.8068    14354.925    21.648228 
    4740    1951.8637   -3629.5421   -3520.8016   -3244.6472    14365.241    21.754065 
    4750    1972.5883   -3629.5057   -3519.6105   -4038.6993    14373.478    21.849398 
    4760    1959.0687   -3627.6267   -3518.4848   -3692.2333    14379.003    21.949935 
    4770    1928.2292   -3624.8489   -3517.4251   -2892.2267    14381.718    22.072096 
    4780    2000.7257   -3627.9044   -3516.4418   -3062.3212    14382.099    22.190823 
    4790    1934.1535   -3623.3142   -3515.5604   -2261.0567    14380.798    22.296779 
    4800    1911.8931   -3621.3077    -3514.794    -886.1231    14379.101    22.387693 
    4810    1974.0985   -3624.0856   -3514.1064   -482.99202     14377.85    22.442806 
    4820     2016.808   -3625.8843   -3513.5256   -682.00324    14377.248    22.486485 
    4830    2017.1342   -3625.4656   -3513.0888   -428.53991    14377.498    22.526741 
    4840    2052.9041      -3627.2   -3512.8304   -780.52798     14378.83    22.582593 
    4850    2013.5855   -3624.8872    -3512.708   -467.43709    14381.267    22.692389 
    4860    1950.7912   -3621.3586   -3512.6778    425.79396    14385.649    22.857264 
    4870    1989.3266    -3623.515   -3512.6874   -281.28666    14393.407     23.08066 
    4880    2003.9062   -3624.3577   -3512.7178   -1590.5352    14404.112     23.34915 
    4890    1922.4575   -3619.8609   -3512.7586   -1700.0852    14415.638     23.62868 
    4900    1894.5385   -3618.3188   -3512.7719   -2562.6667     14427.34    23.887396 
    4910    1882.2142   -3617.5512   -3512.6909   -3075.7176     14438.54    24.093212 
    4920    1873.6986   -3616.9235   -3512.5376    -3012.882    14448.152    24.253715 
    4930    1864.1056   -3616.1541   -3512.3027   -2437.3936    14456.037    24.399418 
    4940    1907.7246   -3618.2643   -3511.9828   -2078.6192    14462.456    24.517957 
    4950    1978.1031   -3621.8154   -3511.6131   -2382.1812    14467.497    24.599528 
    4960    1956.6346   -3620.2405   -3511.2342   -1895.1349    14470.997    24.669372 
    4970    1978.4834   -3621.0998   -3510.8762   -2121.1403    14473.145    24.758024 
    4980     1920.473   -3617.4826   -3510.4909   -1342.3929    14472.896    24.869759 
    4990     1953.196   -3618.8974   -3510.0826   -1848.8812    14470.232    24.982368 
    5000    1972.9554   -3619.5335   -3509.6179   -2491.9696    14465.903    25.090255 
Loop time of 1178.46 on 16 procs for 5000 steps with 432 atoms

Performance: 0.367 ns/day, 65.470 hours/ns, 4.243 timesteps/s
96.8% CPU use with 16 MPI tasks x 1 OpenMP threads

MPI task timing breakdown:
Section |  min time  |  avg time  |  max time  |%varavg| %total
---------------------------------------------------------------
Pair    | 531.68     | 862.87     | 1163.3     | 724.2 | 73.22
Bond    | 0.00030994 | 0.00096723 | 0.0025003  |   0.0 |  0.00
Neigh   | 0.026038   | 0.029038   | 0.033472   |   1.3 |  0.00
Comm    | 6.4223     | 305.77     | 638.01     |1223.6 | 25.95
Output  | 0.24741    | 0.25241    | 0.32506    |   3.7 |  0.02
Modify  | 0.34555    | 9.5171     | 25.465     | 312.5 |  0.81
Other   |            | 0.01656    |            |       |  0.00

Nlocal:        27.0000 ave          34 max          22 min
Histogram: 4 0 2 1 0 5 0 3 0 1
Nghost:        296.750 ave         312 max         273 min
Histogram: 1 0 1 1 2 3 1 3 2 2
Neighs:         0.00000 ave           0 max           0 min
Histogram: 16 0 0 0 0 0 0 0 0 0
FullNghs:      792.750 ave        1102 max         615 min
Histogram: 4 0 4 1 2 2 0 2 0 1

Total # of neighbors = 12684
Ave neighs/atom = 29.361111
Ave special neighs/atom = 0.0000000
Neighbor list builds = 500
Dangerous builds = 500
Setting up Verlet run ...
  Unit style    : metal
  Current step  : 5000
  Time step     : 0.001
Per MPI rank memory allocation (min/avg/max) = 8.883 | 8.883 | 8.883 Mbytes
Step Temp PotEng TotEng Press Volume c_msd[4] 
    5000    1972.9554   -3619.5335   -3509.6179   -2491.9696    14465.903    25.090255 
    5010    1987.6431   -3620.3386   -3509.6048   -2839.9534    14465.855    25.230408 
    5020    1965.7205   -3619.0798   -3509.5673   -2433.4747    14465.727     25.40872 
    5030    1974.8782   -3619.5219   -3509.4992   -1947.9134    14465.487    25.613907 
    5040    1999.0801   -3620.7704   -3509.3994   -1914.4602    14465.089    25.815193 
    5050    2050.5286   -3623.5435   -3509.3063   -2098.3595    14464.508     25.97093 
    5060    2036.4667   -3622.6922   -3509.2384   -1859.0007    14463.786    26.077418 
    5070    2012.2239    -3621.327   -3509.2238   -1468.8438    14462.959    26.160638 
    5080     1996.186   -3620.4252   -3509.2154   -250.27467     14462.01    26.234889 
    5090    2019.5809   -3621.7292   -3509.2161    107.29946     14461.06    26.318929 
    5100    2068.8057   -3624.4967   -3509.2412   -369.09875    14460.301    26.429904 
    5110    2080.4136   -3625.2465   -3509.3443   -573.14178    14459.808    26.562675 
    5120    2035.3881   -3622.9544   -3509.5606   -1006.7255    14459.681    26.708719 
    5130    1957.2064   -3618.8795   -3509.8414   -1555.5877    14459.979    26.854569 
    5140    1913.4371   -3616.7158    -3510.116   -2349.8352    14460.643    26.995666 
    5150    1890.3287   -3615.6612   -3510.3489   -2537.5052    14461.596    27.138371 
    5160    1894.5984   -3616.0551   -3510.5049   -2617.3899    14462.837    27.276048 
    5170      1920.14   -3617.5497   -3510.5766   -2952.9618    14464.264    27.394138 
    5180    1913.9642   -3617.1949   -3510.5658   -2068.3026    14465.622    27.513954 
    5190    1885.9228   -3615.5095   -3510.4426   -1095.7311    14466.775    27.658017 
    5200    1919.6884    -3617.128     -3510.18   -1257.4352    14467.787    27.827625 
    5210    1935.1207   -3617.5788   -3509.7711   -1214.8072    14468.867    28.006252 
    5220    1935.7364   -3617.0718   -3509.2298   -1086.8968    14470.229    28.157022 
    5230    1947.1792   -3617.0119   -3508.5324   -721.29664     14471.79    28.268095 
    5240    2020.1061   -3620.2395   -3507.6971   -1280.4018    14473.363    28.321628 
    5250    2058.4481    -3621.455   -3506.7765   -2552.3025    14474.737    28.345069 
    5260    2039.3325   -3619.4757   -3505.8622   -3521.2549    14475.606    28.373484 
    5270    2030.7589   -3618.1078   -3504.9719   -3634.5841    14475.823    28.421533 
    5280    2009.2363   -3616.0366   -3504.0997   -2964.3512    14475.456    28.495306 
    5290    2020.2256   -3615.7836   -3503.2346   -2356.0835    14474.638    28.592548 
    5300    2064.0128   -3617.3743   -3502.3858   -2270.1583     14473.43    28.723467 
    5310    2056.4626   -3616.1559   -3501.5881   -2395.2142    14471.849    28.861432 
    5320    2059.8711   -3615.6371   -3500.8794   -2199.1652    14469.879     28.98686 
    5330    2028.1522   -3613.2291   -3500.2385   -1252.0826    14467.415    29.124155 
    5340    2058.0355   -3614.3044    -3499.649   -850.65441    14464.422    29.287617 
    5350     2091.625   -3615.6466   -3499.1198   -534.36298    14461.006    29.480839 
    5360    2137.6473   -3617.7798    -3498.689   -251.68726    14457.381     29.69645 
    5370    2189.1983   -3620.3884   -3498.4257    -448.2406    14453.709    29.901941 
    5380    2097.6065   -3615.2136   -3498.3536   -411.92025    14450.058    30.078736 
    5390    2052.9649   -3612.7908   -3498.4178    -1198.417    14446.551    30.231835 
    5400     1999.908   -3609.9437   -3498.5265   -2206.2967    14443.172    30.395065 
    5410    1975.2593   -3608.7082   -3498.6643   -3483.7008     14439.67    30.550771 
    5420    1897.1247   -3604.4395   -3498.7485   -3282.0107    14435.843    30.659058 
    5430     1975.672   -3608.8303   -3498.7634   -3000.5756    14431.775    30.724059 
    5440    1992.3326    -3609.731   -3498.7359   -2699.5555    14427.708    30.795682 
    5450    1974.1887   -3608.6824   -3498.6982   -2696.4693    14423.915    30.905678 
    5460    1945.1594   -3606.9772   -3498.6102   -3463.7724    14420.258    31.034522 
    5470    1996.5086   -3609.6945   -3498.4668   -4361.5689    14416.264    31.155847 
    5480     2018.931   -3610.7778   -3498.3009   -4428.6207    14411.678    31.256836 
    5490    2023.4601    -3610.859   -3498.1298   -4437.3306    14406.495     31.34209 
    5500    2032.8184   -3611.2075   -3497.9569   -3586.6457    14400.721    31.411259 
    5510    1963.1023   -3607.1509   -3497.7843   -2162.9158    14394.531    31.495596 
    5520    1960.4509   -3606.7673   -3497.5483    -1660.509    14388.285    31.602701 
    5530    2019.6792   -3609.7506    -3497.232   -1710.2448    14382.071    31.722934 
    5540    2008.9238   -3608.7796   -3496.8602   -1493.9666    14375.838    31.879283 
    5550    1967.2544   -3606.0412   -3496.4433   -1243.9332    14369.662     32.05797 
    5560    1988.8642   -3606.7318   -3495.9299   -1838.9327    14363.582    32.216402 
    5570    2105.5271   -3612.6264   -3495.3252   -2552.3696    14357.485    32.353945 
    5580    2112.6898   -3612.4165   -3494.7161   -1817.5132    14351.057    32.472272 
    5590    2123.1838   -3612.4658   -3494.1808   -1025.5165    14344.137    32.600359 
    5600    2227.0374   -3617.8151   -3493.7443   -1152.0824     14336.91     32.73169 
    5610    2232.0279   -3617.8439   -3493.4951   -972.42731    14329.347    32.881396 
    5620    2231.2071   -3617.8539   -3493.5508   -905.56369    14321.288    33.039344 
    5630    2177.3244   -3615.2025   -3493.9013    -422.6417    14312.662    33.197451 
    5640     2127.774   -3613.0248   -3494.4841   -382.54294     14303.57    33.359435 
    5650    2089.7666   -3611.7084   -3495.2852   -649.63245    14294.084    33.534151 
    5660     2015.606   -3608.4995   -3496.2079     -885.883    14284.245    33.741184 
    5670    1997.4697   -3608.4777   -3497.1964   -738.08993    14274.206    33.945093 
    5680    1971.9382   -3608.0658   -3498.2069   -671.14428    14264.071    34.085994 
    5690    1993.5487   -3610.2771   -3499.2142   -1206.3251    14253.718    34.160855 
    5700    2041.4321   -3613.9973   -3500.2668   -1142.9994    14242.928    34.205006 
    5710    1999.1972    -3612.683   -3501.3054   -171.48016    14231.623    34.264204 
    5720    2094.5097   -3619.0592   -3502.3717   -279.44921    14219.857    34.297762 
    5730    2152.1172   -3623.4166   -3503.5197   -796.24891    14207.622    34.318487 
    5740    2107.8236   -3622.2117   -3504.7825   -801.86019    14194.826    34.377842 
    5750    2038.0512   -3619.5476   -3506.0055   -749.55921    14181.423    34.481475 
    5760    2006.1432   -3618.9038   -3507.1393   -612.31112    14167.506    34.610745 
    5770    1933.5476   -3615.8138   -3508.0937    204.70367    14153.321    34.755427 
    5780    1948.4747   -3617.4161   -3508.8644   -431.55438    14139.177    34.901634 
    5790    1919.2858   -3616.4034   -3509.4778   -1526.3051    14125.104    35.026796 
    5800    1861.4276   -3613.6219   -3509.9197   -1874.7964    14110.906    35.134902 
    5810    1915.9012   -3616.9427   -3510.2057   -1845.1273    14096.476    35.256795 
    5820    1929.1963   -3617.8321   -3510.3544   -1855.7831    14081.908    35.390358 
    5830      1939.71   -3618.4984    -3510.435   -2267.9863    14067.321    35.496487 
    5840    1892.4348   -3615.8592   -3510.4295   -2385.5359    14052.682    35.575811 
    5850     1932.343   -3617.9911   -3510.3381   -1595.1754    14037.931     35.63239 
    5860    1998.8567   -3621.5373   -3510.1787    -1029.311    14023.172    35.652263 
    5870    1988.2197   -3620.7465   -3509.9805   -425.95283    14008.574    35.634105 
    5880    2028.7601   -3622.8073   -3509.7828   -521.38639     13994.29    35.625612 
    5890    2088.4398   -3625.9674   -3509.6181   -1559.0905    13980.366      35.6572 
    5900     2050.657    -3623.796   -3509.5516   -2373.2382     13966.68    35.745366 
    5910    1921.9639   -3616.6074   -3509.5326    -2549.741    13953.147    35.899213 
    5920     1856.057    -3612.844    -3509.441   -2206.0845    13939.748    36.077134 
    5930    1925.7978   -3616.5164   -3509.2281   -2303.2963    13926.369    36.238533 
    5940    1952.2751   -3617.6695    -3508.906   -630.19488    13912.806    36.370865 
    5950    2003.3748   -3620.1203     -3508.51    422.88365    13899.169    36.491277 
    5960    2059.5002   -3622.8107   -3508.0736    290.86438    13885.669    36.639851 
    5970    2043.8572    -3621.531   -3507.6654    994.84101    13872.342    36.804647 
    5980    2005.3465   -3618.9986   -3507.2785    2284.4364    13859.289    36.954556 
    5990    1973.5705   -3616.8223   -3506.8725    2963.7014    13846.663    37.085282 
    6000    1957.5374   -3615.4537   -3506.3971    3117.3498    13834.516    37.202244 
    6010    2011.7323   -3617.9104   -3505.8346    3250.3626    13822.941    37.329357 
    6020    2051.4595   -3619.4829   -3505.1938    3470.6074     13812.12    37.478611 
    6030    2084.2079   -3620.6294   -3504.5159    3429.8402    13802.226    37.631799 
    6040    2119.4867   -3621.9288   -3503.8498    3188.2923    13793.439    37.762983 
    6050    2091.1508   -3619.7425   -3503.2422    2979.3662    13785.707    37.870121 
    6060    2087.4108   -3618.9711   -3502.6791    2739.5199    13778.714    37.957809 
    6070    2053.7859   -3616.5564   -3502.1377    3288.7965    13772.101    38.042817 
    6080    2100.6278   -3618.6349   -3501.6065    3671.4337    13765.794    38.136162 
    6090     2120.303   -3619.1937   -3501.0692    4250.5151     13759.96    38.246667 
    6100    2161.3962   -3621.0104   -3500.5966    4322.8811    13754.833    38.370977 
    6110    2156.6049    -3620.384   -3500.2372    4252.8622    13750.584    38.477707 
    6120    2185.6769   -3621.8025    -3500.036    4002.5365     13747.22     38.56237 
    6130    2188.4412   -3621.9618   -3500.0413    3717.5083    13744.709    38.629105 
    6140    2121.7837   -3618.4967   -3500.2898    3428.1902     13742.97     38.67275 
    6150    2010.6763   -3612.7291   -3500.7121    3911.3641    13741.933    38.716445 
    6160    1969.5014   -3610.9321   -3501.2089    4677.7422    13741.707    38.795862 
    6170    2035.0786   -3615.1422   -3501.7656    4881.2414    13742.422     38.94377 
    6180    2027.9744   -3615.4123   -3502.4316    5404.2293    13744.155    39.153811 
    6190     2031.864   -3616.4099   -3503.2125    5253.2439    13747.136    39.354174 
    6200    2094.3627   -3620.8044   -3504.1251    3948.7133     13751.51    39.508601 
    6210    2127.9665    -3623.792   -3505.2406    2578.0808     13756.87    39.622545 
    6220    2035.1351   -3619.8747    -3506.495    3070.7248    13762.693    39.730921 
    6230    2029.5874   -3620.8676   -3507.7971    3587.8861    13768.922    39.863638 
    6240    2048.9448   -3623.2699   -3509.1209    4039.9948    13775.706    40.056244 
    6250    2057.0775   -3625.0492   -3510.4471     3955.098    13783.082    40.321189 
    6260    2055.3662   -3626.2422   -3511.7355    3146.4118    13790.924    40.576445 
    6270     2026.492   -3625.8358   -3512.9376    2384.6799     13799.13    40.757219 
    6280     2079.967   -3629.9535   -3514.0762    1390.9475     13807.68    40.901334 
    6290    2020.6091   -3627.7118   -3515.1414    1411.3721    13816.398    41.047177 
    6300    1910.6379   -3622.4794   -3516.0356    2019.5281    13825.176      41.2031 
    6310    1939.7145    -3624.817   -3516.7533    1887.4749    13834.047    41.381648 
    6320    1945.0346   -3625.6791    -3517.319    1797.7829    13843.153    41.565705 
    6330    1989.6656   -3628.6573   -3517.8108    1324.3658    13852.662    41.713591 
    6340    1946.1063   -3626.6403   -3518.2205    1188.5407      13862.6    41.832968 
    6350    1945.4842   -3626.9353   -3518.5501    975.72928    13872.878    41.930747 
    6360    1946.4533   -3627.2393   -3518.8002    1019.1775     13883.43    42.002964 
    6370    1932.9299   -3626.6636   -3518.9779    1234.9763    13894.184    42.073985 
    6380    1860.6508   -3622.7102   -3519.0512     1098.804    13905.054    42.140085 
    6390    1879.6736   -3623.7188   -3519.0001    316.01368      13915.9    42.197123 
    6400    1914.1068   -3625.4474   -3518.8104   -101.98605    13926.517    42.285882 
    6410    1884.2751   -3623.4889   -3518.5138    351.22268    13936.775    42.411235 
    6420    1836.6816   -3620.4266    -3518.103    1312.2003      13946.7    42.544366 
    6430    1875.0635   -3622.0081   -3517.5462    1159.2239    13956.332    42.646885 
    6440    1895.6486   -3622.4378   -3516.8291     929.3163    13965.758    42.751639 
    6450    1880.4246    -3620.761   -3516.0005    907.24857    13975.105    42.918094 
    6460    1895.9516   -3620.6832   -3515.0576    364.47641    13984.492     43.13996 
    6470    1910.8796   -3620.4768   -3514.0195    59.753441    13993.836    43.380658 
    6480    1875.7452   -3617.4258    -3512.926    117.45426    14003.143    43.579412 
    6490    1890.6727   -3617.1392   -3511.8077   -243.46881    14012.439    43.711917 
    6500    1933.8486    -3618.384   -3510.6472   -1316.0697    14021.666    43.794329 
    6510    2029.9586   -3622.6189   -3509.5277   -2445.6536    14030.578    43.885289 
    6520    2033.7157   -3621.8515   -3508.5509   -2415.3983     14039.01    44.017661 
    6530    2011.7451   -3619.8337   -3507.7571   -2369.4129    14046.987    44.159552 
    6540    2059.2014   -3621.8278   -3507.1074   -2662.1017    14054.508    44.287686 
    6550     2089.216   -3622.9922   -3506.5997   -2820.6036    14061.517     44.42436 
    6560    2038.3402   -3619.8101   -3506.2519    -2530.848    14068.143    44.602662 
    6570    2011.7173   -3618.0865   -3506.0115   -2392.2298    14074.735    44.789115 
    6580    1990.1006   -3616.6841   -3505.8134   -1765.5621    14081.447    44.945116 
    6590    1962.2861   -3614.9345   -3505.6134   -1394.9525    14088.283    45.091754 
    6600    1990.1069   -3616.2747   -3505.4036   -2013.6061    14095.129    45.250907 
    6610    2019.1396   -3617.6779   -3505.1894   -2280.1262    14101.821    45.415401 
    6620    2019.0979   -3617.4902    -3505.004   -1461.0493    14108.329     45.58205 
    6630    2013.7833   -3617.0419   -3504.8518   -579.71888    14114.705    45.734702 
    6640    2000.0987   -3616.1378     -3504.71    258.51318    14120.933    45.836151 
    6650    2008.1987   -3616.4618   -3504.5828     608.7355     14127.04    45.896934 
    6660    1993.8956   -3615.5362    -3504.454    900.23365    14133.084    45.967604 
    6670    2016.8214   -3616.6846   -3504.3253     696.7533    14139.012    46.083915 
    6680    2035.1096   -3617.5928   -3504.2145    852.86024    14144.663    46.231536 
    6690    2026.9363   -3617.0547   -3504.1318    657.05578        14150    46.368015 
    6700    2091.7198   -3620.6311    -3504.099    196.97459    14154.953    46.471024 
    6710    2052.9026   -3618.5083   -3504.1388    1022.2972     14159.46    46.558962 
    6720    2000.0423   -3615.6813   -3504.2567     1533.445    14163.742    46.631245 
    6730    1979.6614   -3614.6768   -3504.3877    1971.7036     14167.96     46.70587 
    6740    2011.5685   -3616.5939   -3504.5271    1995.3992    14172.502    46.799761 
    6750    2024.8945   -3617.4783   -3504.6691    1259.0565    14177.488    46.932123 
    6760    2069.9823   -3620.1934   -3504.8724    153.30247    14182.706     47.09564 
    6770    2068.6023   -3620.4022    -3505.158    -360.6195    14187.807    47.270972 
    6780    2089.5611   -3622.0095   -3505.5977   -640.56428    14192.664    47.469939 
    6790    2030.6693   -3619.3097   -3506.1788   -348.50019    14197.439    47.738909 
    6800    2006.5071   -3618.6677   -3506.8829    617.71596      14202.3    48.045931 
    6810       2026.1   -3620.5946   -3507.7183     1123.875    14207.475    48.337075 
    6820    2022.4179    -3621.381   -3508.7098    1135.7638    14213.173    48.605847 
    6830    1948.0955   -3618.3382   -3509.8076    1560.0395     14219.36    48.856808 
    6840    1907.7897   -3617.2076   -3510.9224    1391.9226    14225.816    49.084164 
    6850    1919.2956   -3618.9353   -3512.0091    299.43258    14232.096    49.301242 
    6860    1926.8213   -3620.4059   -3513.0605   -729.86681    14237.846    49.515371 
    6870    1928.6448    -3621.514   -3514.0671   -1174.4049    14242.982    49.712286 
    6880    1908.2843   -3621.3241   -3515.0114   -419.33472    14247.605    49.920065 
    6890    1900.9654   -3621.7463   -3515.8414    247.68418    14251.842     50.14464 
    6900     1952.193   -3625.3361   -3516.5772   -8.6476583    14255.672    50.368081 
    6910      1949.09   -3625.8258   -3517.2398    249.41613    14259.113    50.586661 
    6920    1969.2414   -3627.5544   -3517.8458    678.90603     14262.25    50.789918 
    6930    1980.9571   -3628.7639   -3518.4025    322.88977    14265.135    50.951746 
    6940    1951.7746   -3627.6541   -3518.9185   -48.365267    14267.673    51.060342 
    6950    1919.7955     -3626.31   -3519.3561   -203.42875    14269.871    51.142105 
    6960      1893.08   -3625.1618   -3519.6962   -272.55492    14271.812    51.218737 
    6970    1846.2571   -3622.7646   -3519.9076    147.20603    14273.621    51.336205 
    6980     1851.994   -3623.1436    -3519.967   -114.23681    14275.444    51.503991 
    6990     1844.181   -3622.6113   -3519.8699    -434.8144    14277.296    51.696553 
    7000    1833.6427   -3621.7572   -3519.6029   -112.96264    14279.125    51.912606 
Loop time of 476.568 on 16 procs for 2000 steps with 432 atoms

Performance: 0.363 ns/day, 66.190 hours/ns, 4.197 timesteps/s
96.9% CPU use with 16 MPI tasks x 1 OpenMP threads

MPI task timing breakdown:
Section |  min time  |  avg time  |  max time  |%varavg| %total
---------------------------------------------------------------
Pair    | 204.3      | 341.61     | 464.71     | 486.5 | 71.68
Bond    | 0.00012517 | 0.0003874  | 0.00089431 |   0.0 |  0.00
Neigh   | 0.010143   | 0.011375   | 0.013264   |   0.7 |  0.00
Comm    | 11.055     | 130.43     | 263.01     | 787.5 | 27.37
Output  | 0.15808    | 0.16017    | 0.19092    |   2.0 |  0.03
Modify  | 0.16159    | 4.344      | 9.532      | 193.8 |  0.91
Other   |            | 0.006791   |            |       |  0.00

Nlocal:        27.0000 ave          32 max          20 min
Histogram: 1 0 0 1 3 3 3 3 0 2
Nghost:        300.250 ave         317 max         283 min
Histogram: 2 1 3 1 1 1 0 4 1 2
Neighs:         0.00000 ave           0 max           0 min
Histogram: 16 0 0 0 0 0 0 0 0 0
FullNghs:      804.250 ave        1018 max         526 min
Histogram: 1 0 0 1 3 4 4 1 1 1

Total # of neighbors = 12868
Ave neighs/atom = 29.787037
Ave special neighs/atom = 0.0000000
Neighbor list builds = 200
Dangerous builds = 200
Setting up Verlet run ...
  Unit style    : metal
  Current step  : 7000
  Time step     : 0.001
Per MPI rank memory allocation (min/avg/max) = 8.883 | 8.883 | 8.883 Mbytes
Step Temp PotEng TotEng Press Volume c_msd[4] 
    7000    1833.6427   -3621.7572   -3519.6029   -112.96264    14279.125    51.912606 
    7010    1913.1697   -3626.1229   -3519.5381   -566.81382    14279.161    52.111391 
    7020    1906.6134    -3625.596   -3519.3764   -524.31429    14279.208    52.295658 
    7030    1931.1704   -3626.6903   -3519.1026   -1188.5528    14279.255    52.458566 
    7040    1938.3645   -3626.7287   -3518.7403   -1330.9751    14279.179    52.581682 
    7050    1945.1213   -3626.6805   -3518.3156    -744.7562    14278.921    52.669754 
    7060    1913.8558   -3624.4352   -3517.8122    418.00649    14278.634    52.749552 
    7070    1889.0612    -3622.447   -3517.2053    1308.5435    14278.509    52.856818 
    7080    1952.3366   -3625.2421   -3516.4753    473.79206    14278.669    52.990842 
    7090    1965.3148   -3625.1277   -3515.6378     97.03066    14279.119    53.115951 
    7100    1998.4198   -3626.0802    -3514.746    312.85884    14279.983    53.224684 
    7110    2009.1862   -3625.7622   -3513.8282    1619.4959    14281.441    53.314506 
    7120     1987.096   -3623.6256   -3512.9222    3548.7119    14283.691    53.396254 
    7130    1994.2995     -3623.13   -3512.0254    4132.5796    14286.889    53.494905 
    7140    2018.2765   -3623.5722   -3511.1318    2860.4219    14290.935    53.615821 
    7150    2058.7833   -3624.9766   -3510.2795    1054.4331    14295.434    53.778502 
    7160    2091.5615   -3626.0309   -3509.5077   -921.24447    14300.054    54.020093 
    7170    2020.8882   -3621.4681   -3508.8822   -1255.7908    14304.548    54.302563 
    7180    2051.8518   -3622.6835   -3508.3725   -1788.7175     14308.81    54.547411 
    7190     2054.982   -3622.4322   -3507.9468   -2215.4204    14312.887    54.723483 
    7200    2040.2759   -3621.3021    -3507.636   -1780.7557    14316.819    54.870777 
    7210    2056.5797    -3622.002   -3507.4277   -1872.7355    14320.536    55.031545 
    7220     2000.095   -3618.7281   -3507.3006    -1505.004     14323.75    55.228884 
    7230    2032.5088   -3620.4895   -3507.2562   -1397.3993    14326.311    55.474979 
    7240     2021.777   -3619.9151   -3507.2796   -651.81232    14328.297    55.771737 
    7250    2003.4301   -3618.9851   -3507.3717   -452.33455    14329.927    56.101113 
    7260    2020.0904   -3620.0661   -3507.5246   -208.12294      14331.1    56.421475 
    7270    1960.6606   -3616.9649   -3507.7343    474.80935     14331.61    56.708645 
    7280    1991.2254   -3618.9323   -3507.9989    173.31257    14331.434    56.967172 
    7290     1951.024   -3616.9852   -3508.2914   -424.21207    14330.575    57.188139 
    7300     1987.399   -3619.3698   -3508.6495   -1240.7314    14329.021    57.375966 
    7310    1980.8626    -3619.439    -3509.083    -1033.543    14326.777    57.575647 
    7320    2018.3378   -3622.0973   -3509.6534   -633.68198    14324.061    57.818576 
    7330    2040.5796   -3624.1451   -3510.4621   -646.81733    14321.166    58.105242 
    7340    1988.2986   -3622.3721   -3511.6018    -921.8114     14318.21    58.365612 
    7350    1963.7283   -3622.5355    -3513.134   -1306.8637    14315.175    58.521829 
    7360    1930.8071   -3622.6328   -3515.0653   -1197.3598    14311.865    58.562238 
    7370    1905.5509   -3623.4154    -3517.255   -737.84938    14308.226    58.538107 
    7380    1927.5192    -3626.889   -3519.5048   -978.35576    14304.297     58.51645 
    7390    1856.2258   -3624.8999   -3521.4875    -1344.557    14299.952    58.539734 
    7400    1813.9925   -3624.0444   -3522.9849   -2056.0375     14295.01    58.632717 
    7410     1835.525   -3626.2911    -3524.032   -2590.9719    14289.383    58.812024 
    7420    1871.3567   -3629.0074    -3524.752   -2011.1846    14283.104    59.044321 
    7430    1948.4936   -3633.8454   -3525.2926    -653.5548    14276.317    59.254198 
    7440    1956.3811   -3634.7328   -3525.7406    1075.6303     14269.37    59.412315 
    7450    1968.4684   -3635.8303   -3526.1647    677.42426    14262.609    59.533834 
    7460    1878.9521   -3631.2228   -3526.5442    30.458001    14256.204    59.603158 
    7470    1851.0906   -3629.9756   -3526.8493    -808.6529     14250.13    59.648815 
    7480    1876.0221   -3631.5963    -3527.081    -683.5101     14244.13    59.778129 
    7490    1844.2231   -3629.9805   -3527.2367    157.68107    14238.074    59.990214 
    7500    1870.7157   -3631.5452   -3527.3255   -341.01063    14232.087    60.208344 
    7510    1885.0956   -3632.3758    -3527.355   -1298.3514    14226.297    60.386386 
    7520    1888.0879   -3632.5525    -3527.365    -1780.072    14220.565    60.515646 
    7530     1876.741   -3631.9046   -3527.3493   -1296.8855    14214.574    60.596189 
    7540     1869.904   -3631.4682   -3527.2938   -394.02354    14208.238     60.61944 
    7550    1865.4809   -3631.1217   -3527.1937    858.27805    14201.735    60.605699 
    7560    1858.3251   -3630.5739   -3527.0445    2105.2097     14195.29    60.600856 
    7570    1831.3602   -3628.8487   -3526.8215     3078.059    14189.144    60.634398 
    7580    1890.4823   -3631.8573   -3526.5364     2089.229    14183.442    60.716467 
    7590    1876.8324   -3630.7565    -3526.196    1626.9235     14178.17     60.83201 
    7600    1864.5216   -3629.7074   -3525.8328    1034.3285    14173.302    60.885171 
    7610    1906.9158   -3631.6711   -3525.4347    274.18497    14168.598    60.866257 
    7620    1878.3769   -3629.6499   -3525.0034    630.87158    14163.862    60.866697 
    7630    1888.5744   -3629.7744   -3524.5598    490.06228     14159.09    60.944156 
    7640    1877.9266      -3628.7   -3524.0786    796.50564    14154.337    61.075041 
    7650     1914.013   -3630.1953   -3523.5635    1266.2042    14149.796    61.226438 
    7660    1928.8565   -3630.4966   -3523.0379    1407.0199    14145.662    61.371335 
    7670    1897.5904   -3628.2536   -3522.5367    986.25833    14142.023     61.51214 
    7680    1853.3938   -3625.2941   -3522.0394    1009.8426    14138.853    61.623636 
    7690    1902.5992   -3627.4992   -3521.5033    691.61121    14136.217    61.717876 
    7700    1933.6191   -3628.6622   -3520.9381    497.38089    14133.975    61.842977 
    7710    1888.8947   -3625.6312   -3520.3987    1267.1457    14131.868    61.992532 
    7720    1930.4936   -3627.4267   -3519.8768    1218.9064    14129.927     62.14785 
    7730    1977.8183   -3629.5637   -3519.3773    391.58887    14128.122    62.304869 
    7740    2013.8777   -3631.1593   -3518.9639    510.08498    14126.279    62.433788 
    7750    2044.6463   -3632.6158   -3518.7063    48.042372    14124.344    62.519721 
    7760    1971.7946    -3628.461   -3518.6101   -9.7350356    14122.152     62.57595 
    7770    1934.6847   -3626.4284   -3518.6449   -704.37356    14119.711    62.615665 
    7780    1970.8347   -3628.5746   -3518.7772   -1291.2783    14117.056    62.686801 
    7790    1958.7967   -3628.1726   -3519.0459   -925.72882    14114.058    62.772464 
    7800    1902.4256   -3625.4237   -3519.4374   -75.722541    14110.566     62.82688 
    7810    1902.8143   -3625.9435   -3519.9356    -50.24289    14106.585    62.863391 
    7820    1908.7114   -3626.8682   -3520.5318   -33.675532     14102.26    62.920606 
    7830    1935.2276   -3629.0861   -3521.2724    10.433051    14097.757     63.02579 
    7840     1901.394   -3628.1147   -3522.1859   -401.35732    14093.064    63.173107 
    7850    1859.1148   -3626.7949   -3523.2216   -991.49045    14088.212    63.368716 
    7860    1837.5313    -3626.707    -3524.336    -1145.279    14083.154    63.621447 
    7870      1825.14   -3627.1709   -3525.4904   -1327.6266    14077.682    63.869715 
    7880    1808.6433   -3627.3793   -3526.6178   -1456.1759    14071.779    64.058424 
    7890    1845.1322   -3630.5056   -3527.7113   -2004.9713    14065.564    64.205115 
    7900    1846.1493   -3631.6211     -3528.77   -1279.5661    14059.003    64.338097 
    7910    1825.3753   -3631.4439   -3529.7502   -115.85755    14052.247    64.429639 
    7920     1860.511   -3634.2802   -3530.6291    624.75951    14045.593    64.468802 
    7930     1925.923   -3638.7797   -3531.4843    1405.9846    14039.112    64.463815 
    7940    1907.9178    -3638.603   -3532.3107    2418.4901    14032.891    64.453598 
    7950    1921.3143   -3640.1501   -3533.1115    2074.6383    14026.995    64.479794 
    7960    1933.6382   -3641.6354   -3533.9102    1767.8256    14021.344    64.574559 
    7970    1831.5323   -3636.6709   -3534.6341    2719.9487    14015.929    64.683936 
    7980    1780.4395    -3634.418   -3535.2278    2899.8916    14010.851    64.726343 
    7990    1750.5545   -3633.2047   -3535.6794    3010.9719    14006.155    64.679543 
    8000    1689.1304   -3630.0475   -3535.9442    3158.0002    14001.937    64.569266 
    8010    1774.2436   -3634.9179   -3536.0728     2197.751    13998.197    64.489164 
    8020    1808.1431   -3636.8605   -3536.1269    1692.7166    13994.797    64.518386 
    8030     1749.643    -3633.607   -3536.1325    2135.1306    13991.558     64.64749 
    8040    1760.7732   -3634.1803   -3536.0856    1682.5011    13988.429    64.825887 
    8050    1780.7895   -3635.1681   -3535.9584    1402.6452    13985.527    65.019631 
    8060    1834.9252   -3638.0383   -3535.8125    1491.1799    13983.043    65.196581 
    8070    1800.1666   -3635.9627   -3535.6734    2372.9171    13981.133    65.315498 
    8080    1775.1946   -3634.4205   -3535.5224    2640.5557     13979.88    65.365482 
    8090     1800.208   -3635.6381   -3535.3465    1831.7736    13979.324    65.383795 
    8100    1764.3093   -3633.4362   -3535.1446    645.53882    13979.237    65.448006 
    8110    1662.4931   -3627.5035   -3534.8842    976.16708    13979.308    65.600346 
    8120    1690.3249   -3628.6833   -3534.5134     1036.503    13979.441    65.793565 
    8130    1749.0688   -3631.4422   -3533.9996    1115.4037    13979.541    65.955488 
    8140    1791.8295   -3633.2304   -3533.4055    1595.5148    13979.631    66.085721 
    8150    1783.4297   -3632.1394   -3532.7826    2513.9009    13979.895    66.169151 
    8160    1810.0448   -3632.9861   -3532.1464      3169.15    13980.481    66.216672 
    8170    1854.8761   -3634.8485   -3531.5113    3735.0871    13981.545    66.272148 
    8180    1883.0107   -3635.8383   -3530.9337    4222.7083    13983.304    66.357505 
    8190    1867.3992   -3634.4854   -3530.4505    4489.5964    13985.909     66.49315 
    8200     1798.435   -3630.2493   -3530.0565    4580.7159    13989.389    66.643741 
    8210    1798.7135    -3629.908   -3529.6996    3365.4202    13993.857    66.772611 
    8220    1807.4156   -3630.0303   -3529.3371    1698.7125    13999.282    66.917706 
    8230    1790.1059   -3628.6916   -3528.9628    877.61572    14005.478    67.102958 
    8240     1844.945   -3631.3918   -3528.6079    -19.11884    14012.251    67.324062 
    8250    1898.7143   -3634.0778   -3528.2983    1.4616044     14019.42    67.560791 
    8260    1841.2624   -3630.6587   -3528.0799    742.02762    14026.867    67.781263 
    8270    1822.0729   -3629.4569   -3527.9472    1109.3778    14034.657    67.976334 
    8280    1810.1438   -3628.6964   -3527.8512    1630.2394     14042.94     68.13953 
    8290    1787.0444   -3627.3434   -3527.7851     1944.572    14051.918    68.289454 
    8300    1792.6335   -3627.5956   -3527.7259     1530.642    14061.753    68.409951 
    8310     1825.683   -3629.3938    -3527.683    1349.6754    14072.405    68.473772 
    8320    1808.5322   -3628.4107   -3527.6554     1788.203    14083.726    68.498589 
    8330    1859.6545   -3631.2676   -3527.6641    1380.0079    14095.576    68.538445 
    8340    1892.8474   -3633.2371   -3527.7845    1292.9047    14107.712    68.627398 
    8350    1799.3682   -3628.3031   -3528.0583    2077.3777    14120.014    68.732501 
    8360     1757.593   -3626.3778   -3528.4603    2139.2381    14132.565    68.838124 
    8370    1791.8056   -3628.7849   -3528.9614    1504.2108    14145.304    68.955869 
    8380    1793.6199   -3629.5442   -3529.6196    1085.8483    14158.134    69.066241 
    8390    1752.3249   -3628.0489   -3530.4249    1004.1761    14171.053    69.172651 
    8400    1732.2648   -3627.8611   -3531.3547    885.75013    14184.161    69.301982 
    8410    1675.9894    -3625.692   -3532.3208    976.74524    14197.626    69.461793 
    8420    1663.3245   -3625.9352   -3533.2696    921.02133    14211.599    69.627424 
    8430    1668.1012   -3627.0505   -3534.1187    30.822894    14225.975    69.782174 
    8440    1711.7767    -3630.258    -3534.893   -1076.4734    14240.426    69.925518 
    8450    1757.3296   -3633.5321   -3535.6293   -2019.0313    14254.635    70.040713 
    8460    1734.6821   -3632.9988   -3536.3577   -2412.8116    14268.431    70.140612 
    8470    1680.2801   -3630.6273    -3537.017   -2879.9026    14281.605     70.26152 
    8480     1688.201   -3631.6416     -3537.59    -3227.778    14293.996    70.402726 
    8490    1692.0617   -3632.3587   -3538.0921   -3511.8652    14305.555    70.550809 
    8500    1650.5803    -3630.469   -3538.5133   -2619.8186    14316.355    70.703003 
    8510    1656.4969   -3631.1282   -3538.8429   -2201.6944    14326.552    70.880204 
    8520    1684.7229   -3632.9382   -3539.0804   -2841.9368    14336.139    71.050931 
    8530    1674.6331   -3632.5584   -3539.2627   -2859.0622    14345.083    71.193372 
    8540    1608.9586   -3629.0042   -3539.3673   -2570.5267    14353.621    71.343803 
    8550    1581.0479   -3627.4284   -3539.3464    -2306.739    14361.908    71.544383 
    8560    1643.5616   -3630.7533   -3539.1886   -2701.6824    14370.221    71.797639 
[...]
   24890    299.32108   -3741.4551   -3724.7796   -247.85603    13577.637    97.434611 
   24900    298.95734   -3741.5007   -3724.8455   -228.22896    13579.643    97.439725 
   24910    294.03686   -3741.2796   -3724.8985   -118.43564     13581.74    97.439925 
   24920    299.25735   -3741.6122   -3724.9402   -3.2613294    13584.011    97.441771 
   24930    306.34843   -3742.0439   -3724.9769     57.89103    13586.658    97.442443 
   24940    301.33283   -3741.8017   -3725.0141    207.28867    13589.812    97.444388 
   24950     288.4893   -3741.1176   -3725.0456    398.85431    13593.558    97.459911 
   24960    286.87584   -3741.0442    -3725.062    483.00314     13597.84    97.489812 
   24970    298.98478   -3741.7221   -3725.0653    357.70622    13602.422    97.519487 
   24980     303.8032   -3741.9902    -3725.065    240.97915    13606.998    97.547498 
   24990    301.93479   -3741.8876   -3725.0664    199.29801    13611.283    97.583573 
   25000    308.80703   -3742.2773   -3725.0733    175.84346    13615.198    97.629817 
   25010    305.23703   -3742.0918   -3725.0867     242.3595    13618.903    97.672475 
   25020    299.74876   -3741.8052   -3725.1058    332.16409    13622.606    97.695018 
   25030    292.27077   -3741.4054   -3725.1227    443.74483    13626.463    97.687687 
   25040    288.63973   -3741.2109   -3725.1305    474.24158    13630.541    97.643361 
   25050    295.52732    -3741.591   -3725.1269    491.63553    13634.633    97.564971 
   25060    305.95382   -3742.1629   -3725.1178     518.6712    13638.426    97.483941 
   25070    313.25909   -3742.5671   -3725.1151    471.10409    13641.656    97.446195 
   25080    311.32398   -3742.4703   -3725.1261    428.31824    13644.135    97.474558 
   25090    308.86861   -3742.3576   -3725.1501    344.80166    13645.749    97.546745 
   25100    311.31076   -3742.5302   -3725.1867    327.89493    13646.509    97.616572 
   25110    303.65987   -3742.1521   -3725.2348    422.19537    13646.637     97.64718 
   25120     289.3758   -3741.4067   -3725.2852    471.06275    13646.507    97.626745 
   25130    281.85935   -3741.0277    -3725.325    532.63136    13646.512    97.570923 
   25140    282.05728   -3741.0613   -3725.3475    755.49137    13646.939    97.514412 
   25150    286.58752   -3741.3185   -3725.3524    977.96199    13647.973    97.485301 
   25160    294.20784   -3741.7343   -3725.3437    1021.0427    13649.687    97.484946 
   25170    295.56054   -3741.7918   -3725.3258    884.27934    13651.924    97.501816 
   25180    291.30474   -3741.5276   -3725.2987    758.03049    13654.193     97.52283 
   25190     296.4493    -3741.775   -3725.2595    628.84976    13656.161    97.533125 
   25200    308.03007   -3742.3701   -3725.2094    602.21816    13657.874    97.527729 
   25210      306.814   -3742.2485   -3725.1555    549.32965    13659.602    97.521771 
   25220     300.2479   -3741.8262    -3725.099    384.60558     13661.53    97.533042 
   25230    300.31474   -3741.7623   -3725.0314    232.56921    13663.584    97.558423 
   25240    304.82754   -3741.9295   -3724.9472    102.80097    13665.617    97.584548 
   25250    307.26779   -3741.9656   -3724.8474   -127.92901     13667.48    97.608235 
   25260    299.56852   -3741.4231   -3724.7338   -419.46025    13668.694    97.625182 
   25270    287.43406   -3740.6171   -3724.6038   -538.59473    13668.467    97.622185 
   25280    283.92531   -3740.2655   -3724.4477   -555.61849    13666.278    97.595166 
   25290    291.81873   -3740.5158   -3724.2583   -674.98672    13662.073    97.561593 
   25300    301.84779   -3740.8587   -3724.0424   -724.63994    13656.061    97.537989 
   25310    306.14674   -3740.8764   -3723.8206   -376.25468     13648.57    97.520874 
   25320    310.72747   -3740.9212   -3723.6102    113.82006    13640.069    97.499626 
   25330    319.74636   -3741.2343   -3723.4208    520.92826     13631.12    97.473478 
   25340    328.21939   -3741.5495    -3723.264    736.89624    13622.215    97.450473 
   25350    325.32253   -3741.2751    -3723.151    741.11521    13613.585    97.442899 
   25360    310.06533   -3740.3509   -3723.0768    748.70333    13605.264    97.460113 
   25370    303.33689   -3739.9215   -3723.0222    801.53241    13597.389    97.497679 
   25380    313.86729   -3740.4619    -3722.976    826.02886    13590.176    97.533842 
   25390    325.53309   -3741.0815   -3722.9457    898.67858    13583.919    97.551941 
   25400    322.59403   -3740.9156   -3722.9435    1053.4189    13578.983    97.554313 
   25410    314.77344   -3740.5042   -3722.9678    1226.5594    13575.606    97.551656 
   25420     317.9111   -3740.7241   -3723.0129     1226.085    13573.766    97.552023 
   25430    320.24473   -3740.9217   -3723.0805    1101.9553     13573.27    97.548998 
   25440    313.34557   -3740.6267   -3723.1699    1012.6951    13573.958    97.531547 
   25450     310.6297   -3740.5809   -3723.2754    1127.9854     13575.84    97.495775 
   25460    312.75578   -3740.8196   -3723.3956    1363.4832     13579.16    97.442616 
   25470    315.04613   -3741.0835   -3723.5319    1348.0651    13584.132    97.382993 
   25480    316.15029   -3741.2988   -3723.6857    1172.0859    13590.576    97.323746 
   25490    306.38921   -3740.9171   -3723.8478    925.21343    13598.031    97.265597 
   25500    298.88156   -3740.6552   -3724.0042    667.16995    13606.005    97.220652 
   25510    296.62223   -3740.6727   -3724.1475      512.531    13614.141    97.204141 
   25520    293.01511    -3740.598   -3724.2738    541.12535     13622.25    97.212475 
   25530    293.53627   -3740.7343    -3724.381    668.18016    13630.235    97.227029 
   25540    300.55967   -3741.2179   -3724.4734    747.14898    13637.994    97.239081 
   25550    305.33294   -3741.5682   -3724.5578    778.78496    13645.375    97.259541 
   25560    307.16216   -3741.7527   -3724.6403      686.688    13652.239    97.306223 
   25570    305.47631   -3741.7396   -3724.7212    438.78463    13658.649    97.380162 
   25580    312.91498    -3742.235   -3724.8021    15.417444    13664.598    97.467199 
   25590    318.13304   -3742.6138   -3724.8902   -328.90661    13669.835    97.549525 
   25600    309.90507   -3742.2509   -3724.9858   -417.75518    13674.043    97.614763 
   25610    304.47434   -3742.0441   -3725.0815   -385.69889    13677.154    97.660235 
   25620    298.35956   -3741.7932   -3725.1713   -265.75807    13679.341    97.694058 
   25630    284.39528   -3741.0891   -3725.2451   -61.027335    13680.872    97.733472 
   25640    278.53715   -3740.8125   -3725.2948    32.519528     13682.11    97.789799 
   25650    279.46631   -3740.8887   -3725.3194    20.487647    13683.431    97.849494 
   25660    276.67544   -3740.7336   -3725.3197   -19.046639    13684.983    97.884798 
   25670    282.54882   -3741.0393   -3725.2982   -171.23529    13686.708    97.885363 
   25680    297.65657   -3741.8436   -3725.2608   -287.30984    13688.363    97.863735 
   25690    307.57147    -3742.356   -3725.2209   -245.17171    13689.641    97.838047 
   25700    311.66654   -3742.5543    -3725.191   -134.14167    13690.371    97.821638 
   25710    311.50917   -3742.5303   -3725.1758    56.167281    13690.534    97.817887 
   25720    305.34269   -3742.1847   -3725.1737    307.65537    13690.137    97.820901 
   25730    297.17544   -3741.7335   -3725.1775    533.55191    13689.189    97.823131 
   25740    295.52668   -3741.6429   -3725.1787    675.47045    13687.763     97.81403 
   25750    301.20324   -3741.9572   -3725.1769    756.56796    13685.984    97.779621 
   25760     296.2792   -3741.6799   -3725.1739     786.1889    13684.022    97.721853 
   25770     286.3072   -3741.1164   -3725.1659    748.89432    13682.104    97.660667 
   25780    287.21238   -3741.1462   -3725.1452    652.59697    13680.508    97.617029 
   25790     295.5777   -3741.5779    -3725.111    777.44343    13679.524    97.601359 
   25800    302.48393   -3741.9223   -3725.0706    1140.6965    13679.449    97.612141 
   25810    301.96727   -3741.8541   -3725.0312    1335.1505    13680.442    97.632707 
   25820    298.62008   -3741.6293   -3724.9928    1287.3658    13682.356    97.631875 
   25830    300.76754   -3741.7083   -3724.9522    1116.7912    13684.991    97.587321 
   25840     308.2557    -3742.083   -3724.9097    900.83487     13688.24    97.509466 
   25850    316.25839   -3742.4921    -3724.873    651.39361    13692.023    97.439644 
   25860    311.03757   -3742.1765   -3724.8482    400.89343    13696.159    97.426114 
   25870    304.08729   -3741.7751   -3724.8341    114.01975    13700.333    97.493791 
   25880    300.79405   -3741.5801   -3724.8226    -119.3561    13704.226    97.630994 
   25890     300.1827   -3741.5342   -3724.8106   -152.28402    13707.663    97.798222 
   25900    296.70166    -3741.325   -3724.7955   -146.50798    13710.542    97.939721 
   25910    290.30128   -3740.9456   -3724.7726   -178.75831    13712.713    98.010567 
   25920    286.63369   -3740.7012   -3724.7325   -262.21959    13714.029    98.001114 
   25930    294.93138   -3741.0981   -3724.6672   -321.11848    13714.331    97.932656 
   25940    305.82669   -3741.6136   -3724.5757   -262.10851    13713.495    97.843103 
   25950     314.2725   -3741.9758   -3724.4673   -36.671588    13711.616     97.77102 
   25960     318.9158   -3742.1212    -3724.354    214.89476    13708.956    97.741095 
   25970    315.77879   -3741.8382   -3724.2458    394.53148    13705.764    97.754087 
   25980    315.28563   -3741.7108   -3724.1459     404.6375    13702.257    97.800465 
   25990     322.1364   -3742.0023   -3724.0557     305.0903    13698.473     97.86263 
   26000    325.21732   -3742.1027   -3723.9845    304.50442    13694.283    97.912027 
   26010    313.11334   -3741.3813   -3723.9374    524.51678    13689.617     97.92676 
   26020    301.54037   -3740.7037   -3723.9046    816.22482    13684.645    97.906858 
   26030    298.76103   -3740.5174   -3723.8731     1065.071    13679.751    97.864833 
   26040     293.7124   -3740.1992   -3723.8362    1252.5855    13675.331    97.805981 
   26050    299.57015   -3740.4825   -3723.7931    1167.2825    13671.571     97.74026 
   26060    304.60775   -3740.7164   -3723.7463    1085.2654    13668.256    97.689493 
   26070    304.62122   -3740.6713   -3723.7005    945.84639    13665.094    97.666354 
   26080    316.73562   -3741.3061   -3723.6604    450.49235    13661.909    97.669683 
   26090    325.34404   -3741.7617   -3723.6364    39.613798    13658.404    97.690592 
   26100    323.47995    -3741.663   -3723.6416   -31.749116    13654.287    97.712258 
   26110    315.85412   -3741.2718   -3723.6752    126.61285    13649.402    97.719904 
   26120    315.52903   -3741.3095    -3723.731    253.24206     13643.73    97.705003 
   26130    321.23653   -3741.7077   -3723.8113    324.88645    13637.349     97.66711 
   26140     315.8087   -3741.5137   -3723.9196    448.83439    13630.344    97.612487 
   26150    304.86742   -3741.0331   -3724.0486    471.34815    13622.774    97.550588 
   26160    297.37173   -3740.7528   -3724.1859    289.91621    13614.559    97.499067 
   26170    292.35319   -3740.6101   -3724.3228    164.28491    13605.474    97.473891 
   26180    291.69949   -3740.7034   -3724.4525    136.12395     13595.42    97.469834 
   26190     297.1513    -3741.129   -3724.5744    236.94306    13584.524    97.461791 
   26200    306.11173   -3741.7482   -3724.6944    548.35701    13573.068    97.426871 
   26210    314.21813   -3742.3285    -3724.823    827.71623    13561.309    97.362018 
   26220    312.54742   -3742.3767   -3724.9643    993.59194    13549.425    97.281109 
   26230    307.37782   -3742.2377   -3725.1133    933.45884    13537.605    97.191404 
   26240    300.99692   -3742.0306   -3725.2617    865.99523    13525.947    97.093393 
   26250    295.35515   -3741.8544   -3725.3998    907.72299    13514.491     96.99078 
   26260    293.47694   -3741.8729    -3725.523    1126.7312    13503.293    96.882443 
   26270    286.76253   -3741.6008   -3725.6249    1422.6427    13492.585    96.763808 
   26280    287.59005    -3741.726    -3725.704     1524.676    13482.672    96.640799 
   26290    297.95863   -3742.3689   -3725.7693    1369.0103    13473.494     96.53122 
   26300    297.89987   -3742.4254   -3725.8291     1364.094    13464.686    96.450873 
   26310    286.34638   -3741.8304   -3725.8778     1513.992    13456.167    96.408443 
   26320     286.6277   -3741.8785   -3725.9101    1426.5853    13448.134    96.398599 
   26330    287.74516   -3741.9571   -3725.9265    1425.9519    13440.688    96.394879 
   26340    280.92522   -3741.5765   -3725.9258    1772.1412    13434.018    96.371717 
   26350    283.78307   -3741.7164   -3725.9066    2083.1875    13428.588    96.332712 
   26360    291.95126   -3742.1359    -3725.871    2202.1116    13424.978    96.298357 
   26370    297.96652     -3742.43     -3725.83    2214.5544    13423.814    96.282224 
   26380    294.60808   -3742.2037   -3725.7908    2146.1676    13425.606    96.295186 
   26390    297.04222   -3742.3015    -3725.753    1940.5325    13430.441    96.348227 
   26400    309.54167   -3742.9596   -3725.7147     1655.794     13437.82     96.43316 
   26410    309.61246   -3742.9294   -3725.6806    1460.0914    13446.872    96.520874 
   26420    303.61482   -3742.5693   -3725.6546    1382.0514    13456.758    96.587298 
   26430    293.85565   -3742.0013   -3725.6302      1403.25        13467    96.625339 
   26440    291.86276   -3741.8607   -3725.6007    1424.4296    13477.472    96.638574 
   26450    298.11187   -3742.1708   -3725.5626    1230.6757    13488.262    96.636826 
   26460     298.9904   -3742.1748   -3725.5177    906.08485    13499.345    96.629549 
   26470    290.49544   -3741.6485   -3725.4646    567.79955    13510.422    96.627906 
   26480    290.71395   -3741.5935   -3725.3975     422.1867     13521.14    96.650668 
   26490    301.63283   -3742.1181   -3725.3138    382.45251    13531.412    96.709852 
   26500    297.38588   -3741.7845   -3725.2168    448.64449    13541.387     96.80457 
   26510    292.00518   -3741.3729    -3725.105    438.09382    13551.144    96.917673 
   26520    298.61213   -3741.6011   -3724.9651    272.46107    13560.555    97.016259 
   26530    301.48251   -3741.5887   -3724.7928     68.75616    13569.384     97.06699 
   26540    300.65584    -3741.341   -3724.5911   -108.23503    13577.482    97.065613 
   26550    296.24545   -3740.8649   -3724.3607   -302.09745    13584.645     97.04536 
   26560     295.1118   -3740.5458   -3724.1048   -359.61193    13590.599    97.049456 
   26570    302.28956   -3740.6729    -3723.832    -270.9013     13595.31     97.09725 
   26580    304.03947   -3740.5029   -3723.5645   -181.78029    13599.056    97.178024 
   26590    301.69529   -3740.1361   -3723.3283   -229.88591    13602.171    97.263508 
   26600     305.4032   -3740.1459   -3723.1315   -388.82696    13604.806    97.326566 
   26610    309.44419   -3740.2151   -3722.9756   -407.19349    13606.796    97.358034 
   26620    313.79529   -3740.3438   -3722.8619   -341.32885    13608.085    97.357181 
   26630    320.55231   -3740.6446   -3722.7863   -257.75786     13608.91    97.327715 
   26640    326.49684   -3740.9365    -3722.747   -216.59173    13609.572    97.294945 
   26650    329.00425   -3741.0733   -3722.7441   -88.365519    13610.321    97.293584 
   26660     321.3478   -3740.6752   -3722.7725    77.121936    13611.514    97.334309 
   26670    312.02117   -3740.2039   -3722.8208    303.75139    13613.378    97.394785 
   26680    305.05891   -3739.8716   -3722.8764    656.03711    13615.779    97.443384 
   26690    302.82077   -3739.8029   -3722.9324    852.70976    13618.574    97.468837 
   26700    305.12538   -3739.9877   -3722.9888    901.59908    13621.666    97.477708 
   26710    302.65043    -3739.908    -3723.047    879.15256    13624.962    97.475849 
   26720    299.67669   -3739.8005   -3723.1051    988.33463     13628.46    97.463946 
   26730    304.89733   -3740.1505   -3723.1643    1214.6033    13632.432    97.449421 
   26740    309.10877   -3740.4497   -3723.2289    1310.9584    13637.159    97.445812 
   26750    306.52302   -3740.3791   -3723.3024    1185.6698    13642.545    97.461733 
   26760    299.80742   -3740.0812   -3723.3786    797.66603    13648.245    97.501318 
   26770     302.8816   -3740.3281   -3723.4543    247.15936    13653.782     97.56468 
   26780    308.85689   -3740.7391   -3723.5323   -167.29155    13658.522    97.633581 
   26790     322.2757   -3741.5803    -3723.626   -341.84001    13662.052    97.678406 
   26800    324.41419   -3741.8224   -3723.7489    -383.2228    13664.215    97.686834 
   26810    314.92566   -3741.4411   -3723.8963    -362.5206    13664.981    97.668192 
   26820    319.31306    -3741.852   -3724.0628   -437.92734    13664.502    97.637824 
   26830    316.82166    -3741.897   -3724.2465   -305.53829    13662.973    97.611048 
   26840    308.52531    -3741.622   -3724.4337   -85.691214    13660.682    97.598387 
   26850    310.70199   -3741.9264   -3724.6168   -60.892524    13657.809    97.601303 
   26860    312.63798   -3742.2125   -3724.7951    27.949466    13654.206    97.612393 
   26870    314.62531   -3742.4945   -3724.9664    188.92332    13649.829    97.617424 
   26880    324.11167   -3743.1925   -3725.1359    335.41873    13644.806    97.604696 
   26890    323.55484    -3743.334   -3725.3084    368.23314    13639.326    97.577189 
   26900    312.57615   -3742.8885   -3725.4746    477.55702    13633.558    97.538299 
   26910    303.97212    -3742.558   -3725.6234    617.66367    13627.664    97.482426 
   26920    295.12369   -3742.1903   -3725.7486    759.43033    13621.752    97.418825 
   26930     289.1696   -3741.9563   -3725.8463    939.43895    13615.936    97.371047 
   26940    288.76584   -3742.0077   -3725.9203    1157.0939     13610.38    97.353718 
   26950    279.81611   -3741.5591   -3725.9702    1392.4516     13605.21    97.364755 
   26960    279.05799   -3741.5414   -3725.9948    1482.0061    13600.671    97.398209 
   26970    287.96629   -3742.0411   -3725.9982    1361.7551     13597.15    97.445955 
   26980    285.18169   -3741.8745   -3725.9867    1176.9271     13595.05      97.4983 
   26990    282.81697   -3741.7181   -3725.9621    1041.4484    13594.693    97.549601 
   27000    295.24399   -3742.3728   -3725.9244    984.11293    13596.171    97.600199 
Loop time of 2379.83 on 16 procs for 10000 steps with 432 atoms

Performance: 0.363 ns/day, 66.106 hours/ns, 4.202 timesteps/s
96.7% CPU use with 16 MPI tasks x 1 OpenMP threads

MPI task timing breakdown:
Section |  min time  |  avg time  |  max time  |%varavg| %total
---------------------------------------------------------------
Pair    | 849.66     | 1742.2     | 2358       |1173.9 | 73.21
Bond    | 0.00058484 | 0.001873   | 0.0041912  |   2.2 |  0.00
Neigh   | 0.045425   | 0.057229   | 0.066056   |   2.1 |  0.00
Comm    | 20.483     | 621.96     | 1528.9     |1958.8 | 26.13
Output  | 0.4684     | 0.47839    | 0.6241     |   5.4 |  0.02
Modify  | 0.70884    | 15.126     | 45.515     | 466.3 |  0.64
Other   |            | 0.03334    |            |       |  0.00

Nlocal:        27.0000 ave          33 max          20 min
Histogram: 1 0 0 4 4 0 5 0 0 2
Nghost:        302.438 ave         335 max         285 min
Histogram: 3 2 3 3 1 1 1 1 0 1
Neighs:         0.00000 ave           0 max           0 min
Histogram: 16 0 0 0 0 0 0 0 0 0
FullNghs:      856.500 ave        1142 max         554 min
Histogram: 1 0 0 7 1 2 1 2 0 2

Total # of neighbors = 13704
Ave neighs/atom = 31.722222
Ave special neighs/atom = 0.0000000
Neighbor list builds = 1000
Dangerous builds = 1000
System init for write_data ...
Total wall time: 1:46:34
