LAMMPS (29 Sep 2021 - Update 3)
OMP_NUM_THREADS environment is not set. Defaulting to 1 thread. (src/comm.cpp:98)
  using 1 OpenMP thread(s) per MPI task
Reading data file ...
  orthogonal box = (0.0000000 0.0000000 0.0000000) to (17.051981 17.051981 34.103962)
  2 by 1 by 4 MPI processor grid
  reading atoms ...
  432 atoms
Finding 1-2 1-3 1-4 neighbors ...
  special bond factors lj:    0        0        0       
  special bond factors coul:  0        0        0       
     0 = max # of 1-2 neighbors
     0 = max # of 1-3 neighbors
     0 = max # of 1-4 neighbors
     1 = max # of special neighbors
  special bonds CPU = 0.005 seconds
  read_data CPU = 0.021 seconds
Neighbor list info ...
  update every 1 steps, delay 10 steps, check yes
  max neighbors/atom: 2000, page size: 100000
  master list distance cutoff = 6.22
  ghost atom cutoff = 6.22
  binsize = 3.11, bins = 6 6 11
  1 neighbor lists, perpetual/occasional/extra = 1 0 0
  (1) pair quip, perpetual
      attributes: full, newton on
      pair build: full/bin
      stencil: full/bin/3d
      bin: standard
Setting up Verlet run ...
  Unit style    : metal
  Current step  : 0
  Time step     : 0.001
Per MPI rank memory allocation (min/avg/max) = 8.917 | 8.919 | 8.921 Mbytes
Step Temp PotEng TotEng Press Volume c_msd[4] 
       0          300   -3663.9903    -3647.277    8304.9165    9916.4108            0 
      10    347.17425   -3666.6541   -3647.3127    7330.9133    9922.9079 0.0046394481 
      20    474.25192   -3673.9139   -3647.4928    7328.6391    9941.6421  0.021016518 
      30    632.17262   -3683.3604   -3648.1414    7621.6174     9972.581   0.05481433 
      40    733.87189   -3690.5868   -3649.7019    8431.1936    10016.376   0.10824944 
      50    772.52525   -3694.9216   -3651.8834    9996.2504     10074.51   0.17418888 
      60    755.13957   -3696.2095   -3654.1399     11618.31    10149.515   0.24412164 
      70    681.99153   -3694.5276   -3656.5331    11577.601    10243.597   0.31303487 
      80    616.00423   -3693.2532   -3658.9349    9253.1243    10355.666   0.37854272 
      90    554.45349   -3691.9545   -3661.0653    6358.7652    10480.184   0.44169627 
     100     535.7822   -3692.6909   -3662.8419    3646.4995    10609.571   0.50134249 
     110    559.61625   -3695.6112   -3664.4343    1452.6075    10736.349   0.55895831 
     120    569.05548   -3697.6898   -3665.9871     68.68453    10854.586   0.61874554 
     130    554.91101   -3698.4189   -3667.5041   -509.94814    10960.884   0.67975321 
     140    542.22434   -3699.1765   -3668.9686      -899.68    11054.341   0.73886333 
     150    530.18193    -3699.926    -3670.389   -1149.7511    11135.271   0.79514651 
     160    511.58154   -3700.2708     -3671.77   -744.58815    11204.783   0.84870427 
     170    499.33851   -3700.9384   -3673.1197    48.069316    11265.229   0.89929272 
     180    513.04735   -3703.0706   -3674.4882    680.49528    11319.477   0.94723727 
     190    523.29667    -3705.091   -3675.9375    1102.1602    11369.871   0.99492064 
     200    511.96631   -3705.9383   -3677.4161     1320.441    11418.093    1.0449339 
     210    501.01937    -3706.779   -3678.8667    1191.5506    11465.178    1.0971631 
     220    496.48103   -3707.9359   -3680.2763    750.10631    11511.338    1.1483523 
     230    493.92532    -3709.187   -3681.6698    285.75751    11556.035    1.1962498 
     240    469.50082   -3709.1666   -3683.0102    282.75153    11598.708    1.2414347 
     250    455.38258   -3709.6471   -3684.2773    426.55861    11639.633    1.2843076 
     260    436.27877   -3709.7801   -3685.4745    376.88504    11679.312    1.3269314 
     270    420.15708   -3709.9912   -3686.5837     412.8268     11717.89    1.3690499 
     280    417.58451    -3710.899   -3687.6349    380.06982     11755.56    1.4091034 
     290    427.84044    -3712.512   -3688.6765    216.28709    11792.367    1.4475297 
     300    428.60654   -3713.6225   -3689.7443    134.44084    11828.101    1.4866822 
     310    407.76875   -3713.5011   -3690.7839    204.08674    11862.691    1.5283699 
     320     402.3479   -3714.1889   -3691.7736    84.432986    11896.304    1.5722429 
     330    410.36567   -3715.6105   -3692.7485   -278.22795    11928.725    1.6177331 
     340     414.8184   -3716.8448   -3693.7348   -669.88373     11959.22    1.6642914 
     350    399.32614   -3716.9514   -3694.7045   -967.05073    11986.981    1.7119175 
     360    383.48688   -3716.9806   -3695.6161   -1146.0355    12011.397    1.7590537 
     370    373.28636   -3717.2687   -3696.4725    -858.5463    12032.279    1.8038219 
     380    373.33143   -3718.0948   -3697.2961   -501.32984     12050.34    1.8457898 
     390    381.59288   -3719.3783   -3698.1193   -382.07079    12066.461     1.886681 
     400    379.76593   -3720.1051   -3698.9479     -378.032    12081.042    1.9290787 
     410    368.70058   -3720.2933   -3699.7525   -371.90032    12094.179    1.9730373 
     420    359.92384   -3720.5768   -3700.5251   -417.72865     12105.92    2.0150869 
     430    350.66053   -3720.7913   -3701.2556   -499.83498     12116.24    2.0502128 
     440    357.59963   -3721.8874   -3701.9651   -811.44748     12124.92    2.0761733 
     450    361.02375   -3722.7935   -3702.6805   -982.91149     12131.37     2.096085 
     460    349.95097   -3722.8841    -3703.388   -764.43351    12135.319    2.1144088 
     470     332.2609   -3722.5637   -3704.0531   -431.35116    12137.299    2.1337704 
     480    316.25345   -3722.2776   -3704.6588   -119.89903     12138.17    2.1556953 
     490    313.08378   -3722.6489   -3705.2066    84.054684    12138.713    2.1806448 
     500    324.46902   -3723.8108   -3705.7343   -65.499471    12139.361    2.2071544 
     510    327.91756   -3724.5277   -3706.2591   -235.24714    12139.833    2.2341018 
     520    327.44623   -3725.0231   -3706.7807   -381.15313    12139.717    2.2611067 
     530     320.2482   -3725.1346   -3707.2933    -388.5473     12138.72     2.287986 
     540    308.95845   -3724.9886   -3707.7762   -330.16511     12136.83    2.3129207 
     550    312.32893   -3725.6379   -3708.2377   -186.98321    12134.208    2.3337182 
     560    307.62368    -3725.824    -3708.686     204.2935     12131.28    2.3511584 
     570    299.97756   -3725.8175   -3709.1054    454.39015    12128.911    2.3663083 
     580    311.74078   -3726.8776   -3709.5101    552.20493    12127.695     2.380929 
     590    323.75236   -3727.9652   -3709.9286    637.38806    12127.855    2.3981497 
     600    314.61505   -3727.8815   -3710.3539     792.4865    12129.586    2.4179434 
     610    304.64302   -3727.7336   -3710.7616    787.46521     12133.16    2.4372037 
     620    309.11454   -3728.3817   -3711.1605     638.7118    12138.527    2.4538975 
     630    306.61156   -3728.6401   -3711.5585    492.18868    12145.318    2.4679551 
     640     297.8296   -3728.5345   -3711.9421    313.79951    12153.127    2.4796224 
     650    286.99566   -3728.2841   -3712.2952     17.47211    12161.456    2.4891645 
     660    284.19602   -3728.4438   -3712.6109   -241.97775    12169.609    2.4959581 
     670    291.35364   -3729.1348   -3712.9032   -267.09272    12177.009    2.5008937 
     680    288.52911   -3729.2549   -3713.1806   -144.40435    12183.574    2.5070758 
     690    279.77686   -3729.0206   -3713.4339    7.2014356    12189.627    2.5150755 
     700    282.31033   -3729.3887   -3713.6608   -4.1749431    12195.501    2.5226329 
     710    286.91045   -3729.8522   -3713.8681    33.834218    12201.221    2.5286076 
     720    287.07128   -3730.0496   -3714.0565     96.73916    12206.873    2.5331088 
     730    292.48417   -3730.5223   -3714.2277     61.54101    12212.586    2.5360942 
     740    298.28449   -3731.0059   -3714.3882   -106.34684    12218.254    2.5377504 
     750    296.28043   -3731.0488   -3714.5427   -248.20905    12223.493    2.5374566 
     760    290.29134   -3730.8619   -3714.6895   -151.53552    12228.028    2.5344615 
     770    283.68384   -3730.6285   -3714.8242    91.359306    12232.092    2.5295268 
     780    287.40634   -3730.9567    -3714.945    374.01144    12236.279    2.5243244 
     790    294.65072   -3731.4716   -3715.0563    519.60413    12241.238    2.5220152 
     800    290.90497   -3731.3673   -3715.1606    653.85506    12247.346    2.5258687 
     810     278.9215   -3730.7888   -3715.2498    695.69486    12254.877    2.5367439 
     820     275.2287   -3730.6491   -3715.3158     562.1875    12263.875    2.5517832 
     830    274.42451   -3730.6444   -3715.3559     360.9076    12273.996    2.5661903 
     840     273.9997   -3730.6343   -3715.3695    102.57733    12284.709    2.5768344 
     850    276.96471   -3730.7873   -3715.3573   -122.14319    12295.382     2.583976 
     860    275.93035   -3730.6922   -3715.3199   -469.26015     12305.41      2.58928 
     870     281.6628   -3730.9483   -3715.2565   -885.59221     12313.96    2.5932994 
     880    292.86174    -3731.487   -3715.1713   -1036.9577     12320.12    2.5967307 
     890     284.8217   -3730.9406   -3715.0728   -901.83815    12323.583    2.6004655 
     900    279.26255   -3730.5225   -3714.9644   -722.54431    12324.705     2.603091 
     910    288.05809   -3730.8875   -3714.8394   -662.47025    12323.955    2.6033488 
     920    294.85455   -3731.1267   -3714.7001   -493.01146    12321.592    2.6020322 
     930    296.76081   -3731.0869    -3714.554   -186.86509    12318.098      2.60069 
     940    294.07297    -3730.786   -3714.4028   -123.60303    12314.185    2.6005346 
     950    295.22418   -3730.6938   -3714.2465   -341.24352    12310.026    2.6014449 
     960    301.59375   -3730.8876   -3714.0855   -537.28859    12305.137    2.6032068 
     970    303.14039    -3730.814   -3713.9257   -397.44679    12299.124     2.607162 
     980    299.45407   -3730.4543   -3713.7714   -24.822718    12292.327    2.6140577 
     990    300.87551   -3730.3817   -3713.6196    397.07172    12285.657    2.6224802 
    1000    307.26676   -3730.5848   -3713.4667    729.02917    12280.137    2.6305667 
    1010    316.41651   -3730.9453   -3713.3174    932.25211    12276.552    2.6372486 
    1020    315.96292   -3730.7837    -3713.181    1321.4934    12275.452    2.6432499 
    1030    306.97365   -3730.1656   -3713.0637     1695.019    12277.672    2.6490668 
    1040    310.36838   -3730.2555   -3712.9645    1817.8584    12284.015    2.6551488 
    1050    314.98768    -3730.429   -3712.8807     1689.412    12294.695    2.6656354 
    1060    322.78838   -3730.8013   -3712.8184    1489.0414     12309.35    2.6841861 
    1070    328.07624   -3731.0611   -3712.7836    1306.5388    12327.419    2.7119165 
    1080    320.79103   -3730.6533   -3712.7816    1313.5237    12348.429    2.7481131 
    1090    317.19404   -3730.4808   -3712.8096    1341.0743    12372.299    2.7895312 
    1100    314.41832   -3730.3761   -3712.8595    1308.9269    12399.061    2.8314433 
    1110    316.01844   -3730.5325   -3712.9268     949.2112    12428.496    2.8704547 
    1120    315.23303   -3730.5668   -3713.0048    506.18843      12459.7    2.9072824 
    1130    317.20389   -3730.7635   -3713.0917   -10.115243    12491.471    2.9428732 
    1140    322.11061   -3731.1358   -3713.1907   -460.97922    12522.489    2.9763248 
    1150    324.60036    -3731.394   -3713.3101   -852.47893    12551.578    3.0076194 
    1160    314.78277    -3730.989   -3713.4521   -974.00272    12577.792     3.038137 
    1170    295.39117   -3730.0579   -3713.6014   -757.81686      12600.9    3.0671015 
    1180    297.66211    -3730.332   -3713.7489   -644.52629    12621.417    3.0920611 
    1190    308.82932   -3731.1066   -3713.9013   -678.11001    12639.681    3.1125021 
    1200    308.38288   -3731.2465   -3714.0662   -641.10328    12655.713    3.1298069 
    1210    298.61585   -3730.8726   -3714.2364   -497.39098    12669.667     3.146059 
    1220    296.73198   -3730.9339   -3714.4026   -489.58711    12681.905    3.1630524 
    1230    303.00436   -3731.4461   -3714.5654   -587.90116    12692.517    3.1820232 
    1240    305.71949   -3731.7631   -3714.7311   -831.14309    12701.249    3.2033486 
    1250    295.11006   -3731.3362   -3714.8953   -1158.6133    12707.513    3.2254553 
    1260    285.22861   -3730.9365   -3715.0461   -1422.0505    12710.551    3.2442989 
    1270    288.58419   -3731.2618   -3715.1845   -1598.1749    12709.743    3.2565914 
    1280    293.03034    -3731.642    -3715.317   -1624.9925    12704.736    3.2604064 
    1290    295.86836   -3731.9301    -3715.447   -1573.0687    12695.549    3.2552022 
    1300    301.55021   -3732.3783   -3715.5786   -1356.4382    12682.469     3.243925 
    1310    299.60762   -3732.4046   -3715.7131   -880.70641    12666.185    3.2312773 
    1320    290.24658   -3732.0097   -3715.8397   -269.10818    12648.036    3.2206777 
    1330    287.14421   -3731.9473   -3715.9502    156.85299    12629.616    3.2130745 
    1340    288.71523   -3732.1294   -3716.0448    498.74546    12612.078    3.2072582 
    1350    287.82658   -3732.1613   -3716.1262    720.44851    12596.275    3.2011879 
    1360    286.71084   -3732.1671   -3716.1941    773.14419    12582.723    3.1928858 
    1370    294.99373   -3732.6859   -3716.2515    766.42801    12571.525    3.1821486 
    1380    300.49378   -3733.0448    -3716.304    813.06409    12562.615    3.1710686 
    1390    293.47819   -3732.7036   -3716.3536    942.93907    12556.061    3.1623488 
    1400    287.02046   -3732.3857   -3716.3954    1017.9781    12552.136    3.1575108 
    1410    290.94462   -3732.6344   -3716.4255    826.54115    12550.896    3.1562688 
    1420    292.77817   -3732.7556   -3716.4446    757.90007    12551.883    3.1584299 
    1430    284.93638   -3732.3276   -3716.4535    875.29508    12554.878    3.1641552 
    1440    286.11373   -3732.3886   -3716.4489    797.57649    12560.034    3.1733186 
    1450    297.53259   -3733.0039    -3716.428    529.00245    12567.103    3.1861126 
    1460    300.76784    -3733.155   -3716.3989    351.88055    12575.409    3.2009028 
    1470    301.34094   -3733.1583   -3716.3703    191.17802    12584.431    3.2142575 
    1480    306.87633   -3733.4413   -3716.3449    79.077981    12593.763    3.2238513 
    1490    308.20392   -3733.4972   -3716.3268    25.205946    12603.085    3.2304235 
    1500    296.82658   -3732.8524   -3716.3158    257.94225    12612.335    3.2363902 
    1510    297.82222   -3732.8986   -3716.3066    475.62198     12622.05    3.2429918 
    1520    305.08093   -3733.2936   -3716.2972    606.46451    12632.788    3.2522101 
    1530    305.58604   -3733.3181   -3716.2936    564.64789    12644.848    3.2649983 
    1540    304.20602   -3733.2446   -3716.2969    269.80632    12658.076    3.2792007 
    1550    303.23182   -3733.1989   -3716.3055   -49.608396    12671.722    3.2915447 
    1560    296.82038   -3732.8516   -3716.3154   -122.56809    12684.999      3.30022 
    1570    300.54684   -3733.0681   -3716.3243   -130.55332    12697.676    3.3039037 
    1580     305.9812    -3733.381   -3716.3344    8.6575063     12709.77     3.303279 
    1590    303.83542   -3733.2779   -3716.3509    229.69298    12721.646    3.3018593 
    1600    301.57057   -3733.1709   -3716.3701    296.35065    12733.859    3.3017676 
    1610    306.27154    -3733.453   -3716.3903    110.90843    12746.543    3.3035287 
    1620    311.41582   -3733.7658   -3716.4165   -96.045542     12759.25    3.3090097 
    1630    314.66229   -3733.9872    -3716.457   -188.06598    12771.451    3.3193584 
    1640    311.98948   -3733.8987   -3716.5174   -119.14186    12782.917    3.3339042 
    1650    303.67972   -3733.5126   -3716.5942    34.625927    12793.845    3.3505532 
    1660     301.3354   -3733.4669   -3716.6791    98.484692     12804.62    3.3666414 
    1670    307.25898   -3733.8862   -3716.7685     61.60416    12815.399    3.3798665 
    1680    310.16113   -3734.1462   -3716.8668    130.63131    12826.141     3.388644 
    1690    298.18548   -3733.5833    -3716.971    286.62621    12837.029    3.3933953 
    1700    294.00595   -3733.4515   -3717.0721    254.61704     12848.42    3.3950232 
    1710    306.19583   -3734.2326    -3717.174   -13.111483    12860.187    3.3946624 
    1720    309.30979    -3734.518    -3717.286   -162.56001    12871.669    3.3938104 
    1730    301.86031    -3734.223    -3717.406   -144.21119    12882.482    3.3933568 
    1740    300.54009   -3734.2696   -3717.5262   -225.71466    12892.608    3.3948672 
    1750    301.49812   -3734.4399   -3717.6431   -300.06621    12901.871    3.3996748 
    1760    298.79263    -3734.402    -3717.756   -351.54321    12910.082    3.4066185 
    1770    293.89126   -3734.2375   -3717.8645   -496.10812    12917.092    3.4136258 
    1780    288.20784    -3734.019   -3717.9627   -686.92109    12922.547    3.4191514 
    1790    289.34824   -3734.1645   -3718.0446   -769.61415    12925.994     3.421888 
    1800    291.32457   -3734.3381   -3718.1081   -588.41527    12927.279    3.4218074 
    1810    283.52941   -3733.9463   -3718.1506    -187.8793    12926.963    3.4206752 
    1820    278.04987   -3733.6602   -3718.1698    40.522163    12926.108    3.4206575 
    1830    281.55076   -3733.8544   -3718.1689   -108.38522    12925.313    3.4224578 
    1840     284.4989   -3734.0019   -3718.1521   -520.21098    12924.182    3.4245909 
    1850    285.44639   -3734.0265    -3718.124    -941.4838    12921.651    3.4246993 
    1860    284.82018   -3733.9545   -3718.0868   -1195.2686    12916.654    3.4214261 
    1870    289.44729   -3734.1663   -3718.0408   -1258.4689    12908.584    3.4154784 
    1880    297.62466   -3734.5685   -3717.9875   -1157.4227    12897.353    3.4087754 
    1890    298.51421   -3734.5614   -3717.9308   -845.48019    12883.342    3.4026071 
    1900    292.62249   -3734.1725   -3717.8702   -482.96365     12867.46     3.396748 
    1910    292.56156   -3734.1001   -3717.8012   -122.32023     12850.75    3.3891336 
    1920    288.74931   -3733.8054   -3717.7189    361.10383    12834.237    3.3790448 
    1930    284.17404   -3733.4524   -3717.6208    915.98548    12819.214    3.3688105 
    1940    291.68966   -3733.7558   -3717.5055    1414.9094    12807.112    3.3630572 
    1950    297.12547   -3733.9323   -3717.3791    1682.5157    12799.139    3.3665136 
    1960    299.26936   -3733.9257   -3717.2531    1642.0702    12795.866    3.3797387 
    1970    302.83047   -3734.0009   -3717.1298    1399.4279    12797.073    3.3988152 
    1980    302.44718   -3733.8584   -3717.0088     1114.348    12802.027    3.4179199 
    1990    302.10293   -3733.7213   -3716.8908    921.78716    12809.893    3.4312869 
    2000    304.31238   -3733.7282   -3716.7747    649.67627    12820.047    3.4367564 
    2010    313.60127   -3734.1327   -3716.6616    256.00718    12831.697    3.4368174 
    2020    322.30222   -3734.5152   -3716.5594   -4.7813538    12843.783    3.4362905 
    2030    324.62477   -3734.5669   -3716.4817   -117.90544    12855.592    3.4400989 
    2040    322.02808   -3734.3735   -3716.4329   -234.09192     12866.79    3.4505609 
    2050     322.0432   -3734.3528   -3716.4114   -517.46175     12877.03    3.4665944 
    2060    314.35578   -3733.9265   -3716.4134   -739.99005    12885.627    3.4849161 
    2070    298.49341   -3733.0583   -3716.4289   -757.23986     12892.04     3.501039 
    2080    297.87193   -3733.0406   -3716.4458   -762.50143    12896.228    3.5119376 
    2090    304.09407    -3733.404   -3716.4626   -718.83971    12898.242    3.5181335 
    2100    301.73027   -3733.2925   -3716.4827   -484.18564    12898.285    3.5218592 
    2110    301.53106   -3733.3047   -3716.5061    -281.3043    12896.988    3.5247373 
    2120    303.15881   -3733.4208   -3716.5315   -201.37378    12894.911     3.526686 
    2130    306.18189   -3733.6184   -3716.5607     -125.622    12892.338    3.5255329 
    2140    314.60508   -3734.1272   -3716.6002   -171.60126    12889.454      3.52006 
    2150    314.26602   -3734.1643   -3716.6562    -152.2943    12886.194     3.512011 
    2160    302.85788   -3733.5977   -3716.7251    67.180649    12882.662    3.5036404 
    2170    296.48283   -3733.3124    -3716.795    141.06715     12879.35    3.4958547 
    2180    301.90295   -3733.6826   -3716.8633    148.42633    12876.496    3.4885127 
    2190    307.14163   -3734.0458   -3716.9346    43.291599    12874.086    3.4814245 
    2200    308.03487   -3734.1758   -3717.0149   -21.316309    12871.859    3.4743925 
    2210    306.10736   -3734.1568   -3717.1032   -32.478268    12869.641    3.4675039 
    2220    310.76583   -3734.5141    -3717.201   -86.505467    12867.372     3.460325 
    2230    313.65201   -3734.7864   -3717.3125   -94.297802    12864.926    3.4527157 
    2240    314.33107   -3734.9524   -3717.4407    -31.24426    12862.283    3.4460725 
    2250    313.07803   -3735.0268   -3717.5849    88.982997    12859.626    3.4421104 
    2260    309.09652   -3734.9606   -3717.7404    108.77948    12857.253    3.4409483 
    2270    307.45375   -3735.0328   -3717.9042 -0.036725339     12855.19    3.4413926 
    2280    302.61548   -3734.9312   -3718.0722     -37.8881    12853.195    3.4425467 
    2290    299.30986   -3734.9136   -3718.2387    32.700928    12851.167    3.4432959 
    2300    300.23656   -3735.1289   -3718.4024    165.01926    12849.271    3.4438079 
    2310     297.7511    -3735.151   -3718.5629    335.77481    12847.876    3.4465652 
    2320    294.64692   -3735.1332   -3718.7181    375.06921      12847.4    3.4539649 
    2330    292.63644    -3735.169   -3718.8659    388.56254    12847.963    3.4660524 
    2340    290.93401   -3735.2135   -3719.0053     478.2398    12849.614    3.4802833 
    2350    285.52445    -3735.039   -3719.1321    502.76896     12852.54    3.4933362 
    2360    279.40565   -3734.8069   -3719.2409    327.07908    12856.756    3.5033622 
    2370    274.22688   -3734.6036   -3719.3261   -20.693693    12861.778     3.511212 
    2380    270.92833    -3734.477   -3719.3833    -382.2284    12866.684    3.5192962 
    2390     269.7531   -3734.4371   -3719.4089   -693.14682    12870.485    3.5294086 
    2400     277.8439   -3734.8836   -3719.4046   -821.02171    12872.375    3.5413587 
    2410    291.61915   -3735.6243   -3719.3779   -776.97659    12872.023    3.5531905 
    2420    290.77248   -3735.5375   -3719.3382   -606.76522    12869.567     3.562136 
    2430    278.57091   -3734.8068   -3719.2873   -335.93928    12865.509    3.5652222 
    2440    278.33246   -3734.7243   -3719.2181   -160.89443    12860.564    3.5623229 
    2450    289.62534   -3735.2624    -3719.127   -94.200014    12855.222    3.5574464 
    2460    292.48745   -3735.3151   -3719.0203    51.135419    12849.709    3.5552028 
    2470     288.2768   -3734.9647   -3718.9045     302.9502    12844.438    3.5562623 
    2480    290.81636   -3734.9797    -3718.778    498.98638    12840.058    3.5584279 
    2490      295.531   -3735.1046   -3718.6402    527.31601    12837.066    3.5601252 
    2500    295.04793   -3734.9344    -3718.497    456.37305    12835.536    3.5608785 
    2510    299.37521   -3735.0306   -3718.3521    408.31603    12835.299    3.5609529 
    2520    305.31897   -3735.2164   -3718.2068    404.10087    12836.203    3.5607557 
    2530    308.72632   -3735.2665    -3718.067    319.19533    12838.178    3.5607184 
    2540     314.9361   -3735.4829   -3717.9375    263.74669    12841.035    3.5614336 
    2550    317.67053   -3735.5216   -3717.8238    179.21974    12844.583    3.5649655 
    2560    315.40605   -3735.3022   -3717.7305     76.10658    12848.592    3.5734348 
    2570    313.61838    -3735.128    -3717.656   -14.338781    12852.775     3.586842 
    2580      312.906   -3735.0294    -3717.597    51.034759    12856.926    3.6039883 
    2590    302.38244   -3734.3956   -3717.5495    172.14067      12861.2    3.6231526 
    2600    295.95358   -3733.9925   -3717.5046    223.88193     12865.91    3.6417772 
    2610    304.82258   -3734.4396   -3717.4576    124.69945    12871.152    3.6581686 
    2620    306.79971   -3734.5042   -3717.4121    23.763785    12876.699    3.6718321 
    2630    305.20036   -3734.3762   -3717.3732   -182.28386    12882.238    3.6816288 
    2640    299.63746    -3734.031   -3717.3379   -453.02051    12887.216    3.6872143 
    2650    299.49493   -3733.9881   -3717.3029   -634.58622    12890.935    3.6901521 
    2660    311.16678   -3734.6046   -3717.2692    -761.4688    12892.879    3.6920935 
    2670     324.0796   -3735.3039    -3717.249   -871.55291    12892.697    3.6926098 
    2680    324.95568   -3735.3625   -3717.2588   -730.44326    12890.171    3.6904971 
    2690    315.60255   -3734.8817   -3717.2992   -336.56474    12885.718    3.6861892 
    2700    315.12011    -3734.917   -3717.3613   -216.11599    12880.298    3.6818579 
    2710    313.49978   -3734.9052   -3717.4397   -248.30581    12874.303    3.6791877 
    2720    304.94794   -3734.5169   -3717.5279   -186.63988    12867.701    3.6778541 
    2730    301.52914   -3734.4186   -3717.6201   -160.88922    12860.623    3.6778782 
    2740    295.46701   -3734.1735   -3717.7127   -125.65642    12853.153    3.6796453 
    2750     286.4406   -3733.7549   -3717.7969    73.647209    12845.441    3.6812195 
    2760    289.37001   -3733.9895   -3717.8684    295.00169    12838.002    3.6794349 
    2770    299.77203   -3734.6307     -3717.93    466.30207    12831.415    3.6745447 
    2780      311.496   -3735.3471   -3717.9933    610.33614    12826.153    3.6701251 
    2790    316.33462   -3735.6933   -3718.0699    596.47578    12822.567    3.6686659 
    2800    318.07118   -3735.8878   -3718.1677    421.67675    12820.604    3.6700111 
    2810    311.09846   -3735.6175   -3718.2859    247.70111    12819.802    3.6744737 
    2820    297.83233   -3735.0037   -3718.4111    154.16779    12819.705    3.6815853 
    2830    295.92841   -3735.0188   -3718.5323    44.135157    12820.037    3.6886487 
    2840    298.66775   -3735.2875   -3718.6484   -32.189483    12820.501    3.6928546 
    2850    298.12235   -3735.3712   -3718.7625    134.82271    12820.934    3.6918916 
    2860    294.10307   -3735.2575   -3718.8727    432.48162    12821.761     3.685315 
    2870    292.37133   -3735.2645   -3718.9762    622.30476    12823.755    3.6752017 
    2880    296.36492   -3735.5832   -3719.0724     573.3146    12827.397    3.6650955 
    2890    305.17826   -3736.1692   -3719.1673    366.31473    12832.563    3.6586001 
    2900     305.2858   -3736.2755   -3719.2677    206.17529    12838.733    3.6581254 
    2910    297.62033   -3735.9515   -3719.3707    69.143336    12845.472    3.6644582 
    2920    296.60441   -3735.9952    -3719.471   -292.39165    12852.329    3.6769435 
    2930    294.51002   -3735.9739   -3719.5664   -636.40072    12858.383    3.6935759 
    2940     288.9161   -3735.7506   -3719.6547   -749.34765    12862.736    3.7109585 
    2950     285.4957   -3735.6374   -3719.7321   -613.17825    12865.086    3.7251038 
    2960    280.94545   -3735.4453   -3719.7936   -435.82875    12865.748    3.7320032 
    2970    279.63485   -3735.4138    -3719.835   -364.23808    12865.188    3.7289476 
    2980    284.11288   -3735.6849   -3719.8566   -453.91203    12863.573    3.7179592 
    2990    293.26813   -3736.2018   -3719.8635   -444.92621    12860.735    3.7038742 
    3000    301.40854   -3736.6559   -3719.8641   -370.61696    12856.683    3.6911823 
    3010    294.42761   -3736.2651   -3719.8622   -251.87862    12851.619    3.6827025 
    3020    287.99964   -3735.8984   -3719.8536   -106.54637    12845.877    3.6784511 
    3030      296.201   -3736.3358   -3719.8341   -50.954139    12839.823    3.6777506 
    3040    305.57912   -3736.8345   -3719.8103    77.862135    12833.657     3.680572 
    3050    306.07754   -3736.8442   -3719.7923    301.93809    12827.732    3.6854375 
    3060    297.42158   -3736.3477    -3719.778    505.72174    12822.645    3.6887408 
    3070    294.96316   -3736.1923   -3719.7596    534.45586    12818.921    3.6880086 
    3080    302.23943   -3736.5736   -3719.7355    495.52285    12816.642    3.6840784 
    3090    300.90057   -3736.4737   -3719.7102    676.88849    12815.797    3.6792795 
    3100    295.15479   -3736.1295   -3719.6861    815.63034    12816.807    3.6761673 
    3110    290.81455   -3735.8589   -3719.6573    783.46192    12820.012     3.677025 
    3120    285.67311   -3735.5329   -3719.6177    672.11437    12825.361     3.683037 
    3130    283.01501   -3735.3305   -3719.5634     565.7111    12832.576    3.6939946 
    3140     278.8465   -3735.0256   -3719.4907    415.99662    12841.343    3.7099587 
    3150    279.24934   -3734.9552   -3719.3979    298.94681     12851.27    3.7314186 
    3160    278.82843   -3734.8171   -3719.2833    327.39266    12862.065    3.7571862 
    3170     281.4708   -3734.8302   -3719.1492    473.49736    12873.809    3.7829351 
    3180     292.2164   -3735.2758   -3718.9961    546.11271    12886.863    3.8055541 
    3190    306.69989   -3735.9176    -3718.831    452.26003    12901.397    3.8261779 
    3200    317.34475     -3736.35   -3718.6703    379.89604    12917.212    3.8477185 
    3210     316.3007   -3736.1496   -3718.5281    208.04298    12934.072    3.8719433 
    3220    313.37232   -3735.8652   -3718.4068   -10.207131    12951.517    3.8975333 
    3230    311.27953   -3735.6445   -3718.3028   -128.09769    12968.972    3.9224051 
    3240    308.47104   -3735.3979   -3718.2127   -177.42687     12986.09     3.945255 
    3250    309.77837   -3735.3924   -3718.1343   -274.73914    13002.704    3.9648777 
    3260    310.36638   -3735.3554   -3718.0646   -466.08775     13018.55    3.9814272 
    3270    314.63069   -3735.5331   -3718.0047   -698.42999    13033.078    3.9951534 
    3280    319.76359   -3735.7753   -3717.9609   -876.68902    13045.645    4.0063983 
    3290    311.19876   -3735.2741   -3717.9369   -979.00206    13055.761    4.0164765 
    3300    306.18168   -3734.9865   -3717.9288   -1101.0495    13063.101    4.0253808 
    3310     302.8097   -3734.7996   -3717.9297   -1107.2776    13067.341    4.0319734 
    3320    295.15456   -3734.3797   -3717.9363   -887.70688    13068.475     4.035168 
    3330    286.81291   -3733.9178   -3717.9392   -646.09472    13067.093    4.0346592 
    3340    296.34258   -3734.4427   -3717.9332   -820.73831    13063.766    4.0304778 
    3350    312.08709   -3735.3128   -3717.9261   -1085.5426    13058.076    4.0246704 
    3360    312.31152   -3735.3309   -3717.9317   -1019.5298    13049.376    4.0214206 
    3370    305.88918   -3734.9901   -3717.9486   -743.14734    13037.822    4.0227296 
    3380    309.86686   -3735.2335   -3717.9705   -456.18995    13024.161    4.0268547 
    3390    315.74751   -3735.5903   -3717.9997   -227.10166    13009.193    4.0307565 
    3400    315.15043   -3735.5994    -3718.042   -48.348663    12993.576    4.0312791 
    3410    313.61687   -3735.5724   -3718.1005    71.134672    12977.828     4.025494 
    3420    317.51548   -3735.8652    -3718.176    176.40873    12962.298     4.012418 
    3430    330.50093   -3736.6917   -3718.2792    195.28239    12947.249    3.9942369 
    3440      335.784     -3737.13   -3718.4231    425.40022    12932.829    3.9749242 
    3450    332.32508   -3737.1227   -3718.6085    777.36777    12919.641    3.9582937 
    3460    328.19499   -3737.1111    -3718.827    1044.7632    12908.611    3.9483094 
    3470    322.13152   -3737.0154   -3719.0691    1177.0105    12900.471    3.9466973 
    3480    308.62492   -3736.5103   -3719.3164    1123.9934    12895.572    3.9492336 
    3490    298.29038   -3736.1686   -3719.5506    888.11701    12893.758    3.9482673 
    3500    294.70685   -3736.1843   -3719.7658    659.04294    12894.422    3.9396655 
    3510     291.3054   -3736.1884   -3719.9595    488.27829    12896.939    3.9256856 
    3520     287.8607   -3736.1659   -3720.1288    392.25082    12900.842    3.9106709 
    3530    283.95419   -3736.0898   -3720.2704     417.6286    12905.882    3.8971149 
    3540    283.58845   -3736.1854   -3720.3864    456.44502    12912.109    3.8872232 
    3550    282.81207   -3736.2364   -3720.4806    383.98854    12919.601    3.8839155 
    3560    278.27838   -3736.0545   -3720.5513    198.41182    12928.164    3.8873452 
    3570    280.50915    -3736.227   -3720.5995   -24.844112    12937.291     3.893479 
    3580     282.0818   -3736.3435   -3720.6284   -99.910174     12946.41    3.8981511 
    3590    282.77415   -3736.3947    -3720.641   -131.55006    12955.275    3.8996901 
    3600    280.87786   -3736.2842   -3720.6362   -175.45869    12963.782    3.8982644 
    3610    276.40608   -3736.0093   -3720.6104   -309.15282    12971.796    3.8947701 
    3620     275.4572   -3735.9054   -3720.5593   -430.14519    12978.975    3.8909623 
    3630    275.82909    -3735.848   -3720.4813   -405.49114    12985.005    3.8888514 
    3640    279.70394   -3735.9602   -3720.3776   -308.26069    12989.915     3.888511 
    3650    286.27118   -3736.2006   -3720.2521   -73.115065    12994.003    3.8891249 
    3660    291.97294   -3736.3774   -3720.1112    226.37219    12997.917    3.8911705 
    3670    295.70733   -3736.4369   -3719.9627    498.11685    13002.476     3.895563 
    3680    295.20333   -3736.2585   -3719.8124    699.54483    13008.441    3.9034714 
    3690    299.56455   -3736.3531    -3719.664    759.08997    13016.376    3.9155425 
    3700    299.80787   -3736.2222   -3719.5196    720.67308    13026.465    3.9308358 
    3710    291.87664   -3735.6424   -3719.3816    655.13884    13038.635    3.9470364 
    3720    286.28209   -3735.1923   -3719.2432    481.06326      13052.7    3.9622493 
    3730    287.68477   -3735.1218   -3719.0946       232.32    13068.184    3.9762414 
    3740    290.40227   -3735.1125   -3718.9338   -29.580147    13084.397    3.9896537 
    3750    294.41065   -3735.1675   -3718.7656   -305.53362    13100.582    4.0022774 
    3760    295.12286    -3735.037   -3718.5954     -487.273    13115.986    4.0137204 
    3770    297.62341   -3735.0082   -3718.4273   -760.13098    13130.023    4.0231921 
    3780    306.85352   -3735.3574   -3718.2623   -1068.6784    13141.922    4.0297669 
    3790    313.31306   -3735.5643   -3718.1092   -1286.1868    13150.811    4.0328705 
    3800    311.40912   -3735.3278   -3717.9788   -1418.8199    13156.024    4.0313111 
    3810     308.4716   -3735.0568   -3717.8715   -1416.0184    13157.179    4.0243006 
    3820    311.32458   -3735.1267   -3717.7825   -1400.6729    13154.229    4.0130374 
    3830     317.7809   -3735.4153   -3717.7113    -1444.164    13147.182    3.9995899 
    3840    328.61774   -3735.9746    -3717.667   -1534.0139    13135.919    3.9852538 
    3850    328.11931   -3735.9403   -3717.6604   -1442.6468    13120.235    3.9716068 
    3860    314.02788   -3735.1807   -3717.6858   -992.99015    13100.448    3.9599846 
    3870    303.72712    -3734.643    -3717.722   -529.91888    13077.749    3.9507824 
    3880    296.04548   -3734.2465   -3717.7535   -133.59955    13053.458    3.9428253 
    3890    294.73082   -3734.1956   -3717.7758      104.306    13028.697    3.9328507 
    3900    298.35581   -3734.4131   -3717.7913    200.98761    13004.164    3.9205643 
    3910    303.12674   -3734.6914   -3717.8039    328.92246    12980.187    3.9091007 
    3920    309.23489   -3735.0467   -3717.8189    426.83177    12957.096    3.8999979 
    3930    319.21972   -3735.6306   -3717.8465    564.53822    12935.197     3.891441 
    3940    324.11759   -3735.9549    -3717.898    654.66766    12914.847    3.8803412 
    3950    324.08486   -3736.0363   -3717.9811    803.60686    12896.322    3.8637417 
    3960    324.06163   -3736.1501   -3718.0963    992.78892    12880.028    3.8419618 
    3970     328.0405   -3736.5219   -3718.2464    980.63383     12866.42    3.8201021 
    3980    326.67601   -3736.6329   -3718.4334    831.81492    12855.481     3.804353 
    3990    312.93221   -3736.0737   -3718.6399    759.90357    12846.856    3.7970701 
    4000    302.68258   -3735.7038    -3718.841    718.13263    12840.324    3.7957783 
    4010    304.30166   -3735.9818   -3719.0288    719.23029    12835.785    3.7973151 
    4020    308.64514   -3736.4026   -3719.2077    685.54077    12833.209    3.8008984 
    4030    302.27631   -3736.2172   -3719.3771    833.97626     12832.57    3.8074379 
    4040    290.16536   -3735.6925   -3719.5271    1075.5027    12834.266    3.8170874 
    4050    286.86684    -3735.634   -3719.6523    1139.8511    12838.909    3.8288134 
    4060    292.69199   -3736.0645   -3719.7583    1103.3978    12846.714    3.8423035 
    4070    297.91129   -3736.4507   -3719.8538    1102.6379    12857.621    3.8563133 
    4080    302.71793   -3736.8122   -3719.9474    1139.8572    12871.661    3.8674012 
    4090    305.84661    -3737.086    -3720.047     1184.437    12888.962    3.8750917 
    4100    304.08756   -3737.0944   -3720.1533    1120.1253    12909.642     3.882737 
    4110    301.07287   -3737.0317   -3720.2586    871.09502    12933.536    3.8923843 
    4120    299.30581   -3737.0272   -3720.3525    481.50328    12959.979    3.9045486 
    4130    299.89401   -3737.1406   -3720.4331    32.091939    12987.893     3.920413 
    4140    291.90567   -3736.7631   -3720.5007    -347.0646    13016.014    3.9405039 
    4150    277.00786   -3735.9818   -3720.5494   -583.88611    13043.269    3.9627249 
    4160    274.55746   -3735.8653   -3720.5694   -892.59489     13068.89    3.9832275 
    4170    285.50315   -3736.4658   -3720.5601   -1204.6727    13091.979    4.0000394 
    4180    291.61617   -3736.7766   -3720.5303   -1279.4521     13111.68    4.0138676 
    4190    289.55819   -3736.6199   -3720.4883   -1167.4696    13127.748    4.0266999 
    4200    286.44168   -3736.3941   -3720.4361   -1039.3611    13140.451    4.0405397 
    4210    289.61848   -3736.5098   -3720.3749   -995.75398    13150.122    4.0566471 
    4220    295.19569    -3736.752   -3720.3063   -955.76967    13156.904    4.0754434 
    4230    299.36853   -3736.9114   -3720.2332   -876.42246     13160.91    4.0958016 
    4240    304.24817   -3737.1085   -3720.1585   -669.22628    13162.421    4.1164031 
    4250    304.64353   -3737.0572   -3720.0851    -348.4534    13162.033    4.1368112 
    4260    300.04835   -3736.7294   -3720.0134    44.095735    13160.675    4.1564181 
    4270    304.33272   -3736.8938   -3719.9391    128.46977    13159.369     4.174351 
    4280    313.73043    -3737.342   -3719.8637   -89.004352    13158.366    4.1888536 
    4290    309.04513   -3737.0124   -3719.7951   -414.50436     13157.09     4.196536 
    4300    302.84746   -3736.6064   -3719.7344   -807.30298    13154.609    4.1935501 
    4310    304.60484   -3736.6463   -3719.6764   -1239.6699    13149.788    4.1797642 
    4320    302.77006   -3736.4893   -3719.6217   -1609.1005    13141.399    4.1600896 
    4330    296.91317   -3736.1122   -3719.5708   -1619.7824    13128.462    4.1399832 
    4340    295.14024   -3735.9572   -3719.5146   -1231.5493    13110.957    4.1218776 
    4350     295.8228   -3735.9221   -3719.4415   -644.92193    13089.964    4.1063308 
    4360    295.92383   -3735.8305   -3719.3443   -65.481348    13067.143    4.0927703 
    4370    296.57864   -3735.7446   -3719.2218    391.06902    13044.139    4.0797571 
    4380    296.92165   -3735.6181   -3719.0763    586.87563    13022.222    4.0663628 
    4390    304.90365   -3735.8993   -3718.9128    499.63949    13001.945     4.052047 
    4400    308.67207   -3735.9339   -3718.7375    428.60973    12983.121    4.0363775 
    4410     309.5697    -3735.807   -3718.5605     456.6746     12965.56    4.0189473 
    4420    319.22209   -3736.1724   -3718.3881    516.34643    12949.327    4.0003089 
    4430    328.30424   -3736.5214   -3718.2312    644.98706    12934.578    3.9825145 
    4440    325.02999   -3736.2122   -3718.1045    895.72477    12921.691    3.9676545 
    4450     320.8149   -3735.8824   -3718.0094     999.3744     12911.29    3.9578015 
    4460    322.72823   -3735.9205    -3717.941     919.7317    12903.651    3.9548779 
    4470    322.06703   -3735.8396   -3717.8969    956.05651    12898.616    3.9579832 
    4480    323.68957   -3735.9119   -3717.8788    1077.0605    12896.257    3.9648471 
    4490    323.65938   -3735.9203   -3717.8889     1105.405     12896.88    3.9735177 
    4500    322.25263   -3735.8843   -3717.9313    910.70334    12900.521    3.9821253 
    4510    312.19969   -3735.3957   -3718.0027    675.54455    12906.691    3.9908698 
    4520    303.01383    -3734.974   -3718.0928    440.45661    12914.748    4.0007345 
    4530    305.20561   -3735.1996   -3718.1963    190.41496    12924.044    4.0122052 
    4540    301.43472   -3735.1075   -3718.3142    203.66074     12933.97    4.0245946 
    4550    294.49755   -3734.8482   -3718.4414    391.40925    12944.518    4.0365569 
    4560    298.39847   -3735.2001    -3718.576     584.5573    12956.189    4.0485937 
    4570    306.83215   -3735.8189    -3718.725    683.13392    12969.527    4.0631866 
    4580    319.12225   -3736.6821   -3718.9034    472.14388    12984.737    4.0817479 
    4590    322.25225   -3737.0737   -3719.1207    57.063247    13001.263    4.1044036 
    4600    317.09148   -3737.0353   -3719.3698   -410.11495    13017.971     4.130908 
    4610    309.46063   -3736.8731   -3719.6327   -643.13348    13033.612    4.1594907 
    4620     299.1793   -3736.5494   -3719.8818   -577.48884    13047.531    4.1866071 
    4630    294.68474   -3736.5103   -3720.0931   -395.53658    13059.852    4.2101473 
    4640    291.48654   -3736.4972   -3720.2582   -123.26059    13071.095    4.2311439 
    4650    283.91347   -3736.1918   -3720.3746    179.48103    13082.034     4.251606 
    4660    285.53393   -3736.3569   -3720.4494    234.82689    13093.452    4.2732067 
    4670    293.94832   -3736.8736   -3720.4974    91.148019    13105.525    4.2958513 
    4680    296.15026     -3737.03   -3720.5311   -49.975159    13117.892    4.3171504 
    4690    288.98916   -3736.6541   -3720.5542   -159.73202    13130.153    4.3367185 
    4700    286.40285   -3736.5185   -3720.5627   -287.30753    13141.986    4.3562843 
    4710    293.25564    -3736.893   -3720.5554   -500.48775    13152.989    4.3765287 
    4720    295.20084   -3736.9829   -3720.5369   -729.70698    13162.554    4.3968173 
    4730    294.42715   -3736.9161   -3720.5133   -825.95469    13170.069    4.4163935 
    4740    302.18695   -3737.3216   -3720.4864   -844.35618    13175.231    4.4362417 
    4750    313.47376   -3737.9267   -3720.4627   -823.51785    13177.955    4.4580396 
    4760    306.74162   -3737.5397   -3720.4508   -755.24027    13178.303    4.4805336 
    4770    297.59061   -3737.0277   -3720.4485   -700.65383    13176.454    4.4994297 
    4780    298.74353   -3737.0906   -3720.4473   -608.98405    13172.578    4.5120527 
    4790    306.38229   -3737.5167   -3720.4478   -541.85595    13166.923    4.5183236 
    4800    303.16582   -3737.3442   -3720.4545    -546.4593    13159.669     4.519726 
    4810    294.86822   -3736.8917   -3720.4643   -576.30022    13150.833    4.5186458 
    4820    292.46595   -3736.7637   -3720.4701   -649.17903    13140.305    4.5162771 
    4830    292.32256   -3736.7543   -3720.4686   -556.51209    13127.929    4.5117781 
    4840    295.36567   -3736.9146   -3720.4595   -383.69142    13113.947    4.5067247 
    4850    301.79336   -3737.2578   -3720.4445   -310.77835    13098.807     4.503592 
    4860    304.18865   -3737.3766   -3720.4299   -290.63074    13082.737     4.502037 
    4870    301.17116   -3737.1965   -3720.4179   -236.70837    13065.823    4.5004008 
    4880    299.77838   -3737.1067   -3720.4057   -141.58737    13048.218    4.4977698 
    4890    299.86623   -3737.0949    -3720.389    85.699305    13030.221    4.4943922 
    4900    302.75059   -3737.2332   -3720.3666    306.03251     13012.44    4.4924365 
    4910    301.71345     -3737.15   -3720.3412    486.62283    12995.503    4.4940809 
    4920    301.03268   -3737.0864   -3720.3155    706.85117     12979.95    4.4986109 
    4930    302.66737   -3737.1532   -3720.2913    903.91638    12966.383    4.5033102 
    4940    307.09759   -3737.3828   -3720.2741    1043.1975    12955.334    4.5058312 
    4950    300.08996   -3736.9812   -3720.2629     1240.116    12947.234    4.5076827 
    4960    300.03294   -3736.9678   -3720.2527    1207.9544    12942.545     4.512244 
    4970     301.1271   -3737.0149   -3720.2387    1006.4094    12941.194    4.5214914 
    4980    292.68594   -3736.5246   -3720.2187     927.8046    12942.707     4.534127 
    4990    291.56327    -3736.433   -3720.1897    881.78999    12946.846    4.5473669 
    5000    292.87198   -3736.4642    -3720.148    784.56533    12953.466    4.5592082 
Loop time of 4378.43 on 8 procs for 5000 steps with 432 atoms

Performance: 0.099 ns/day, 243.246 hours/ns, 1.142 timesteps/s
96.1% CPU use with 8 MPI tasks x 1 OpenMP threads

MPI task timing breakdown:
Section |  min time  |  avg time  |  max time  |%varavg| %total
---------------------------------------------------------------
Pair    | 3526.4     | 4094.7     | 4318.3     | 390.3 | 93.52
Bond    | 0.00048208 | 0.0014856  | 0.0029788  |   1.7 |  0.00
Neigh   | 0.05578    | 0.06431    | 0.074763   |   2.2 |  0.00
Comm    | 56.144     | 274.93     | 847.61     |1522.8 |  6.28
Output  | 0.2607     | 0.27522    | 0.37587    |   7.3 |  0.01
Modify  | 0.26736    | 8.4283     | 25.795     | 348.8 |  0.19
Other   |            | 0.04676    |            |       |  0.00

Nlocal:        54.0000 ave          60 max          48 min
Histogram: 1 0 1 2 0 1 1 0 0 2
Nghost:        443.000 ave         462 max         427 min
Histogram: 1 0 3 1 0 1 0 0 0 2
Neighs:         0.00000 ave           0 max           0 min
Histogram: 8 0 0 0 0 0 0 0 0 0
FullNghs:      1763.25 ave        2094 max        1467 min
Histogram: 1 0 2 1 0 2 0 0 1 1

Total # of neighbors = 14106
Ave neighs/atom = 32.652778
Ave special neighs/atom = 0.0000000
Neighbor list builds = 500
Dangerous builds = 500
System init for write_data ...
Total wall time: 1:13:04
