LAMMPS (2 Aug 2023)
OMP_NUM_THREADS environment is not set. Defaulting to 1 thread. (src/comm.cpp:98)
  using 1 OpenMP thread(s) per MPI task
Reading restart file ...
  restart file = 2 Aug 2023, LAMMPS = 2 Aug 2023
  restoring atom style full from restart
  orthogonal box = (-0.33623157 -0.341427 -13.879934) to (25.471202 25.476397 89.284846)
  1 by 1 by 1 MPI processor grid
  pair style chgnet/gpu stores no restart info
  1536 atoms
Finding 1-2 1-3 1-4 neighbors ...
  special bond factors lj:    0        0        0       
  special bond factors coul:  0        0        0       
     0 = max # of 1-2 neighbors
     0 = max # of 1-3 neighbors
     0 = max # of 1-4 neighbors
     1 = max # of special neighbors
  special bonds CPU = 0.002 seconds
  read_restart CPU = 0.065 seconds
Resetting peratom fix info from restart file:
  fix style: STORE/ATOM, fix ID: msd_COMPUTE_STORE
All restart file peratom fix info was re-assigned
Neighbor list info ...
  update: every = 1 steps, delay = 10 steps, check = yes
  max neighbors/atom: 2000, page size: 100000
  master list distance cutoff = 6.3
  ghost atom cutoff = 6.3
  binsize = 3.15, bins = 9 9 33
  1 neighbor lists, perpetual/occasional/extra = 1 0 0
  (1) pair chgnet/gpu, perpetual
      attributes: full, newton on
      pair build: full/bin
      stencil: full/bin/3d
      bin: standard
Setting up Verlet run ...
  Unit style    : metal
  Current step  : 20000
  Time step     : 0.001
Per MPI rank memory allocation (min/avg/max) = 6.512 | 6.512 | 6.512 Mbytes
   Step          Temp          PotEng         TotEng         Press          Volume        c_msd[4]   
     20000   1480.9672     -5265.4838     -4971.6387      1074.1725      68737.846      80.319031    
     20010   1474.5475     -5264.172      -4971.6007      1165.4818      68739.028      80.428916    
     20020   1471.018      -5263.3583     -4971.4872      1238.8653      68742.748      80.559208    
     20030   1460.1815     -5260.9885     -4971.2676      1216.7955      68749.016      80.706525    
     20040   1460.9127     -5260.7842     -4970.9182      1036.7401      68757.407      80.86412     
     20050   1471.2525     -5262.345      -4970.4274      751.76241      68767.187      81.024368    
     20060   1474.8875     -5262.4534     -4969.8146      465.12259      68777.595      81.181681    
     20070   1485.7329     -5263.886      -4969.0953      137.07024      68787.912      81.332125    
     20080   1495.6227     -5265.045      -4968.2921     -106.57219      68797.532      81.473344    
     20090   1500.8013     -5265.2201     -4967.4396     -172.45662      68806.306      81.606808    
     20100   1496.8647     -5263.559      -4966.5596     -10.971066      68814.495      81.737047    
     20110   1480.5446     -5259.4032     -4965.6419      306.61635      68822.483      81.868765    
     20120   1469.1994     -5256.1439     -4964.6337      586.89175      68830.59       82.005006    
     20130   1476.9865     -5256.5515     -4963.4962      652.73278      68838.878      82.14695     
     20140   1497.8597     -5259.431      -4962.2342      653.3105       68847.134      82.29412     
     20150   1514.1292     -5261.3481     -4960.9232      654.74852      68855.298      82.445882    
     20160   1522.8007     -5261.7938     -4959.6484      652.6133       68863.663      82.602469    
     20170   1533.7494     -5262.7863     -4958.4684      597.6848       68872.565      82.765472    
     20180   1540.0201     -5263.0031     -4957.441       530.47568      68882.127      82.937423    
     20190   1547.1643     -5263.5828     -4956.6032      514.91499      68892.338      83.119308    
     20200   1551.0219     -5263.7366     -4955.9916      569.24441      68903.125      83.309089    
     20210   1535.384      -5260.2499     -4955.6077      782.99763      68914.55       83.503457    
     20220   1526.8728     -5258.3698     -4955.4163      978.62662      68926.877      83.699593    
     20230   1534.7183     -5259.8969     -4955.3868      1080.8715      68940.335      83.897248    
     20240   1543.9862     -5261.9055     -4955.5565      1190.1059      68955.098      84.098299    
     20250   1533.251      -5260.1862     -4955.9672      1455.7005      68971.434      84.305662    
     20260   1510.865      -5256.3765     -4956.5992      1779.3218      68989.843      84.523436    
     20270   1498.3633     -5254.7201     -4957.4233      1930.0293      69010.843      84.755412    
     20280   1507.1852     -5257.4905     -4958.4434      1784.3566      69034.723      85.004954    
     20290   1525.0488     -5262.3505     -4959.7589      1500.5733      69061.304      85.273025    
     20300   1524.9403     -5264.0585     -4961.4885      1352.9759      69090.272      85.558939    
     20310   1495.4745     -5260.3799     -4963.6563      1475.0433      69121.634      85.862948    
     20320   1456.0426     -5254.9709     -4966.0712      1628.1558      69155.717      86.185501    
     20330   1450.7456     -5256.3138     -4968.4651      1506.4008      69192.72       86.524352    
     20340   1465.5724     -5261.4536     -4970.6631      1224.512       69232.354      86.876954    
     20350   1466.237      -5263.4553     -4972.5329      1081.1657      69274.052      87.242098    
     20360   1465.7538     -5264.8312     -4974.0046      967.31139      69317.413      87.618076    
     20370   1467.2154     -5266.2122     -4975.0956      849.48835      69362.126      88.002762    
     20380   1479.0376     -5269.3652     -4975.903       688.67571      69407.946      88.395769    
     20390   1478.7832     -5269.9395     -4976.5277      578.78312      69454.746      88.799208    
     20400   1461.7354     -5267.0621     -4977.0329      620.26508      69502.603      89.216243    
     20410   1452.9921     -5265.7181     -4977.4237      602.87582      69551.803      89.649984    
     20420   1450.3672     -5265.4823     -4977.7087      503.91431      69602.536      90.10122     
     20430   1447.4036     -5265.0894     -4977.9038      377.81402      69654.924      90.568675    
     20440   1445.3926     -5264.799      -4978.0124      269.99119      69708.759      91.047495    
     20450   1437.7207     -5263.2957     -4978.0313      284.35868      69763.569      91.53116     
     20460   1427.848      -5261.2518     -4977.9463      347.70609      69818.958      92.015541    
     20470   1429.857      -5261.4386     -4977.7345      394.19162      69874.651      92.499756    
     20480   1445.5521     -5264.224      -4977.4058      334.68848      69930.346      92.983623    
     20490   1452.0446     -5265.119      -4977.0126      401.03292      69985.793      93.466014    
     20500   1442.5317     -5262.7954     -4976.5765      652.39397      70041.173      93.94883     
     20510   1439.775      -5261.7561     -4976.0841      830.56171      70096.962      94.435688    
     20520   1452.8297     -5263.782      -4975.5198      874.46184      70153.407      94.927338    
     20530   1458.2257     -5264.2408     -4974.908       911.50168      70210.486      95.422346    
     20540   1444.5113     -5260.8878     -4974.2761      1028.304       70268.181      95.919912    
     20550   1433.9036     -5258.0947     -4973.5877      1098.3873      70326.56       96.418775    
     20560   1454.044      -5261.3207     -4972.8175      801.22536      70385.605      96.915515    
     20570   1481.0543     -5265.8628     -4972.0004      448.03785      70445.059      97.408733    
     20580   1483.7445     -5265.6387     -4971.2425      359.75774      70504.768      97.903       
     20590   1471.302      -5262.5039     -4970.5765      496.02325      70564.815      98.404409    
     20600   1475.3736     -5262.7083     -4969.973       571.77536      70625.25       98.915709    
     20610   1499.2911     -5266.9164     -4969.4356      460.37706      70685.919      99.435504    
     20620   1513.0471     -5269.2444     -4969.0342      368.82842      70746.475      99.961107    
     20630   1506.4698     -5267.7312     -4968.826       404.64576      70806.594      100.49043    
     20640   1490.8313     -5264.6151     -4968.8128      455.0063       70866.166      101.02247    
     20650   1470.1319     -5260.6366     -4968.9414      513.1147       70925.289      101.55729    
     20660   1450.5368     -5256.9569     -4969.1496      505.86613      70984.155      102.09507    
     20670   1437.0631     -5254.5051     -4969.3712      425.7345       71042.812      102.63486    
     20680   1428.3932     -5252.9656     -4969.5519      278.81713      71101.12       103.17617    
     20690   1431.801      -5253.7632     -4969.6734      52.13172       71158.823      103.71832    
     20700   1436.3353     -5254.7219     -4969.7324     -118.19302      71215.391      104.25753    
     20710   1430.97       -5253.6643     -4969.7394     -195.86653      71270.16       104.7883     
     20720   1411.8436     -5249.8103     -4969.6803     -43.159713      71322.711      105.30704    
     20730   1399.6952     -5247.2289     -4969.5093      109.54075      71373.187      105.81521    
     20740   1399.068      -5246.7678     -4969.1727      88.788939      71422.027      106.31802    
     20750   1398.2876     -5246.0771     -4968.6369      110.41699      71469.68       106.81999    
     20760   1400.5908     -5245.7644     -4967.8671      112.47475      71516.665      107.32382    
     20770   1414.2297     -5247.4446     -4966.8412     -16.544589      71563.263      107.82898    
     20780   1441.4021     -5251.5652     -4965.5704     -238.88243      71609.324      108.33231    
     20790   1464.0958     -5254.6318     -4964.1343     -373.68139      71654.329      108.83014    
     20800   1462.7636     -5252.8945     -4962.6613     -308.02273      71697.758      109.31923    
     20810   1451.8201     -5249.2899     -4961.228      -111.2924       71739.399      109.79625    
     20820   1447.9206     -5247.13       -4959.8418     -9.5265771      71779.393      110.26007    
     20830   1446.4324     -5245.5092     -4958.5162      57.895008      71817.984      110.71171    
     20840   1450.4215     -5245.0576     -4957.2732      7.6733732      71855.468      111.15322    
     20850   1462.9312     -5246.4075     -4956.141      -32.520498      71892.059      111.5856     
     20860   1468.0179     -5246.4335     -4955.1577     -53.709788      71927.816      112.00793    
     20870   1476.771      -5247.3732     -4954.3607     -131.37104      71962.684      112.41793    
     20880   1484.9327     -5248.3942     -4953.7623     -204.05865      71996.632      112.81398    
     20890   1493.0933     -5249.64       -4953.3889     -292.97851      72029.7        113.19561    
     20900   1497.6958     -5250.4131     -4953.2488     -320.24141      72061.851      113.56418    
     20910   1491.9999     -5249.3756     -4953.3415     -232.03017      72093.032      113.9227     
     20920   1483.5971     -5248.0085     -4953.6416     -136.18154      72123.318      114.27441    
     20930   1483.4379     -5248.452      -4954.1167     -11.528486      72152.924      114.62319    
     20940   1489.0869     -5250.2172     -4954.761      -67.418799      72182.303      114.97618    
     20950   1498.171      -5252.851      -4955.5924     -236.14727      72211.694      115.33894    
     20960   1495.8182     -5253.4124     -4956.6206     -288.92107      72241.027      115.71295    
     20970   1469.3346     -5249.3232     -4957.7862     -181.69435      72270.193      116.09677    
     20980   1446.1209     -5245.8977     -4958.9666     -11.895602      72299.063      116.48685    
     20990   1445.7097     -5246.918      -4960.0685     -89.70128       72327.245      116.87729    
     21000   1455.2453     -5249.8411     -4961.0996     -210.91029      72354.171      117.26168    
     21010   1451.5008     -5250.0656     -4962.067      -278.65646      72379.833      117.63891    
     21020   1446.119      -5249.8964     -4962.9656     -311.43655      72404.66       118.01187    
     21030   1445.1552     -5250.5208     -4963.7813     -424.16019      72428.854      118.38159    
     21040   1438.5776     -5249.948      -4964.5136     -443.9154       72452.242      118.74514    
     21050   1425.2555     -5247.9532     -4965.1621     -453.22668      72474.581      119.09716    
     21060   1411.4661     -5245.7629     -4965.7078     -408.18894      72495.567      119.43066    
     21070   1403.3308     -5244.5764     -4966.1355     -407.54345      72515.04       119.74056    
     21080   1400.1076     -5244.252      -4966.4506     -498.68426      72532.983      120.0266     
     21090   1399.5762     -5244.3622     -4966.6662     -593.20564      72549.346      120.29126    
     21100   1400.1175     -5244.6031     -4966.7998     -665.49389      72564.027      120.53595    
     21110   1396.4778     -5243.941      -4966.8598     -623.58796      72576.916      120.75974    
     21120   1395.0895     -5243.662      -4966.8562     -523.81247      72588.128      120.9628     
     21130   1399.0768     -5244.3816     -4966.7847     -373.747        72598.072      121.14954    
     21140   1405.3524     -5245.5073     -4966.6653     -244.36029      72607.398      121.3294     
     21150   1417.6016     -5247.7969     -4966.5244     -163.79349      72616.804      121.51242    
     21160   1430.9775     -5250.3186     -4966.3922     -158.74324      72626.638      121.70376    
     21170   1444.0851     -5252.8495     -4966.3223     -137.64829      72636.687      121.9037     
     21180   1455.878      -5255.2361     -4966.369      -137.23447      72646.504      122.11012    
     21190   1455.0013     -5255.2639     -4966.5708     -86.449052      72655.71       122.31999    
     21200   1437.8794     -5252.2262     -4966.9303     -39.549245      72664.241      122.53185    
     21210   1421.9949     -5249.5459     -4967.4017     -77.475066      72672.372      122.74573    
     21220   1408.8108     -5247.4581     -4967.9299     -264.85346      72680.374      122.95988    
     21230   1390.7224     -5244.4109     -4968.4717     -472.42147      72688.182      123.17051    
     21240   1375.8799     -5241.9694     -4968.9751     -623.28545      72695.552      123.37606    
     21250   1370.7246     -5241.3636     -4969.3923     -778.11746      72702.191      123.57741    
     21260   1373.7129     -5242.2799     -4969.7156     -900.92007      72707.735      123.77382    
     21270   1376.2835     -5243.024      -4969.9497     -922.16065      72711.943      123.96252    
     21280   1373.1036     -5242.5439     -4970.1005     -827.5868       72714.776      124.13985    
     21290   1369.3376     -5241.8558     -4970.1596     -695.11182      72716.343      124.30299    
     21300   1368.5838     -5241.6515     -4970.1049     -652.94073      72716.847      124.45107    
     21310   1373.4719     -5242.4418     -4969.9253     -716.1727       72716.409      124.58191    
     21320   1383.2377     -5244.071      -4969.6169     -857.43752      72715.073      124.69399    
     21330   1383.9263     -5243.7803     -4969.1895     -951.29786      72712.868      124.78941    
     21340   1378.1999     -5242.0785     -4968.6239     -896.8148       72709.907      124.87156    
     21350   1384.5068     -5242.6025     -4967.8966     -812.31144      72706.424      124.94397    
     21360   1389.0045     -5242.585      -4966.9866     -732.63281      72702.705      125.0103     
     21370   1382.9008     -5240.2881     -4965.9008     -538.50527      72699.031      125.07417    
     21380   1377.395      -5237.918      -4964.6231     -338.03471      72695.799      125.14034    
     21390   1381.4858     -5237.2606     -4963.154      -316.78741      72693.278      125.21144    
     21400   1407.7033     -5240.8462     -4961.5377     -449.54716      72691.258      125.28607    
     21410   1442.4671     -5246.1013     -4959.8952     -643.02258      72689.065      125.36142    
     21420   1471.3439     -5250.3567     -4958.421      -831.1209       72685.788      125.43417    
     21430   1481.8302     -5251.2854     -4957.2691     -863.12837      72680.854      125.50302    
     21440   1484.9987     -5251.1525     -4956.5075     -780.0221       72674.263      125.5679     
     21450   1480.8155     -5249.9454     -4956.1304     -640.15317      72666.46       125.63052    
     21460   1465.9054     -5246.9436     -4956.087      -342.20994      72658.095      125.6941     
     21470   1451.3263     -5244.2853     -4956.3214     -79.908929      72649.958      125.76264    
     21480   1434.5151     -5241.386      -4956.7576      97.632403      72642.744      125.84019    
     21490   1419.9768     -5239.0792     -4957.3355      186.41952      72636.922      125.92979    
     21500   1415.5448     -5238.8708     -4958.0065      126.45331      72632.71       126.03281    
     21510   1418.51       -5240.2126     -4958.7599      13.45288       72630.116      126.14856    
     21520   1417.5673     -5240.8656     -4959.5999     -133.44007      72629.031      126.27497    
     21530   1413.1221     -5240.8978     -4960.5142     -184.95994      72629.313      126.40987    
     21540   1411.1681     -5241.4852     -4961.4893     -223.64393      72630.718      126.55144    
     21550   1407.7789     -5241.8119     -4962.4884     -276.58287      72632.707      126.69563    
     21560   1404.8764     -5242.2462     -4963.4986     -275.87919      72634.772      126.83711    
     21570   1401.6541     -5242.6029     -4964.4947     -180.10256      72636.915      126.97354    
     21580   1406.1783     -5244.4607     -4965.4548     -258.15393      72639.389      127.10504    
     21590   1421.8439     -5248.5095     -4966.3953     -426.75308      72642.065      127.22954    
     21600   1432.3856     -5251.5626     -4967.3568     -605.94079      72644.454      127.34409    
     21610   1425.2617     -5251.1353     -4968.3429     -656.74665      72645.923      127.44743    
     21620   1408.7396     -5248.8164     -4969.3023     -663.9292       72645.985      127.54117    
     21630   1411.5391     -5250.2692     -4970.1996     -726.11024      72644.436      127.62872    
     21640   1419.2286     -5252.6481     -4971.0528     -784.00996      72641.506      127.71461    
     21650   1409.8075     -5251.6088     -4971.8828     -680.5824       72637.801      127.80436    
     21660   1381.9575     -5246.8499     -4972.6497     -387.84396      72634.04       127.90213    
     21670   1365.0702     -5244.16       -4973.3106     -141.97497      72630.802      128.00983    
     21680   1364.1252     -5244.4991     -4973.8372     -83.487933      72628.118      128.12451    
     21690   1377.0034     -5247.4933     -4974.2761     -198.53197      72625.569      128.24006    
     21700   1389.0221     -5250.2875     -4974.6856     -347.48833      72622.818      128.35338    
     21710   1389.1889     -5250.7434     -4975.1084     -444.39243      72619.68       128.46345    
     21720   1381.0789     -5249.5789     -4975.553      -449.98181      72616.08       128.57071    
     21730   1367.1495     -5247.2673     -4976.0053     -423.21117      72612.101      128.67747    
     21740   1341.7239     -5242.6278     -4976.4106     -339.94605      72607.961      128.78574    
     21750   1320.131      -5238.6284     -4976.6955     -339.70921      72603.812      128.89498    
     21760   1328.3233     -5240.3848     -4976.8264     -579.07239      72599.457      129.00151    
     21770   1359.6413     -5246.6093     -4976.8369     -893.69104      72594.338      129.1001     
     21780   1384.6258     -5251.545      -4976.8155     -1104.8862      72587.984      129.18703    
     21790   1387.5934     -5252.1735     -4976.8551     -992.11231      72580.365      129.26176    
     21800   1372.6027     -5249.2994     -4976.9554     -674.93694      72571.918      129.32713    
     21810   1364.3342     -5247.7943     -4977.0909     -396.5027       72563.231      129.38672    
     21820   1369.4354     -5248.9497     -4977.2341     -254.28715      72554.656      129.44346    
     21830   1377.5026     -5250.7218     -4977.4056     -185.91776      72546.156      129.49831    
     21840   1393.4661     -5254.1312     -4977.6476     -243.90154      72537.476      129.55114    
     21850   1404.9672     -5256.7837     -4978.0181     -237.07701      72528.511      129.60308    
     21860   1402.4827     -5256.8408     -4978.5682     -172.32308      72519.459      129.65601    
     21870   1395.9503     -5256.2849     -4979.3084     -102.682        72510.539      129.70942    
     21880   1392.9818     -5256.6178     -4980.2303     -52.871729      72501.963      129.76241    
     21890   1395.588      -5258.2361     -4981.3314     -172.83177      72493.907      129.81613    
     21900   1401.1563     -5260.6381     -4982.6286     -389.0661       72486.25       129.87162    
     21910   1402.9813     -5262.49       -4984.1184     -647.39886      72478.667      129.92797    
     21920   1394.5126     -5262.4402     -4985.7489     -784.41668      72470.763      129.98181    
     21930   1382.3881     -5261.7048     -4987.4192     -929.18344      72462.16       130.02995    
     21940   1369.9223     -5260.8215     -4989.0093     -1046.5685      72452.424      130.06952    
     21950   1355.6044     -5259.3948     -4990.4234     -1154.2237      72441.281      130.09891    
     21960   1336.8283     -5256.8419     -4991.596      -1145.4961      72428.775      130.1185     
     21970   1325.378      -5255.4661     -4992.4921     -1161.9947      72415.147      130.13083    
     21980   1330.6753     -5257.1752     -4993.1501     -1257.0404      72400.475      130.13746    
     21990   1337.5387     -5259.0201     -4993.6333     -1283.5217      72384.684      130.13771    
     22000   1333.1773     -5258.5137     -4993.9922     -1096.055       72367.887      130.13143    
     22010   1321.9288     -5256.531      -4994.2414     -749.92806      72350.627      130.1219     
     22020   1317.618      -5255.8022     -4994.368      -476.26023      72333.746      130.11564    
     22030   1325.9071     -5257.4648     -4994.3859     -398.55234      72317.916      130.11747    
     22040   1342.3331     -5260.6721     -4994.334      -518.48164      72303.29       130.1267     
     22050   1356.8359     -5263.4905     -4994.2748     -652.62011      72289.32       130.13723    
     22060   1360.5871     -5264.2137     -4994.2538     -760.09307      72275.052      130.1407     
     22070   1359.3385     -5264.001      -4994.2887     -776.14107      72259.723      130.13198    
     22080   1350.1651     -5262.2644     -4994.3723     -734.47869      72243.069      130.11178    
     22090   1340.4823     -5260.4454     -4994.4746     -751.61292      72225.09       130.0818     
     22100   1334.3776     -5259.3307     -4994.5711     -786.17104      72205.743      130.04009    
     22110   1330.1694     -5258.5693     -4994.6447     -863.81528      72184.781      129.98284    
     22120   1334.4367     -5259.4585     -4994.6871     -894.93661      72161.972      129.90839    
     22130   1343.1471     -5261.2112     -4994.7116     -934.1056       72137.267      129.81704    
     22140   1343.0621     -5261.2236     -4994.7409     -909.64593      72110.569      129.70892    
     22150   1344.5445     -5261.566      -4994.7891     -815.74262      72081.886      129.58559    
     22160   1353.5428     -5263.4242     -4994.8619     -777.79785      72051.405      129.45009    
     22170   1358.5381     -5264.5477     -4994.9943     -723.09794      72019.368      129.30642    
     22180   1347.0507     -5262.4706     -4995.1964     -557.73329      71986.069      129.15967    
     22190   1334.1542     -5260.1682     -4995.4529     -411.52375      71951.785      129.01512    
     22200   1327.2064     -5259.0623     -4995.7255     -443.15935      71916.72       128.87685    
     22210   1324.4883     -5258.7949     -4995.9975     -585.23045      71880.945      128.74513    
     22220   1325.2778     -5259.2168     -4996.2627     -755.38374      71844.356      128.61524    
     22230   1326.2011     -5259.6771     -4996.5398     -847.44626      71806.653      128.47943    
     22240   1315.8358     -5257.9043     -4996.8236     -683.20157      71767.585      128.33272    
     22250   1295.8256     -5254.1836     -4997.0732     -445.13586      71727.19       128.17509    
     22260   1283.3834     -5251.8739     -4997.2323     -249.66799      71685.684      128.00748    
     22270   1282.474      -5251.6978     -4997.2366     -169.9105       71643.379      127.83       
     22280   1298.9506     -5254.8047     -4997.0743     -223.53911      71600.475      127.64157    
     22290   1325.2657     -5259.7189     -4996.7672     -357.7906       71557.038      127.4416     
     22300   1350.2806     -5264.3013     -4996.3863     -494.04184      71513.009      127.23056    
     22310   1369.1974     -5267.6946     -4996.0262     -580.31192      71468.207      127.0107     
     22320   1372.6837     -5268.1157     -4995.7556     -496.80654      71422.524      126.7849     
     22330   1364.7555     -5266.3993     -4995.6123     -276.3219       71376.194      126.55747    
     22340   1358.3997     -5265.1157     -4995.5898     -34.249016      71329.68       126.33369    
     22350   1362.4219     -5266.021      -4995.697       46.239125      71283.378      126.11708    
     22360   1369.276      -5267.6429     -4995.959       39.848121      71237.344      125.90669    
     22370   1376.3542     -5269.53       -4996.4416     -69.302012      71191.396      125.69984    
     22380   1367.0929     -5268.4153     -4997.1645     -136.9981       71145.242      125.49552    
     22390   1359.348      -5267.8425     -4998.1284     -218.74582      71098.746      125.29276    
     22400   1358.6976     -5268.9056     -4999.3206     -382.77152      71051.697      125.08708    
     22410   1354.6842     -5269.504      -5000.7153     -560.97332      71003.704      124.87011    
     22420   1344.1276     -5268.9576     -5002.2635     -644.16703      70954.395      124.63328    
     22430   1328.0817     -5267.3588     -5003.8483     -722.67238      70903.698      124.37188    
     22440   1318.1054     -5266.9036     -5005.3726     -839.04325      70851.676      124.08523    
     22450   1316.1813     -5267.9355     -5006.7863     -1054.6562      70798.235      123.77626    
     22460   1315.6194     -5269.1104     -5008.0726     -1186.6967      70743.09       123.44928    
     22470   1311.5344     -5269.4495     -5009.2222     -1189.4319      70686.059      123.10708    
     22480   1307.1168     -5269.5817     -5010.231      -1150.0098      70627.178      122.75236    
     22490   1316.3918     -5272.3165     -5011.1255     -1117.1432      70566.543      122.38792    
     22500   1333.3987     -5276.5272     -5011.9618     -1008.6863      70504.186      122.01286    
     22510   1337.7893     -5278.2206     -5012.784      -749.24092      70440.374      121.62644    
     22520   1338.7412     -5279.2419     -5013.6165     -482.85509      70375.664      121.22996    
     22530   1336.2198     -5279.5884     -5014.4632     -259.79513      70310.685      120.82525    
     22540   1324.0176     -5278.0166     -5015.3126     -21.19182       70246.009      120.41524    
     22550   1324.4995     -5278.9365     -5016.1368      55.550745      70182.197      120.00372    
     22560   1332.7023     -5281.3832     -5016.956       115.32293      70119.618      119.59568    
     22570   1334.9271     -5282.6656     -5017.797       221.66718      70058.528      119.19554    
     22580   1330.3332     -5282.6276     -5018.6704      337.99653      69999.18       118.80633    
     22590   1319.8473     -5281.4216     -5019.545       375.11396      69941.882      118.43214    
     22600   1313.2206     -5280.962      -5020.4003      329.32884      69886.898      118.0771     
     22610   1308.3893     -5280.828      -5021.2248      228.20737      69834.207      117.74077    
     22620   1305.7118     -5281.0767     -5022.0047      76.004773      69783.657      117.41941    
     22630   1303.219      -5281.3066     -5022.7293     -70.666308      69735.209      117.11336    
     22640   1313.0707     -5283.9562     -5023.4241     -280.15762      69688.776      116.82646    
     22650   1315.8412     -5285.2013     -5024.1196     -355.84089      69643.819      116.5579     
     22660   1303.1946     -5283.3918     -5024.8194     -385.0468       69599.853      116.30502    
     22670   1293.3841     -5282.1075     -5025.4816     -415.43494      69556.746      116.06444    
     22680   1296.6616     -5283.371      -5026.0947     -556.83885      69514.45       115.83146    
     22690   1302.2569     -5285.0632     -5026.6768     -693.8118       69472.702      115.60275    
     22700   1301.11       -5285.4086     -5027.2497     -825.16288      69431.151      115.37724    
     22710   1295.4184     -5284.8354     -5027.8059     -861.51239      69389.555      115.1538     
     22720   1286.6084     -5283.6138     -5028.3322     -811.35582      69347.889      114.93136    
     22730   1281.1861     -5283.0066     -5028.8009     -796.55877      69306.359      114.71219    
     22740   1280.4634     -5283.267      -5029.2047     -803.8453       69265.355      114.50108    
     22750   1275.8913     -5282.6927     -5029.5376     -767.58859      69225.29       114.30259    
     22760   1263.4659     -5280.4856     -5029.7959     -678.54954      69186.478      114.11953    
     22770   1254.6579     -5278.8922     -5029.9501     -592.23533      69148.976      113.95004    
     22780   1261.9406     -5280.3809     -5029.9938     -599.66782      69112.633      113.78836    
     22790   1270.6638     -5282.0508     -5029.9329     -590.68919      69077.225      113.62803    
     22800   1274.7215     -5282.7202     -5029.7972     -549.15392      69042.752      113.46642    
     22810   1275.3244     -5282.6455     -5029.6029     -422.21845      69009.346      113.30563    
     22820   1270.307      -5281.392      -5029.3449     -286.3327       68977.156      113.14999    
     22830   1271.7485     -5281.3466     -5029.0134     -207.72065      68946.224      113.00182    
     22840   1290.0754     -5284.5791     -5028.6097     -340.66039      68916.359      112.86053    
     22850   1312.8539     -5288.6682     -5028.1792     -526.66493      68887.042      112.72411    
     22860   1321.8387     -5290.0693     -5027.7976     -570.94638      68857.673      112.59035    
     22870   1320.21       -5289.4471     -5027.4986     -557.42625      68827.872      112.45725    
     22880   1320.0051     -5289.1985     -5027.2906     -571.17094      68797.497      112.32269    
     22890   1319.9027     -5289.0787     -5027.1911     -494.88349      68766.573      112.18511    
     22900   1304.3592     -5285.9923     -5027.1888     -302.38723      68735.317      112.04556    
     22910   1288.3042     -5282.8795     -5027.2615     -84.260389      68704.119      111.9081     
     22920   1292.8351     -5283.9027     -5027.3857     -19.980712      68673.22       111.77769    
     22930   1306.5267     -5286.8218     -5027.5882     -47.633521      68642.562      111.65702    
     22940   1315.9786     -5289.0483     -5027.9393     -108.02541      68612.057      111.54677    
     22950   1319.1175     -5290.24       -5028.5082     -82.981893      68581.772      111.44729    
     22960   1322.1548     -5291.6887     -5029.3543     -129.5015       68551.882      111.3582     
     22970   1321.2795     -5292.672      -5030.5112     -126.58612      68522.43       111.27604    
     22980   1310.9205     -5292.0685     -5031.9631     -65.527283      68493.33       111.19537    
     22990   1298.4519     -5291.2507     -5033.6193      40.638587      68464.389      111.11035    
     23000   1285.1238     -5290.3341     -5035.3471      183.21824      68435.494      111.01757    
     23010   1268.8458     -5288.7623     -5037.0051      330.01         68406.793      110.91761    
     23020   1258.4751     -5288.1826     -5038.4831      428.85706      68378.558      110.81408    
     23030   1251.2119     -5288.0017     -5039.7433      498.65327      68350.91       110.71089    
     23040   1241.9428     -5287.192      -5040.7728      528.12283      68323.763      110.60999    
     23050   1240.1965     -5287.6633     -5041.5906      479.8048       68296.99       110.51255    
     23060   1247.6441     -5289.7793     -5042.2288      337.06174      68270.497      110.42139    
     23070   1251.918      -5291.1368     -5042.7384      227.88354      68244.119      110.34009    
     23080   1260.769      -5293.3173     -5043.1626      64.094173      68217.549      110.2701     
     23090   1269.5929     -5295.4567     -5043.5512     -74.365753      68190.251      110.20674    
     23100   1269.7879     -5295.8701     -5043.926      -108.6798       68161.688      110.14232    
     23110   1276.6367     -5297.6129     -5044.3099     -182.53715      68131.482      110.07083    
     23120   1290.4887     -5300.7865     -5044.7351     -231.63538      68099.387      109.98788    
     23130   1296.5194     -5302.4897     -5045.2417     -275.00593      68065.501      109.89037    
     23140   1289.7335     -5301.7405     -5045.8389     -207.61195      68030.313      109.77717    
     23150   1283.5838     -5301.2007     -5046.5193     -133.83808      67994.36       109.65       
     23160   1271.311      -5299.4989     -5047.2526      21.686124      67957.813      109.51287    
     23170   1254.7923     -5296.9753     -5048.0066      178.30037      67920.713      109.37099    
     23180   1232.8915     -5293.3341     -5048.7108      305.11011      67883.052      109.22782    
     23190   1214.3164     -5290.2462     -5049.3085      325.4374       67844.825      109.08347    
     23200   1205.8927     -5289.0117     -5049.7453      239.63158      67806.108      108.93731    
     23210   1207.6786     -5289.6299     -5050.0092      85.043109      67766.99       108.78916    
     23220   1208.5697     -5289.9016     -5050.1041      15.154923      67727.511      108.63735    
     23230   1208.4899     -5289.8148     -5050.0331      47.015627      67687.787      108.47938    
     23240   1211.763      -5290.2235     -5049.7924      132.70969      67648.033      108.31515    
     23250   1220.4636     -5291.5499     -5049.3925      205.00991      67608.441      108.14719    
     23260   1233.7025     -5293.634      -5048.8498      275.30142      67568.902      107.97667    
     23270   1246.7408     -5295.579      -5048.2078      372.01152      67529.156      107.80295    
     23280   1257.2056     -5296.9523     -5047.5047      491.53086      67489.004      107.62455    
     23290   1269.2853     -5298.6182     -5046.7738      596.28783      67448.469      107.44131    
     23300   1283.8557     -5300.7997     -5046.0643      597.89666      67407.739      107.25569    
     23310   1286.6796     -5300.7257     -5045.4301      639.93934      67366.898      107.0718     
     23320   1286.8265     -5300.2148     -5044.89        708.22468      67326.107      106.89251    
     23330   1293.6111     -5301.1282     -5044.4572      636.14518      67285.682      106.71774    
     23340   1295.7215     -5301.2388     -5044.1491      559.01683      67245.803      106.54947    
     23350   1305.9765     -5303.1302     -5044.0058      478.41734      67206.361      106.38699    
     23360   1313.8003     -5304.7419     -5044.0651      422.50541      67167.029      106.22751    
     23370   1306.2499     -5303.5532     -5044.3745      430.36695      67127.567      106.06957    
     23380   1285.5229     -5299.9966     -5044.9304      482.51449      67087.893      105.91259    
     23390   1264.2668     -5296.5388     -5045.6902      591.84747      67047.996      105.7559     
     23400   1256.0794     -5295.8287     -5046.6046      543.92529      67007.949      105.59742    
     23410   1267.478      -5299.1777     -5047.6919      386.77039      66967.801      105.43444    
     23420   1281.9281     -5303.3654     -5049.0125      133.38745      66927.568      105.26719    
     23430   1282.8691     -5305.1528     -5050.6132     -29.848244      66887.039      105.09746    
     23440   1276.7895     -5305.7717     -5052.4384     -165.0547       66845.956      104.92691    
     23450   1271.6529     -5306.6774     -5054.3632     -279.37164      66804.105      104.75468    
     23460   1265.4928     -5307.3124     -5056.2205     -330.8926       66761.372      104.57899    
     23470   1258.0949     -5307.4893     -5057.8652     -304.93076      66717.837      104.40043    
     23480   1255.0135     -5308.2451     -5059.2325     -335.68683      66673.647      104.21947    
     23490   1265.056      -5311.3462     -5060.341      -445.84575      66628.909      104.03344    
     23500   1274.1614     -5314.0957     -5061.2838     -533.90419      66583.696      103.83907    
     23510   1265.482      -5313.2219     -5062.1322     -411.54602      66538.024      103.6351     
     23520   1246.112      -5310.1348     -5062.8883     -178.62235      66492.06       103.42278    
     23530   1237.8041     -5309.1442     -5063.5461     -32.806561      66446.087      103.20657    
     23540   1241.1004     -5310.3827     -5064.1306     -13.455317      66400.279      102.99113    
     23550   1244.4614     -5311.6014     -5064.6825     -6.4893271      66354.557      102.77852    
     23560   1243.8624     -5312.0244     -5065.2243      37.378767      66308.832      102.56966    
     23570   1240.7026     -5311.9449     -5065.7718      150.29504      66263.131      102.36481    
     23580   1234.0077     -5311.1631     -5066.3183      266.77615      66217.608      102.1647     
     23590   1225.8914     -5310.0784     -5066.844       401.50314      66172.461      101.96889    
     23600   1227.8185     -5310.9573     -5067.3405      450.67659      66127.874      101.7749     
     23610   1241.0952     -5314.0873     -5067.8362      450.53119      66083.826      101.57979    
     23620   1244.0439     -5315.202      -5068.3659      589.13583      66040.227      101.38325    
     23630   1228.9847     -5312.7799     -5068.9317      830.91461      65997.229      101.1882     
     23640   1213.4365     -5310.2454     -5069.4822      1031.1914      65955.118      100.99786    
     23650   1223.2688     -5312.7125     -5069.9985      916.96409      65914.002      100.81466    
     23660   1249.3171     -5318.4137     -5070.5313      602.41592      65873.612      100.63874    
     23670   1260.2072     -5321.2035     -5071.1603      397.16001      65833.434      100.46911    
     23680   1250.3506     -5319.9983     -5071.9108      367.30202      65793.237      100.30705    
     23690   1240.6204     -5318.9033     -5072.7465      342.92744      65753.149      100.15441    
     23700   1232.2514     -5318.1288     -5073.6325      301.11797      65713.3        100.01073    
     23710   1220.624      -5316.7214     -5074.5322      316.50678      65673.66       99.873321    
     23720   1207.9765     -5315.0815     -5075.4017      367.96057      65634.258      99.739267    
     23730   1195.7672     -5313.4471     -5076.1898      400.708        65595.27       99.606998    
     23740   1192.947      -5313.5651     -5076.8673      378.39602      65556.891      99.476055    
     23750   1199.2551     -5315.3976     -5077.4482      351.67183      65519.143      99.346588    
     23760   1205.165      -5317.0763     -5077.9543      383.59173      65481.881      99.219405    
     23770   1205.2222     -5317.5392     -5078.4058      521.73054      65445.004      99.094375    
     23780   1197.8176     -5316.4735     -5078.8094      734.99472      65408.488      98.969596    
     23790   1183.0371     -5313.8679     -5079.1364      986.87169      65372.308      98.84318     
     23800   1178.8022     -5313.2465     -5079.3552      1107.9909      65336.504      98.714446    
     23810   1188.6095     -5315.3049     -5079.4678      1034.5467      65301.111      98.583509    
     23820   1193.6293     -5316.3171     -5079.484       949.61231      65266.193      98.451103    
     23830   1193.4778     -5316.2325     -5079.4295      896.48955      65231.843      98.316566    
     23840   1192.3786     -5315.8927     -5079.3077      858.9913       65198.05       98.179926    
     23850   1190.306      -5315.2892     -5079.1154      874.70652      65164.678      98.044428    
     23860   1186.5536     -5314.2715     -5078.8422      988.40212      65131.566      97.914058    
     23870   1180.5402     -5312.7019     -5078.4658      1172.8535      65098.662      97.789467    
     23880   1179.7553     -5312.0361     -5077.9558      1385.7736      65066.106      97.668077    
     23890   1190.0912     -5313.4263     -5077.2951      1551.1655      65034.255      97.548669    
     23900   1203.8174     -5315.3536     -5076.499       1708.3534      65003.542      97.433825    
     23910   1223.5059     -5318.3738     -5075.6127      1794.5759      64974.265      97.328039    
     23920   1235.4572     -5319.8324     -5074.7         1883.2903      64946.423      97.234127    
     23930   1242.1841     -5320.2935     -5073.8263      1912.3919      64919.966      97.152413    
     23940   1257.8846     -5322.6152     -5073.0329      1765.5953      64894.825      97.082302    
     23950   1272.0007     -5324.7631     -5072.3799      1622.5312      64870.792      97.023489    
     23960   1270.5848     -5324.0354     -5071.9332      1565.9972      64847.629      96.974484    
     23970   1253.7986     -5320.4777     -5071.7061      1631.1664      64825.138      96.931594    
     23980   1239.1147     -5317.5081     -5071.65        1686.4505      64803.197      96.891111    
     23990   1247.8143     -5319.3365     -5071.7523      1495.7393      64781.611      96.850893    
     24000   1255.8541     -5321.2214     -5072.042       1276.7129      64760.166      96.80885     
     24010   1256.2407     -5321.8378     -5072.5816      1114.0859      64738.81       96.761668    
     24020   1258.4066     -5323.1265     -5073.4406      982.37237      64717.595      96.706954    
     24030   1253.7972     -5323.4414     -5074.6701      911.95451      64696.713      96.648239    
     24040   1243.9644     -5323.0983     -5076.2779      878.89587      64676.406      96.59147     
     24050   1231.7505     -5322.5815     -5078.1846      901.7726       64656.663      96.537821    
     24060   1221.8124     -5322.6335     -5080.2085      817.4026       64637.195      96.482566    
     24070   1218.929      -5323.9955     -5082.1425      691.78989      64617.684      96.420647    
     24080   1215.2305     -5324.9487     -5083.8296      554.05131      64597.967      96.352397    
     24090   1210.2454     -5325.3303     -5085.2003      500.5936       64578.06       96.282027    
     24100   1202.1125     -5324.7909     -5086.2746      531.80082      64558.211      96.214575    
     24110   1183.1628     -5321.8575     -5087.1011      739.94417      64538.79       96.15242     
     24120   1165.0392     -5318.8656     -5087.7051      991.51213      64520.036      96.094317    
     24130   1169.5404     -5320.1818     -5088.1282      1062.4062      64501.995      96.038738    
     24140   1186.3218     -5323.8245     -5088.4412      1033.7091      64484.552      95.986793    
     24150   1195.2279     -5325.861      -5088.7106      1073.3256      64467.572      95.939947    
     24160   1195.5343     -5326.1902     -5088.9791      1263.2246      64451.09       95.900791    
     24170   1190.0188     -5325.3724     -5089.2557      1496.8226      64435.244      95.872585    
     24180   1182.8134     -5324.2156     -5089.5285      1694.62        64420.133      95.856713    
     24190   1185.0316     -5324.9158     -5089.7885      1799.9898      64405.808      95.851866    
     24200   1190.2734     -5326.2133     -5090.046       1823.6627      64392.279      95.856143    
     24210   1189.6661     -5326.3627     -5090.3159      1873.7709      64379.551      95.868535    
     24220   1186.0366     -5325.9342     -5090.6076      1944.932       64367.566      95.887473    
     24230   1182.886      -5325.6141     -5090.9126      1961.8795      64356.146      95.90917     
     24240   1185.0673     -5326.359      -5091.2247      1828.563       64345.069      95.928292    
     24250   1192.8183     -5328.2336     -5091.5614      1550.1497      64334.11       95.940291    
     24260   1192.3475     -5328.5222     -5091.9434      1339.0589      64323.012      95.943301    
     24270   1184.6096     -5327.4185     -5092.375       1261.9491      64311.624      95.936677    
     24280   1176.5529     -5326.2788     -5092.8339      1174.6677      64299.922      95.918632    
     24290   1175.8184     -5326.5967     -5093.2975      1053.165       64287.81       95.888088    
     24300   1181.0126     -5328.0959     -5093.7661      936.5928       64275.15       95.84686     
     24310   1179.6474     -5328.3204     -5094.2615      897.84319      64261.9        95.799024    
     24320   1169.3577     -5326.7893     -5094.772       951.14018      64248.055      95.749057    
     24330   1159.906      -5325.4138     -5095.2718      985.87969      64233.545      95.699641    
     24340   1157.0044     -5325.3051     -5095.7388      977.36584      64218.211      95.649086    
     24350   1154.3268     -5325.1912     -5096.1562      958.49194      64201.903      95.59252     
     24360   1160.8152     -5326.8494     -5096.527       886.20173      64184.565      95.526471    
     24370   1174.9123     -5329.9988     -5096.8794      722.46948      64166.127      95.452754    
     24380   1180.2219     -5331.4288     -5097.2559      670.58194      64146.462      95.375734    
     24390   1173.7854     -5330.5682     -5097.6724      741.50167      64125.605      95.29791     
     24400   1171.0556     -5330.4719     -5098.1177      831.62296      64103.844      95.21941     
     24410   1170.2922     -5330.788      -5098.5852      940.33107      64081.506      95.139242    
     24420   1171.4454     -5331.5094     -5099.0779      1022.3951      64058.873      95.055467    
     24430   1179.0057     -5333.5452     -5099.6135      1092.4421      64036.052      94.965618    
     24440   1189.5246     -5336.2423     -5100.2236      1111.5726      64013.051      94.86958     
     24450   1192.7759     -5337.6138     -5100.95        1196.9745      63989.876      94.770237    
     24460   1181.8198     -5336.2855     -5101.7955      1377.111       63966.685      94.672247    
     24470   1165.5336     -5333.9681     -5102.7096      1559.7219      63943.858      94.580121    
     24480   1161.3406     -5334.0696     -5103.643       1538.5305      63921.823      94.496971    
     24490   1167.6661     -5336.2661     -5104.5844      1354.9227      63900.751      94.422815    
     24500   1172.7386     -5338.233      -5105.5449      1133.3187      63880.436      94.354137    
     24510   1172.366      -5339.1339     -5106.5197      967.22976      63860.426      94.28754     
     24520   1170.5555     -5339.7539     -5107.4989      858.84107      63840.146      94.22149     
     24530   1162.6266     -5339.1405     -5108.4587      866.19048      63818.935      94.154068    
     24540   1142.8342     -5336.0918     -5109.3371      1092.1662      63796.198      94.081629    
     24550   1130.4726     -5334.3779     -5110.076       1275.694       63771.734      93.999698    
     24560   1134.7109     -5335.8007     -5110.6578      1382.9403      63745.616      93.904461    
     24570   1132.9826     -5335.9028     -5111.1028      1514.1352      63717.954      93.793921    
     24580   1124.1513     -5334.4651     -5111.4174      1661.9938      63688.929      93.667716    
     24590   1130.1707     -5335.8461     -5111.604       1718.022       63658.901      93.527286    
     24600   1136.8591     -5337.2574     -5111.6883      1686.7067      63628.267      93.376944    
     24610   1141.6781     -5338.2305     -5111.7052      1633.5945      63597.349      93.222643    
     24620   1150.8319     -5340.0341     -5111.6925      1510.121       63566.135      93.067462    
     24630   1154.3846     -5340.7222     -5111.6757      1370.1243      63534.334      92.911117    
     24640   1152.7549     -5340.394      -5111.671       1187.9034      63501.735      92.75288     
     24650   1151.5414     -5340.16       -5111.6777      1020.9776      63468.168      92.590226    
     24660   1151.7118     -5340.2102     -5111.6941      831.45195      63433.412      92.421615    
     24670   1149.7975     -5339.8579     -5111.7216      730.86477      63397.214      92.249883    
     24680   1150.4389     -5340.0205     -5111.757       608.4454       63359.472      92.079981    
     24690   1152.7301     -5340.5208     -5111.8026      575.03947      63320.235      91.915402    
     24700   1146.2925     -5339.2936     -5111.8527      689.49795      63279.73       91.757428    
     24710   1133.2544     -5336.7477     -5111.8938      920.00675      63238.351      91.606389    
     24720   1125.5617     -5335.2092     -5111.8817      1079.914       63196.62       91.46142     
     24730   1134.4891     -5336.9019     -5111.803       1105.4141      63154.946      91.320832    
     24740   1155.5391     -5340.9723     -5111.6968      967.54029      63113.525      91.183386    
     24750   1171.7416     -5344.1177     -5111.6274      942.30156      63072.339      91.047432    
     24760   1174.3123     -5344.6494     -5111.649       1132.8181      63031.407      90.910349    
     24770   1160.0423     -5341.9391     -5111.7701      1536.0611      62990.929      90.769969    
     24780   1136.333      -5337.3911     -5111.9264      2050.6702      62951.299      90.626428    
     24790   1130.2318     -5336.3247     -5112.0705      2336.0513      62912.887      90.480144    
     24800   1147.1586     -5339.8019     -5112.1892      2305.3882      62875.768      90.33007     
     24810   1166.6817     -5343.8273     -5112.3409      2074.3447      62839.869      90.17602     
     24820   1179.6678     -5346.6599     -5112.5969      1812.7672      62805.056      90.020059    
     24830   1181.3296     -5347.4139     -5113.0212      1576.5836      62771.057      89.864465    
     24840   1170.3332     -5345.8396     -5113.6287      1438.5043      62737.517      89.710508    
     24850   1154.1156     -5343.3962     -5114.4032      1395.6696      62704.131      89.558119    
     24860   1140.7691     -5341.6523     -5115.3074      1368.21        62670.636      89.406986    
     24870   1132.5718     -5341.0404     -5116.3219      1374.0121      62636.705      89.257139    
     24880   1130.8332     -5341.7959     -5117.4224      1409.507       62602.117      89.1087      
     24890   1139.9391     -5344.7966     -5118.6164      1411.4371      62566.847      88.96207     
     24900   1157.6442     -5349.6379     -5119.9447      1376.8952      62530.937      88.818703    
     24910   1165.5281     -5352.6844     -5121.427       1436.1915      62494.421      88.680634    
     24920   1160.8472     -5353.3315     -5123.0028      1604.5748      62457.442      88.548883    
     24930   1164.4593     -5355.6138     -5124.5684      1682.9609      62420.273      88.423851    
     24940   1166.6952     -5357.5151     -5126.0261      1685.1818      62383.02       88.3041      
     24950   1150.0014     -5355.446      -5127.2693      1832.1856      62345.585      88.185262    
     24960   1129.1143     -5352.252      -5128.2195      1970.9043      62308.064      88.061709    
     24970   1117.3011     -5350.5736     -5128.8851      2012.6291      62270.634      87.929349    
     24980   1117.0901     -5350.9863     -5129.3396      1925.8184      62233.385      87.78838     
     24990   1118.7054     -5351.6334     -5129.6663      1798.6829      62196.315      87.641574    
     25000   1112.7364     -5350.6897     -5129.9069      1778.327       62159.379      87.491804    
     25010   1106.5967     -5349.6405     -5130.0759      1778.7043      62122.575      87.342054    
     25020   1105.4798     -5349.524      -5130.181       1775.9828      62085.851      87.195423    
     25030   1112.639      -5350.9889     -5130.2254      1715.3755      62049.125      87.054517    
     25040   1131.7746     -5354.807      -5130.2467      1525.6176      62012.227      86.919285    
     25050   1154.4566     -5359.3733     -5130.3126      1280.905       61974.846      86.788022    
     25060   1167.1641     -5362.0756     -5130.4935      1167.5433      61936.666      86.658952    
     25070   1162.9894     -5361.5918     -5130.838       1250.3518      61897.606      86.530148    
     25080   1148.0346     -5359.1162     -5131.3297      1454.6051      61857.736      86.400598    
     25090   1136.5554     -5357.4272     -5131.9184      1622.0822      61817.083      86.270868    
     25100   1134.5935     -5357.7001     -5132.5805      1697.4661      61775.682      86.142598    
     25110   1131.5174     -5357.8033     -5133.2941      1766.386       61733.708      86.017679    
     25120   1124.7242     -5357.1995     -5134.0381      1826.3638      61691.612      85.898109    
     25130   1118.826      -5356.7871     -5134.796       1881.7051      61649.978      85.784591    
     25140   1109.9773     -5355.772      -5135.5366      1942.0133      61609.301      85.675622    
     25150   1103.6083     -5355.2146     -5136.2429      1946.6208      61569.882      85.569325    
     25160   1104.7088     -5356.095      -5136.9049      1909.3936      61531.74       85.464751    
     25170   1102.9166     -5356.366      -5137.5315      1883.0105      61494.679      85.361241    
     25180   1093.0887     -5354.9905     -5138.106       1990.9753      61458.514      85.25907     
     25190   1083.6817     -5353.6274     -5138.6095      2158.9631      61423.168      85.159549    
     25200   1077.2213     -5352.7485     -5139.0124      2351.862       61388.693      85.064439    
     25210   1078.4674     -5353.2894     -5139.3061      2475.8963      61355.143      84.973918    
     25220   1090.8269     -5355.9474     -5139.5117      2412.3678      61322.42       84.88744     
     25230   1103.9182     -5358.7042     -5139.671       2374.3808      61290.128      84.80464     
     25240   1109.4599     -5359.9581     -5139.8254      2405.1073      61257.789      84.725079    
     25250   1102.5056     -5358.7357     -5139.9828      2504.5595      61225.188      84.648482    
     25260   1096.9787     -5357.7836     -5140.1273      2476.6961      61192.505      84.575033    
     25270   1104.8843     -5359.4725     -5140.2477      2323.3567      61160.085      84.505132    
     25280   1120.7283     -5362.7424     -5140.3739      2072.9319      61128.165      84.438905    
     25290   1132.6916     -5365.3055     -5140.5633      1968.6843      61096.772      84.376266    
     25300   1136.0895     -5366.2852     -5140.8687      1963.5862      61065.878      84.317025    
     25310   1128.2432     -5365.1693     -5141.3097      2094.3861      61035.423      84.259078    
     25320   1118.0695     -5363.7041     -5141.8631      2198.6825      61005.431      84.198314    
     25330   1123.8501     -5365.5055     -5142.5175      2127.4281      60975.973      84.1299      
     25340   1134.0335     -5368.3121     -5143.3036      1934.7         60946.987      84.051616    
     25350   1140.2412     -5370.5046     -5144.2645      1762.3276      60918.222      83.966299    
     25360   1140.6236     -5371.7219     -5145.4059      1632.3661      60889.529      83.881129    
     25370   1132.1504     -5371.3231     -5146.6883      1562.2341      60860.927      83.803164    
     25380   1115.5035     -5369.3525     -5148.0207      1581.0143      60832.537      83.736752    
     25390   1095.7102     -5366.6847     -5149.2801      1577.8456      60804.456      83.683232    
     25400   1084.2746     -5365.5146     -5150.379       1509.2188      60776.644      83.639743    
     25410   1083.8511     -5366.3412     -5151.2896      1379.0714      60748.927      83.600405    
     25420   1088.0923     -5367.9185     -5152.0254      1215.845       60721.12       83.559965    
     25430   1094.7307     -5369.8451     -5152.6348      1111.9311      60693.121      83.515172    
     25440   1095.0218     -5370.4244     -5153.1564      1059.4024      60664.933      83.463773    
     25450   1092.4132     -5370.3567     -5153.6063      1078.709       60636.606      83.404419    
     25460   1095.5274     -5371.377      -5154.0086      1176.0907      60608.223      83.339736    
     25470   1092.9906     -5371.2374     -5154.3724      1333.8616      60579.899      83.274991    
     25480   1089.7887     -5370.9368     -5154.7071      1527.0609      60551.695      83.213486    
     25490   1096.1509     -5372.5151     -5155.0231      1655.7313      60523.63       83.15586     
     25500   1099.4837     -5373.4966     -5155.3433      1831.9547      60495.74       83.102376    
     25510   1091.0637     -5372.1559     -5155.6732      2157.6143      60468.149      83.052121    
     25520   1078.6258     -5370.0059     -5155.9911      2449.4982      60441.136      83.003416    
     25530   1074.0421     -5369.373      -5156.2677      2578.3381      60414.988      82.955043    
     25540   1074.3921     -5369.6785     -5156.5037      2607.6285      60389.798      82.906447    
     25550   1068.1704     -5368.634      -5156.6937      2627.8519      60365.483      82.856999    
     25560   1059.0717     -5366.9645     -5156.8295      2646.4082      60341.99       82.805852    
     25570   1059.1618     -5367.0417     -5156.8889      2531.8547      60319.303      82.751799    
     25580   1072.0839     -5369.6012     -5156.8844      2284.2331      60297.23       82.693409    
     25590   1082.7363     -5371.6835     -5156.8531      2089.027       60275.438      82.631227    
     25600   1079.3034     -5370.9642     -5156.815       2088.4882      60253.742      82.566744    
     25610   1075.6444     -5370.1996     -5156.7763      2100.5613      60232.118      82.499651    
     25620   1082.0187     -5371.4205     -5156.7325      2049.7164      60210.424      82.427443    
     25630   1088.6404     -5372.7026     -5156.7008      1951.2328      60188.284      82.346901    
     25640   1090.6249     -5373.1033     -5156.7077      1954.6047      60165.262      82.255567    
     25650   1095.7289     -5374.1719     -5156.7636      1967.3599      60141.131      82.152133    
     25660   1101.3353     -5375.4159     -5156.8952      2132.8308      60115.896      82.038389    
     25670   1102.4719     -5375.8715     -5157.1252      2375.9127      60089.774      81.919196    
     25680   1102.1502     -5376.156      -5157.4736      2580.1397      60063.169      81.800208    
     25690   1099.8295     -5376.182      -5157.9601      2826.9307      60036.599      81.686967    
     25700   1091.3557     -5375.1328     -5158.5922      2978.3375      60010.581      81.583541    
     25710   1082.6357     -5374.1752     -5159.3647      3042.7905      59985.478      81.49058     
     25720   1074.7979     -5373.5189     -5160.2636      2981.4975      59961.433      81.406579    
     25730   1060.7263     -5371.7109     -5161.2476      2955.2377      59938.356      81.329069    
     25740   1047.057      -5370.0106     -5162.2595      2908.3549      59916.103      81.256388    
     25750   1045.8067     -5370.7394     -5163.2364      2814.8341      59894.604      81.188149    
     25760   1052.4761     -5372.9883     -5164.162       2704.8997      59873.854      81.12454     
     25770   1054.3058     -5374.2268     -5165.0374      2724.3484      59853.906      81.064962    
     25780   1051.3371     -5374.4458     -5165.8455      2825.2195      59834.912      81.008379    
     25790   1046.8379     -5374.2766     -5166.569       2953.4585      59817.006      80.954115    
     25800   1047.5614     -5375.0468     -5167.1956      3004.9227      59800.214      80.901593    
     25810   1057.6695     -5377.5959     -5167.7392      2902.3817      59784.358      80.850398    
     25820   1067.117      -5379.9668     -5168.2355      2788.4539      59769.113      80.800548    
     25830   1076.49       -5382.3091     -5168.7181      2675.9909      59754.181      80.754062    
     25840   1086.0512     -5384.7063     -5169.2182      2544.3648      59739.375      80.714854    
     25850   1083.722      -5384.7876     -5169.7616      2551.7517      59724.58       80.685413    
     25860   1069.0287     -5382.434      -5170.3233      2662.1638      59709.77       80.666026    
     25870   1059.155      -5381.0068     -5170.8553      2716.5204      59694.961      80.656499    
     25880   1059.3271     -5381.5247     -5171.339       2744.6995      59680.047      80.656974    
     25890   1059.5571     -5382.0044     -5171.7731      2771.5103      59664.871      80.666426    
     25900   1060.3891     -5382.5636     -5172.1672      2824.5026      59649.325      80.681185    
     25910   1063.939      -5383.6293     -5172.5285      2834.7665      59633.418      80.696119    
     25920   1071.6757     -5385.5094     -5172.8736      2832.4188      59617.195      80.707318    
     25930   1078.3834     -5387.1973     -5173.2305      2797.5467      59600.734      80.714271    
     25940   1077.649      -5387.4379     -5173.6169      2791.0648      59584.109      80.718116    
     25950   1073.0283     -5386.9299     -5174.0257      2778.5209      59567.417      80.720278    
     25960   1063.3783     -5385.427      -5174.4375      2781.7847      59550.773      80.721298    
     25970   1046.6223     -5382.4845     -5174.8196      2807.66        59534.284      80.720255    
     25980   1035.2007     -5380.5278     -5175.1292      2819.0057      59518.026      80.714914    
     25990   1037.5393     -5381.2181     -5175.3555      2697.9029      59502.024      80.703456    
     26000   1049.2773     -5383.7113     -5175.5197      2545.4933      59486.166      80.685198    
     26010   1059.2272     -5385.8328     -5175.6669      2509.734       59470.231      80.661057    
     26020   1058.8853     -5385.9298     -5175.8318      2639.6696      59454.051      80.632682    
     26030   1052.8369     -5384.9088     -5176.0109      2892.4263      59437.669      80.60296     
     26040   1045.0297     -5383.5304     -5176.1815      3169.8457      59421.366      80.575512    
     26050   1041.6035     -5383.0012     -5176.3322      3298.6032      59405.56       80.551789    
     26060   1046.0855     -5384.0149     -5176.4566      3233.0301      59390.604      80.531666    
     26070   1055.5035     -5386.0056     -5176.5786      3014.4255      59376.505      80.514712    
     26080   1067.9221     -5388.627      -5176.7359      2704.154       59362.92       80.500434    
     26090   1075.3602     -5390.339      -5176.9721      2470.3703      59349.341      80.488171    
     26100   1066.4466     -5388.9005     -5177.3022      2451.8904      59335.399      80.478809    
     26110   1048.5853     -5385.743      -5177.6887      2565.0247      59321.05       80.474249    
     26120   1037.7832     -5383.9915     -5178.0804      2707.6945      59306.442      80.474611    
     26130   1029.3046     -5382.6757     -5178.4469      2849.5565      59291.827      80.478307    
     26140   1016.9776     -5380.5399     -5178.757       3071.3669      59277.488      80.483797    
     26150   1009.2174     -5379.2271     -5178.9839      3273.6185      59263.775      80.49054     
     26160   1009.2515     -5379.3604     -5179.1104      3354.1318      59251.066      80.498748    
     26170   1024.3025     -5382.3853     -5179.149       3239.5745      59239.558      80.508387    
     26180   1049.2114     -5387.3339     -5179.1553      2968.2841      59229.145      80.519158    
     26190   1063.5378     -5390.2167     -5179.1955      2788.5748      59219.56       80.530144    
     26200   1071.6897     -5391.9712     -5179.3326      2609.9838      59210.669      80.54019     
     26210   1079.8077     -5393.8579     -5179.6086      2429.945       59202.362      80.549414    
     26220   1079.6417     -5394.2747     -5180.0583      2368.9168      59194.481      80.558712    
     26230   1068.636      -5392.7256     -5180.6929      2420.4718      59186.952      80.567085    
     26240   1050.9184     -5389.9955     -5181.4782      2580.4575      59179.817      80.571825    
     26250   1035.7106     -5387.859      -5182.3592      2744.3717      59173.144      80.569822    
     26260   1031.9672     -5388.0472     -5183.2902      2825.8459      59166.93       80.558743    
     26270   1032.8557     -5389.1869     -5184.2535      2851.8571      59161.178      80.538322    
     26280   1025.1973     -5388.6357     -5185.2219      2945.6356      59155.99       80.510445    
     26290   1016.3819     -5387.8055     -5186.1408      3057.719       59151.575      80.480055    
     26300   1021.1075     -5389.5773     -5186.9749      2935.7846      59148.081      80.454086    
     26310   1029.1463     -5391.9265     -5187.7291      2795.9588      59145.395      80.437515    
     26320   1020.1657     -5390.8063     -5188.3908      2816.7636      59143.223      80.43204     
     26330   998.1684      -5386.9709     -5188.92        3047.8656      59141.431      80.438733    
     26340   981.58881     -5384.0284     -5189.2672      3237.3052      59140.133      80.458243    
     26350   977.52693     -5383.3799     -5189.4245      3220.6005      59139.316      80.489311    
     26360   988.44493     -5385.546      -5189.4244      3086.731       59138.768      80.528699    
     26370   1006.523      -5389.0389     -5189.3304      2859.6613      59138.263      80.571889    
     26380   1014.1591     -5390.4305     -5189.2068      2687.4166      59137.627      80.614321    
     26390   1013.8599     -5390.2485     -5189.0842      2628.8528      59136.851      80.653637    
     26400   1012.2572     -5389.8087     -5188.9624      2611.1581      59136.048      80.689979    
     26410   1007.6868     -5388.7786     -5188.8391      2683.4256      59135.23       80.724246    
     26420   995.49141     -5386.2144     -5188.6946      2868.394       59134.289      80.757055    
     26430   984.4958      -5383.8329     -5188.4948      3053.6733      59133.128      80.789854    
     26440   991.80999     -5385.011      -5188.2217      2984.128       59131.615      80.826205    
     26450   1011.6178     -5388.6105     -5187.891       2730.626       59129.458      80.868701    
     26460   1023.6784     -5390.6678     -5187.5554      2521.6824      59126.307      80.917219    
     26470   1022.7701     -5390.1859     -5187.2537      2496.3866      59122.012      80.970295    
     26480   1021.5436     -5389.682      -5186.9931      2502.5562      59116.703      81.026904    
     26490   1028.4384     -5390.825      -5186.768       2512.5863      59110.62       81.085962    
     26500   1040.7761     -5393.1017     -5186.5968      2433.7223      59103.972      81.145818    
     26510   1048.9313     -5394.6401     -5186.5171      2336.6937      59096.916      81.204153    
     26520   1050.0829     -5394.9133     -5186.5618      2356.222       59089.562      81.257662    
     26530   1047.1239     -5394.505      -5186.7406      2397.9371      59082.075      81.302506    
     26540   1046.699      -5394.7328     -5187.0527      2406.951       59074.609      81.336192    
     26550   1047.082      -5395.259      -5187.503       2360.7909      59067.199      81.358533    
     26560   1043.2273     -5395.0906     -5188.0993      2375.8032      59059.753      81.370356    
     26570   1037.465      -5394.6738     -5188.8259      2434.3696      59052.157      81.372116    
     26580   1027.3722     -5393.5009     -5189.6555      2554.5693      59044.338      81.363886    
     26590   1012.832      -5391.4929     -5190.5325      2741.8267      59036.264      81.34668     
     26600   1006.3535     -5391.0798     -5191.4049      2882.2476      59027.905      81.322363    
     26610   1013.7053     -5393.3844     -5192.2507      2873.6271      59019.126      81.293425    
     26620   1023.7343     -5396.2064     -5193.0829      2822.3017      59009.744      81.262872    
     26630   1028.9603     -5398.0803     -5193.9199      2829.999       58999.685      81.232617    
     26640   1025.241      -5398.173      -5194.7505      2879.9213      58989.062      81.203238    
     26650   1017.8385     -5397.5028     -5195.5491      2956.0097      58978.17       81.175166    
     26660   1017.3488     -5398.1536     -5196.297       2946.2541      58967.366      81.148454    
     26670   1017.6643     -5398.908      -5196.9888      2943.0645      58956.869      81.122871    
     26680   1012.6316     -5398.552      -5197.6314      2945.0975      58946.792      81.099209    
     26690   1002.2084     -5397.0623     -5198.2098      3014.5941      58937.236      81.078891    
     26700   994.8009      -5396.0907     -5198.708       2985.3063      58928.288      81.063794    
     26710   998.76277     -5397.3018     -5199.1329      2781.2192      58919.802      81.055117    
     26720   1012.8286     -5400.4801     -5199.5204      2458.2301      58911.413      81.052789    
     26730   1022.9217     -5402.8865     -5199.9242      2188.9057      58902.698      81.055891    
     26740   1020.6326     -5402.8821     -5200.374       2159.7931      58893.292      81.062449    
     26750   1011.0662     -5401.4696     -5200.8596      2272.7727      58883.085      81.070578    
     26760   1002.1847     -5400.2029     -5201.3551      2391.3344      58872.242      81.079297    
     26770   993.51388     -5398.9625     -5201.8351      2502.8616      58861.05       81.088666    
     26780   987.13892     -5398.1422     -5202.2797      2612.8456      58849.812      81.099334    
     26790   991.1339      -5399.3394     -5202.6842      2646.6965      58838.791      81.112114    
     26800   1000.5095     -5401.5872     -5203.0717      2618.0036      58828.101      81.127643    
     26810   1002.8961     -5402.4628     -5203.4738      2637.7779      58817.788      81.14553     
     26820   997.34059     -5401.7798     -5203.8931      2743.8959      58808.009      81.164118    
     26830   993.12071     -5401.3715     -5204.3221      2837.9737      58799.032      81.180986    
     26840   997.76075     -5402.7261     -5204.7561      2761.191       58790.949      81.194417    
     26850   1006.2449     -5404.8743     -5205.2209      2563.9335      58783.45       81.204663    
     26860   1011.1379     -5406.3647     -5205.7405      2366.4007      58775.996      81.213093    
     26870   1010.8694     -5406.902      -5206.331       2240.8814      58768.116      81.220419    
     26880   1003.356      -5406.0597     -5206.9795      2211.6748      58759.588      81.226882    
     26890   992.11956     -5404.5073     -5207.6566      2237.8294      58750.367      81.233056    
     26900   980.8817      -5402.9425     -5208.3215      2379.2898      58740.576      81.240465    
     26910   967.27339     -5400.8438     -5208.9229      2625.004       58730.554      81.250718    
     26920   961.88284     -5400.282      -5209.4307      2813.7345      58720.744      81.264101    
     26930   971.65804     -5402.6426     -5209.8517      2848.9952      58711.528      81.279805    
     26940   986.3989      -5405.9381     -5210.2224      2775.0405      58703.102      81.296497    
     26950   993.77175     -5407.7699     -5210.5913      2739.9764      58695.548      81.313273    
     26960   993.89919     -5408.1848     -5210.981       2808.1265      58688.946      81.330309    
     26970   989.42892     -5407.7076     -5211.3908      2920.4076      58683.308      81.348251    
     26980   985.81555     -5407.4103     -5211.8104      2966.8857      58678.542      81.368132    
     26990   984.18294     -5407.5048     -5212.2288      2953.6274      58674.497      81.391083    
     27000   985.93471     -5408.2654     -5212.6418      2857.6198      58671.024      81.417512    
     27010   993.0961      -5410.1107     -5213.0662      2639.4508      58667.905      81.446797    
     27020   992.44011     -5410.4312     -5213.5168      2484.55        58664.816      81.477388    
     27030   983.22152     -5409.0714     -5213.9862      2455.0753      58661.445      81.505825    
     27040   974.00418     -5407.6978     -5214.4414      2400.933       58657.544      81.527438    
     27050   966.20273     -5406.568      -5214.8595      2393.1473      58652.884      81.538407    
     27060   959.32782     -5405.5631     -5215.2187      2407.0867      58647.327      81.536628    
     27070   956.68661     -5405.328      -5215.5077      2431.6022      58640.83       81.520866    
     27080   957.48084     -5405.7092     -5215.7313      2420.6119      58633.439      81.491842    
     27090   959.4226      -5406.2593     -5215.8961      2479.8916      58625.293      81.453679    
     27100   965.63922     -5407.6194     -5216.0227      2455.601       58616.517      81.411611    
     27110   969.83925     -5408.5613     -5216.1313      2483.7417      58607.05       81.36911     
     27120   965.22722     -5407.752      -5216.237       2548.7543      58596.864      81.32896     
     27130   958.16678     -5406.442      -5216.328       2644.4308      58586.056      81.294736    
     27140   960.99298     -5407.0712     -5216.3964      2606.0861      58574.795      81.269479    
     27150   969.28135     -5408.7708     -5216.4515      2477.4734      58563.091      81.25329     
     27160   973.24557     -5409.6244     -5216.5185      2346.7615      58550.804      81.242845    
     27170   970.29119     -5409.1315     -5216.6118      2385.4257      58537.809      81.233697    
     27180   964.64446     -5408.1229     -5216.7236      2498.0425      58524.227      81.223741    
     27190   962.63157     -5407.8354     -5216.8356      2611.4936      58510.296      81.213243    
     27200   968.36041     -5409.0875     -5216.9509      2668.1022      58496.205      81.201586    
     27210   977.41108     -5411.0222     -5217.0899      2678.2569      58481.987      81.18715     
     27220   979.56655     -5411.6364     -5217.2763      2727.1608      58467.583      81.17013     
     27230   973.13611     -5410.6003     -5217.5162      2857.1437      58453          81.152503    
     27240   964.20907     -5409.0989     -5217.786       2955.4827      58438.414      81.136022    
     27250   961.09192     -5408.7568     -5218.0624      2958.3318      58424.039      81.121114    
     27260   967.05804     -5410.218      -5218.3399      2829.0636      58409.947      81.107828    
     27270   979.02121     -5412.895      -5218.6432      2642.4065      58396.003      81.096344    
     27280   991.67801     -5415.7833     -5219.0202      2460.2409      58382.003      81.086881    
     27290   997.13936     -5417.3408     -5219.4941      2377.654       58367.767      81.080479    
     27300   989.66567     -5416.4377     -5220.0739      2468.227       58353.231      81.079122    
     27310   970.6623      -5413.2986     -5220.7053      2695.9121      58338.527      81.084967    
     27320   949.95771     -5409.7881     -5221.3029      2957.8766      58323.955      81.097879    
     27330   938.00951     -5407.9237     -5221.8092      3088.9992      58309.813      81.115491    
     27340   935.71208     -5407.8607     -5222.202       3093.9132      58296.274      81.135123    
     27350   937.47741     -5408.4957     -5222.4868      3020.4117      58283.364      81.154752    
     27360   942.79424     -5409.7573     -5222.6934      2879.3737      58270.994      81.172928    
     27370   950.71331     -5411.4873     -5222.8522      2683.2309      58258.954      81.188305    
     27380   956.09872     -5412.7028     -5222.9991      2568.2283      58246.978      81.199395    
     27390   953.20279     -5412.2758     -5223.1467      2503.1604      58234.919      81.205443    
     27400   945.37544     -5410.8666     -5223.2905      2502.669       58222.763      81.205713    
     27410   941.01632     -5410.1268     -5223.4157      2492.9533      58210.608      81.200265    
     27420   933.6595      -5408.7675     -5223.516       2561.9695      58198.568      81.190952    
     27430   921.90833     -5406.4885     -5223.5687      2642.9338      58186.797      81.180131    
     27440   918.94257     -5405.8865     -5223.5551      2644.6024      58175.294      81.168602    
     27450   929.72332     -5407.9523     -5223.4818      2505.6511      58163.857      81.156872    
     27460   947.57148     -5411.3928     -5223.3811      2364.2783      58152.177      81.146192    
     27470   965.58222     -5414.8923     -5223.307       2315.4935      58140.054      81.137424    
     27480   977.02339     -5417.1742     -5223.3188      2321.161       58127.442      81.130249    
     27490   983.66125     -5418.6302     -5223.4578      2428.3035      58114.382      81.123667    
     27500   988.69361     -5419.9208     -5223.7498      2542.7102      58101.001      81.11599     
     27510   984.25927     -5419.4993     -5224.2081      2738.9841      58087.55       81.104763    
     27520   968.35644     -5416.9391     -5224.8033      3011.8466      58074.487      81.087008    
     27530   959.29957     -5415.8214     -5225.4826      3095.7432      58062.313      81.060149    
     27540   960.32431     -5416.7626     -5226.2205      2938.301       58051.209      81.023728    
     27550   966.3474      -5418.7537     -5227.0165      2664.6463      58040.973      80.979057    
     27560   971.8933      -5420.7118     -5227.8742      2397.4259      58031.194      80.928806    
     27570   971.11675     -5421.468      -5228.7845      2225.4456      58021.387      80.876365    
     27580   961.35006     -5420.454      -5229.7084      2252.3517      58011.192      80.825512    
     27590   940.46628     -5417.1742     -5230.5722      2455.5851      58000.512      80.77965     
     27600   919.05674     -5413.656      -5231.302       2674.8035      57989.442      80.740878    
     27610   913.69629     -5413.1609     -5231.8705      2743.0314      57978.053      80.708366    
     27620   922.34269     -5415.3098     -5232.3038      2611.2275      57966.23       80.678387    
     27630   933.12419     -5417.803      -5232.6578      2456.8006      57953.712      80.648378    
     27640   940.32752     -5419.5604     -5232.986       2348.1448      57940.231      80.618342    
     27650   943.04727     -5420.4316     -5233.3176      2329.8751      57925.634      80.588536    
     27660   940.42063     -5420.2603     -5233.6673      2410.9359      57909.929      80.556688    
     27670   931.90341     -5418.9261     -5234.0232      2584.91        57893.356      80.519418    
[...]
     48200   735.53983     -5461.9823     -5316.0407     -335.51839      60059.283      127.43306    
     48210   729.22766     -5460.6383     -5315.9491     -264.44182      60041.196      127.38042    
     48220   726.98357     -5460.0015     -5315.7575     -242.9342       60021.52       127.32037    
     48230   730.96423     -5460.4728     -5315.439      -312.74932      60000.377      127.25451    
     48240   738.31536     -5461.4843     -5314.9919     -363.70559      59977.39       127.18376    
     48250   745.31803     -5462.3042     -5314.4224     -384.32491      59952.214      127.10965    
     48260   752.42922     -5463.0483     -5313.7556     -354.39267      59924.765      127.03409    
     48270   760.67665     -5463.9478     -5313.0186     -355.26545      59895.206      126.95867    
     48280   768.34999     -5464.7128     -5312.2611     -337.28637      59863.596      126.88395    
     48290   772.03666     -5464.7124     -5311.5293     -248.5794       59830.129      126.81086    
     48300   771.26776     -5463.8895     -5310.859      -93.467974      59795.433      126.74142    
     48310   769.41699     -5462.922      -5310.2586      72.24645       59760.509      126.6779     
     48320   768.96388     -5462.302      -5309.7286      178.8311       59726.413      126.62146    
     48330   769.01799     -5461.8585     -5309.2743      258.3626       59693.861      126.57184    
     48340   766.98467     -5461.0719     -5308.8912      310.52202      59663.344      126.52846    
     48350   763.22868     -5460.0081     -5308.5726      359.20837      59635.211      126.49055    
     48360   760.25677     -5459.1533     -5308.3075      383.6717       59609.736      126.45759    
     48370   759.5025      -5458.7765     -5308.0803      328.99043      59586.999      126.4299     
     48380   762.38813     -5459.1588     -5307.8901      245.02538      59566.661      126.40798    
     48390   767.73679     -5460.0732     -5307.7433      170.02699      59548.176      126.39211    
     48400   770.92613     -5460.6292     -5307.6664      147.55794      59531.032      126.38216    
     48410   770.27608     -5460.5021     -5307.6683      230.72997      59515.104      126.37773    
     48420   765.80881     -5459.699      -5307.7515      343.91761      59500.867      126.37854    
     48430   760.21902     -5458.7487     -5307.9103      482.89782      59489.068      126.38463    
     48440   756.89411     -5458.3066     -5308.128       582.76842      59480.554      126.3965     
     48450   757.85042     -5458.7743     -5308.4059      616.36972      59475.944      126.41464    
     48460   763.835       -5460.3186     -5308.7628      538.28826      59475.405      126.43861    
     48470   773.82205     -5462.7825     -5309.2451      424.94314      59478.43       126.46636    
     48480   782.495       -5465.1716     -5309.9134      304.03453      59484.249      126.49579    
     48490   784.74996     -5466.5321     -5310.8265      241.12507      59492.095      126.52562    
     48500   779.31158     -5466.616      -5311.9894      232.82467      59501.513      126.55533    
     48510   769.53507     -5466.0154     -5313.3286      196.98206      59512.391      126.58453    
     48520   759.71826     -5465.4426     -5314.7036      148.52435      59524.513      126.61268    
     48530   751.74911     -5465.1266     -5315.9688      81.615204      59537.526      126.63951    
     48540   746.21066     -5465.0889     -5317.03        18.545646      59551.011      126.66561    
     48550   743.9013      -5465.4609     -5317.8603     -79.074807      59564.525      126.69239    
     48560   743.46783     -5466.0007     -5318.4861     -210.524        59577.387      126.72113    
     48570   742.31737     -5466.2454     -5318.959      -275.71555      59588.82       126.75229    
     48580   739.06243     -5465.9546     -5319.314      -286.47673      59598.393      126.78576    
     48590   736.39104     -5465.684      -5319.5734     -284.57802      59606.024      126.82158    
     48600   738.87966     -5466.3593     -5319.7549     -311.05071      59611.686      126.85973    
     48610   743.41935     -5467.385      -5319.88       -341.68161      59615.215      126.90015    
     48620   746.6455      -5468.1141     -5319.969      -332.15616      59616.434      126.94218    
     48630   748.53993     -5468.5664     -5320.0454     -266.07651      59615.452      126.98503    
     48640   749.95755     -5468.915      -5320.1127     -173.55844      59612.729      127.02838    
     48650   751.25825     -5469.2395     -5320.1791     -64.284416      59608.897      127.07293    
     48660   752.53472     -5469.5654     -5320.2518      21.805118      59604.658      127.12005    
     48670   753.0978      -5469.7621     -5320.3367      142.0374       59600.642      127.17111    
     48680   751.76925     -5469.5936     -5320.4318      218.90114      59597.582      127.22735    
     48690   749.46752     -5469.2421     -5320.537       266.67267      59595.992      127.28905    
     48700   748.732       -5469.2029     -5320.6437      278.13311      59596.172      127.35553    
     48710   750.48307     -5469.6552     -5320.7486      233.1727       59598.193      127.4255     
     48720   753.76719     -5470.4125     -5320.8543      145.33532      59601.755      127.49727    
     48730   756.85582     -5471.1467     -5320.9757      2.9107498      59606.217      127.56909    
     48740   757.84278     -5471.488      -5321.1212     -94.480906      59610.68       127.63897    
     48750   754.16494     -5470.9384     -5321.3012     -136.23183      59614.498      127.70522    
     48760   745.56958     -5469.4325     -5321.5008     -102.82573      59617.412      127.76661    
     48770   734.57706     -5467.441      -5321.6904      8.5033134      59619.673      127.82248    
     48780   724.65952     -5465.6093     -5321.8264      90.002405      59621.95       127.87316    
     48790   719.12888     -5464.5582     -5321.8728      146.29059      59624.789      127.91936    
     48800   718.13847     -5464.292      -5321.803       214.03327      59628.602      127.96231    
     48810   718.81932     -5464.2286     -5321.6046      286.9378       59633.807      128.00333    
     48820   719.65109     -5464.0562     -5321.2671      357.71291      59640.872      128.04318    
     48830   723.18133     -5464.2708     -5320.7812      394.05         59650.247      128.08197    
     48840   730.33738     -5465.0585     -5320.1491      394.75099      59662.158      128.11985    
     48850   739.44828     -5466.1091     -5319.392       351.52957      59676.573      128.15741    
     48860   750.51415     -5467.4641     -5318.5514      280.63643      59693.19       128.19556    
     48870   761.72592     -5468.8268     -5317.6895      172.87056      59711.525      128.23548    
     48880   767.91448     -5469.2366     -5316.8713      103.09147      59730.908      128.27769    
     48890   767.19978     -5468.3723     -5316.1489      73.478909      59750.834      128.32245    
     48900   762.76988     -5466.8734     -5315.5289      78.574972      59771.109      128.37043    
     48910   759.1621      -5465.6309     -5315.0022      66.461892      59791.749      128.42223    
     48920   758.47016     -5465.0372     -5314.5459     -6.044553       59812.639      128.47753    
     48930   758.39685     -5464.6304     -5314.1536     -110.2461       59833.311      128.53467    
     48940   757.10451     -5464.0389     -5313.8186     -179.94907      59853.128      128.59171    
     48950   756.52445     -5463.6394     -5313.5341     -253.93827      59871.6        128.64724    
     48960   756.13626     -5463.3245     -5313.2962     -311.47515      59888.254      128.70022    
     48970   751.96201     -5462.2936     -5313.0935     -297.58861      59902.732      128.75053    
     48980   743.8142      -5460.4933     -5312.9099     -183.815        59915.17       128.79995    
     48990   734.64283     -5458.4762     -5312.7125     -47.476549      59926.3        128.85198    
     49000   727.21698     -5456.759      -5312.4688      58.94087       59937.013      128.91011    
     49010   723.83857     -5455.7743     -5312.1544      132.06859      59948.036      128.97643    
     49020   726.3393      -5455.8724     -5311.7563      128.09031      59959.839      129.05117    
     49030   734.45061     -5457.0121     -5311.2866      43.769458      59972.383      129.13227    
     49040   744.33533     -5458.4659     -5310.7792     -78.232723      59985.13       129.21583    
     49050   752.72689     -5459.6257     -5310.2739     -202.54477      59997.286      129.29691    
     49060   759.42884     -5460.4944     -5309.8128     -321.99597      60008.007      129.37106    
     49070   763.28173     -5460.8723     -5309.4263     -412.28555      60016.508      129.43505    
     49080   762.17416     -5460.3527     -5309.1264     -405.31227      60022.269      129.48717    
     49090   757.04777     -5459.1178     -5308.9087     -316.81204      60025.329      129.52694    
     49100   753.04749     -5458.1591     -5308.7436     -214.75029      60026.251      129.55468    
     49110   753.08204     -5458.0349     -5308.6126     -136.34626      60025.708      129.5712     
     49120   755.05198     -5458.3202     -5308.5071     -38.85615       60024.276      129.57778    
     49130   757.00001     -5458.6326     -5308.4329     -41.890158      60022.517      129.57623    
     49140   760.35437     -5459.257      -5308.3918     -70.082972      60020.501      129.56799    
     49150   764.40005     -5460.0612     -5308.3932     -121.67198      60018.004      129.55407    
     49160   766.20366     -5460.472      -5308.4463     -197.86098      60014.655      129.53552    
     49170   765.74438     -5460.4878     -5308.5531     -234.99596      60010.003      129.51368    
     49180   764.41548     -5460.3732     -5308.7022     -277.96937      60003.795      129.49072    
     49190   763.09205     -5460.2999     -5308.8915     -326.25584      59995.753      129.46829    
     49200   762.7074      -5460.434      -5309.1019     -393.82634      59985.557      129.44672    
     49210   764.88616     -5461.0986     -5309.3343     -467.4041       59972.793      129.42463    
     49220   769.95898     -5462.3683     -5309.5974     -582.18132      59956.932      129.40014    
     49230   775.36927     -5463.7537     -5309.9093     -690.77123      59937.262      129.37172    
     49240   775.86605     -5464.222      -5310.2791     -685.45393      59913.139      129.33815    
     49250   770.93627     -5463.6632     -5310.6984     -575.16017      59884.642      129.29927    
     49260   764.85613     -5462.903      -5311.1445     -429.3708       59852.547      129.25555    
     49270   761.03001     -5462.5847     -5311.5855     -316.79899      59817.852      129.20759    
     49280   758.13898     -5462.432      -5312.0064     -246.55629      59781.336      129.15595    
     49290   753.71384     -5461.9548     -5312.4072     -156.00931      59743.535      129.10119    
     49300   747.70511     -5461.1232     -5312.7678     -39.603143      59705.081      129.04456    
     49310   742.74501     -5460.4413     -5313.07        111.12001      59666.797      128.98767    
     49320   741.76203     -5460.4885     -5313.3123      184.04402      59629.591      128.93237    
     49330   745.3017      -5461.3795     -5313.501       231.04335      59593.982      128.88045    
     49340   751.69483     -5462.807      -5313.66        243.74347      59560.265      128.83375    
     49350   757.85665     -5464.1796     -5313.81        262.12998      59528.548      128.79345    
     49360   761.09947     -5464.9896     -5313.9766      325.40254      59498.942      128.75961    
     49370   761.47895     -5465.2592     -5314.1708      429.8154       59471.838      128.73167    
     49380   759.62022     -5465.1141     -5314.3946      508.80687      59447.831      128.70897    
     49390   755.96761     -5464.6414     -53CHGNet v0.3.0 initialized with 412,525 parameters
CHGNet will run on cuda:0
CHGNet will run on cuda:0
14.6466      591.98373      59427.454      128.69041    
     49400   750.67607     -5463.8569     -5314.912       659.34655      59411.189      128.67496    
     49410   743.71862     -5462.7371     -5315.1726      782.8522       59399.512      128.66177    
     49420   738.74901     -5461.9856     -5315.4072      862.44329      59393.102      128.65123    
     49430   739.85327     -5462.3958     -5315.5983      871.32355      59392.419      128.64477    
     49440   745.90335     -5463.7522     -5315.7543      801.38783      59397.482      128.64433    
     49450   750.78886     -5464.864      -5315.8968      740.99439      59407.839      128.6516     
     49460   750.01728     -5464.8567     -5316.0425      733.05628      59423.051      128.66793    
     49470   744.39516     -5463.8866     -5316.1879      799.41919      59443.055      128.69445    
     49480   737.86736     -5462.7206     -5316.3171      864.77521      59468.191      128.7326     
     49490   733.24838     -5461.8918     -5316.4049      896.61358      59498.852      128.7845     
     49500   732.3445      -5461.7432     -5316.4355      851.56543      59535.188      128.85259    
     49510   735.53392     -5462.339      -5316.3985      749.87731      59576.9        128.93838    
     49520   741.75443     -5463.4742     -5316.2995      606.87421      59623.285      129.04145    
     49530   748.63987     -5464.6919     -5316.151       484.08233      59673.416      129.15927    
     49540   754.33935     -5465.6385     -5315.9668      374.73113      59726.439      129.28855    
     49550   757.40058     -5466.0472     -5315.7681      315.38578      59781.63       129.42577    
     49560   757.09402     -5465.7773     -5315.559       273.25591      59838.531      129.56776    
     49570   755.1237      -5465.161      -5315.3337      200.94599      59896.802      129.71185    
     49580   752.9862      -5464.4799     -5315.0766      126.22731      59955.968      129.85577    
     49590   750.15972     -5463.6083     -5314.7658      42.217116      60015.516      129.99778    
     49600   746.76297     -5462.5488     -5314.3804     -42.64215       60074.864      130.13618    
     49610   745.30233     -5461.7754     -5313.8967     -153.22273      60133.397      130.26915    
     49620   746.8561      -5461.478      -5313.2911     -262.98047      60190.384      130.39474    
     49630   751.24026     -5461.6176     -5312.5607     -369.20223      60245.081      130.51114    
     49640   759.37278     -5462.4067     -5311.7363     -494.5918       60296.757      130.61694    
     49650   769.79032     -5463.5977     -5310.8602     -647.3417       60344.552      130.71084    
     49660   776.64133     -5464.1038     -5310.007      -735.51492      60387.521      130.79125    
     49670   776.44354     -5463.2977     -5309.2402     -748.49764      60425.08       130.85671    
     49680   771.00036     -5461.5604     -5308.5829     -690.43156      60457.165      130.90682    
     49690   763.76689     -5459.5635     -5308.0212     -601.42382      60484.209      130.94265    
     49700   759.01252     -5458.1268     -5307.5279     -595.83145      60506.798      130.9654     
     49710   759.44783     -5457.7679     -5307.0826     -633.86227      60525.051      130.97525    
     49720   762.30575     -5457.9324     -5306.68       -715.89559      60538.723      130.97219    
     49730   763.56833     -5457.8331     -5306.3302     -760.61833      60547.374      130.95738    
     49740   763.37486     -5457.5043     -5306.0398     -803.45704      60550.715      130.9334     
     49750   764.12541     -5457.4189     -5305.8055     -852.5229       60548.508      130.90213    
     49760   765.58051     -5457.5343     -5305.6322     -954.46205      60540.44       130.86364    
     49770   766.7468      -5457.6573     -5305.5238     -1019.9521      60525.936      130.81613    
     49780   767.03424     -5457.6771     -5305.4865     -1070.8587      60504.569      130.75707    
     49790   765.92608     -5457.4926     -5305.5218     -1101.9699      60476.058      130.68349    
     49800   764.18037     -5457.2552     -5305.6309     -1080.5846      60440.264      130.59316    
     49810   763.17961     -5457.2329     -5305.8071     -1022.4931      60397.389      130.48579    
     49820   761.93503     -5457.2289     -5306.0501     -928.0151       60347.932      130.36297    
     49830   760.1147      -5457.1765     -5306.3589     -759.59968      60292.64       130.22721    
     49840   758.39155     -5457.2069     -5306.7312     -562.00542      60232.695      130.08179    
     49850   756.91737     -5457.3457     -5307.1625     -376.03182      60169.484      129.93031    
     49860   755.12262     -5457.4823     -5307.6552     -163.41706      60104.35       129.77691    
     49870   752.89448     -5457.5973     -5308.2122      28.878201      60038.749      129.62663    
     49880   749.4038      -5457.5167     -5308.8243      240.77844      59974.047      129.4841     
     49890   743.39293     -5456.978      -5309.4782      434.20589      59911.647      129.35317    
     49900   735.91475     -5456.1621     -5310.1461      593.17759      59852.819      129.23651    
     49910   729.95777     -5455.6285     -5310.7945      710.15108      59798.59       129.13584    
     49920   726.96824     -5455.641      -5311.4001      781.09734      59749.708      129.0518     
     49930   727.94295     -5456.3796     -5311.9453      791.22518      59706.57       128.98401    
     49940   733.92776     -5458.0591     -5312.4373      728.09858      59669.144      128.93106    
     49950   743.80067     -5460.4786     -5312.8979      623.93627      59636.956      128.89124    
     49960   754.94785     -5463.1578     -5313.3654      486.80625      59609.247      128.86291    
     49970   763.24452     -5465.3207     -5313.882       356.25095      59585.075      128.84413    
     49980   764.79311     -5466.2227     -5314.4767      331.51709      59563.606      128.83319    
     49990   760.10214     -5465.967      -5315.1519      366.15179      59544.596      128.82941    
     50000   752.63692     -5465.2159     -5315.882       432.34816      59528.22       128.83316    
Loop time of 5078.94 on 1 procs for 20000 steps with 1536 atoms

Performance: 0.340 ns/day, 70.541 hours/ns, 3.938 timesteps/s, 6.049 katom-step/s
137.5% CPU use with 1 MPI tasks x 1 OpenMP threads

MPI task timing breakdown:
Section |  min time  |  avg time  |  max time  |%varavg| %total
---------------------------------------------------------------
Pair    | 5025       | 5025       | 5025       |   0.0 | 98.94
Bond    | 0.0073966  | 0.0073966  | 0.0073966  |   0.0 |  0.00
Neigh   | 4.5651     | 4.5651     | 4.5651     |   0.0 |  0.09
Comm    | 0.60131    | 0.60131    | 0.60131    |   0.0 |  0.01
Output  | 47.117     | 47.117     | 47.117     |   0.0 |  0.93
Modify  | 1.5332     | 1.5332     | 1.5332     |   0.0 |  0.03
Other   |            | 0.1312     |            |       |  0.00

Nlocal:           1536 ave        1536 max        1536 min
Histogram: 1 0 0 0 0 0 0 0 0 0
Nghost:           2251 ave        2251 max        2251 min
Histogram: 1 0 0 0 0 0 0 0 0 0
Neighs:              0 ave           0 max           0 min
Histogram: 1 0 0 0 0 0 0 0 0 0
FullNghs:        38808 ave       38808 max       38808 min
Histogram: 1 0 0 0 0 0 0 0 0 0

Total # of neighbors = 38808
Ave neighs/atom = 25.265625
Ave special neighs/atom = 0
Neighbor list builds = 2000
Dangerous builds = 2000
System init for write_data ...
System init for write_restart ...
Total wall time: 2:08:01
