64
Lattice="13.76443408 0.0 0.0 0.0 13.76443408 0.0 0.0 0.0 13.76443408" Properties=species:S:1:pos:R:3:forces:R:3 energy=-633.72651771 stress="-0.01178970331034305 0.0006205258378465037 0.0007445482192870606 0.0006205258378465037 -0.0026943470488568996 -0.00032411617624323284 0.0007445482192870606 -0.00032411617624323284 -0.010878252836630083" free_energy=-633.72651771 pbc="T T T" config_type=melt 
Cl       0.07928631       3.67665006      13.09710004       1.59423638      -0.78480766      -0.48644219
Cl       9.88519000      11.68919995       2.54120001      -0.27870725      -0.13825664      -0.13706583
Cl       9.44445006      11.93470005      10.92600007      -0.79540161       2.22729703      -0.91206992
Cl      11.31059997       4.78217995      13.72459995      -3.35403864       0.16052301      -0.51405225
64
Lattice="13.76443408 0.0 0.0 0.0 13.76443408 0.0 0.0 0.0 13.76443408" Properties=species:S:1:pos:R:3:forces:R:3 energy=-633.72651771 stress="-0.01178970331034305 0.0006205258378465037 0.0007445482192870606 0.0006205258378465037 -0.0026943470488568996 -0.00032411617624323284 0.0007445482192870606 -0.00032411617624323284 -0.010878252836630083" free_energy=-633.72651771 pbc="T T T" config_type=melt 
Cl       0.07928631       3.67665006      13.09710004       1.59423638      -0.78480766      -0.48644219
Cl       9.88519000      11.68919995       2.54120001      -0.27870725      -0.13825664      -0.13706583
Cl       9.44445006      11.93470005      10.92600007      -0.79540161       2.22729703      -0.91206992
Cl      11.31059997       4.78217995      13.72459995      -3.35403864       0.16052301      -0.51405225
64
Lattice="13.76443408 0.0 0.0 0.0 13.76443408 0.0 0.0 0.0 13.76443408" Properties=species:S:1:pos:R:3:forces:R:3 energy=-633.72651771 stress="-0.01178970331034305 0.0006205258378465037 0.0007445482192870606 0.0006205258378465037 -0.0026943470488568996 -0.00032411617624323284 0.0007445482192870606 -0.00032411617624323284 -0.010878252836630083" free_energy=-633.72651771 pbc="T T T" config_type=melt 
Cl       0.07928631       3.67665006      13.09710004       1.59423638      -0.78480766      -0.48644219
Cl       9.88519000      11.68919995       2.54120001      -0.27870725      -0.13825664      -0.13706583
Cl       9.44445006      11.93470005      10.92600007      -0.79540161       2.22729703      -0.91206992
Cl      11.31059997       4.78217995      13.72459995      -3.35403864       0.16052301      -0.51405225
