LAMMPS (2 Aug 2023)
OMP_NUM_THREADS environment is not set. Defaulting to 1 thread. (src/comm.cpp:98)
  using 1 OpenMP thread(s) per MPI task
Reading restart file ...
  restart file = 2 Aug 2023, LAMMPS = 2 Aug 2023
  restoring atom style full from restart
  orthogonal box = (-1.043091 -0.71039117 -9.0393714) to (23.779066 23.446366 77.247295)
  1 by 1 by 1 MPI processor grid
  pair style chgnet/gpu stores no restart info
  1536 atoms
Finding 1-2 1-3 1-4 neighbors ...
  special bond factors lj:    0        0        0       
  special bond factors coul:  0        0        0       
     0 = max # of 1-2 neighbors
     0 = max # of 1-3 neighbors
     0 = max # of 1-4 neighbors
     1 = max # of special neighbors
  special bonds CPU = 0.001 seconds
  read_restart CPU = 0.092 seconds
Resetting peratom fix info from restart file:
  fix style: STORE/ATOM, fix ID: msd_COMPUTE_STORE
All restart file peratom fix info was re-assigned
Neighbor list info ...
  update: every = 1 steps, delay = 10 steps, check = yes
  max neighbors/atom: 2000, page size: 100000
  master list distance cutoff = 6.3
  ghost atom cutoff = 6.3
  binsize = 3.15, bins = 8 8 28
  1 neighbor lists, perpetual/occasional/extra = 1 0 0
  (1) pair chgnet/gpu, perpetual
      attributes: full, newton on
      pair build: full/bin
      stencil: full/bin/3d
      bin: standard
Setting up Verlet run ...
  Unit style    : metal
  Current step  : 20000
  Time step     : 0.001
Per MPI rank memory allocation (min/avg/max) = 6.547 | 6.547 | 6.547 Mbytes
   Step          Temp          PotEng         TotEng         Press          Volume        c_msd[4]   
     20000   1497.4781     -5523.0941     -5225.973       3591.3102      51739.452      56.877471    
     20010   1507.3627     -5525.0548     -5225.9725      3626.0342      51738.892      57.035414    
     20020   1515.32       -5526.6552     -5225.994       3460.3144      51737.549      57.189233    
     20030   1520.7108     -5527.8186     -5226.0878      3265.8375      51735.531      57.322894    
     20040   1507.2201     -5525.295      -5226.241       3290.8702      51732.687      57.418711    
     20050   1511.0931     -5526.2747     -5226.4521      3198.1493      51729.167      57.496711    
     20060   1512.744      -5526.8734     -5226.7233      3080.3851      51725.095      57.570148    
     20070   1488.8058     -5522.4423     -5227.0419      3142.2469      51720.494      57.636334    
     20080   1482.7641     -5521.5575     -5227.3559      3071.4512      51715.401      57.695701    
     20090   1488.4481     -5522.9883     -5227.6589      3074.7865      51709.821      57.751441    
     20100   1493.761      -5524.3451     -5227.9615      3223.097       51704.013      57.798233    
     20110   1486.8034     -5523.2955     -5228.2924      3473.6258      51698.045      57.857486    
     20120   1466.089      -5519.4781     -5228.5851      3690.2399      51691.932      57.964499    
     20130   1470.4691     -5520.5988     -5228.8366      3469.4073      51685.601      58.093614    
     20140   1473.23       -5521.3539     -5229.044       3272.9932      51678.736      58.228521    
     20150   1481.9551     -5523.252      -5229.2108      3094.9641      51671.087      58.380295    
     20160   1479.0024     -5522.7806     -5229.3254      3015.5357      51662.437      58.54688     
     20170   1494.4862     -5525.9692     -5229.4418      2878.0247      51652.35       58.708665    
     20180   1483.1471     -5523.8152     -5229.5376      3236.067       51640.735      58.844393    
     20190   1485.4072     -5524.3682     -5229.6421      3562.5787      51627.95       58.945142    
     20200   1513.6916     -5530.0518     -5229.7137      3478.1585      51614.457      59.015525    
     20210   1510.0297     -5529.4717     -5229.8602      3598.4996      51600.41       59.086542    
     20220   1515.766      -5530.8563     -5230.1066      3485.1539      51585.861      59.172482    
     20230   1522.5634     -5532.5823     -5230.4839      3280.9207      51570.528      59.262872    
     20240   1520.5551     -5532.7361     -5231.0362      3163.8886      51554.034      59.344255    
     20250   1507.3598     -5530.8281     -5231.7464      3372.8258      51536.502      59.406682    
     20260   1477.5952     -5525.6957     -5232.5196      3942.2013      51518.543      59.436873    
     20270   1488.291      -5528.6477     -5233.3495      4172.3266      51500.99       59.443291    
     20280   1483.0426     -5528.4415     -5234.1846      4600.9158      51484.31       59.450892    
     20290   1488.3146     -5530.3707     -5235.0678      4804.4428      51468.794      59.455075    
     20300   1466.405      -5526.8818     -5235.9261      4921.7549      51454.473      59.445135    
     20310   1465.9608     -5527.6296     -5236.762       4540.914       51440.912      59.434279    
     20320   1452.0854     -5525.6239     -5237.5094      4220.9799      51427.475      59.434139    
     20330   1479.2512     -5531.714      -5238.2094      3920.0343      51413.942      59.43691     
     20340   1487.7633     -5534.0457     -5238.8521      3889.8021      51400.507      59.43588     
     20350   1497.3615     -5536.6179     -5239.52        3754.7342      51387.557      59.439432    
     20360   1507.0001     -5539.2305     -5240.2201      3567.5587      51375.291      59.463641    
     20370   1483.2405     -5535.2769     -5240.9807      3734.8898      51363.831      59.502911    
     20380   1497.1901     -5538.8309     -5241.767       3504.1533      51353.548      59.545583    
     20390   1497.0027     -5539.6146     -5242.5878      3291.5452      51344.649      59.576436    
     20400   1485.9594     -5538.2919     -5243.4562      3269.4332      51336.926      59.591939    
     20410   1461.7572     -5534.3467     -5244.3131      3658.8934      51329.844      59.604618    
     20420   1463.2322     -5535.4299     -5245.1037      3788.5328      51323.177      59.626327    
     20430   1461.437      -5535.7771     -5245.8071      3632.0956      51317.017      59.667121    
     20440   1460.9536     -5536.3022     -5246.4281      3167.2866      51311.34       59.738651    
     20450   1473.6149     -5539.3704     -5246.9841      2720.6445      51305.71       59.840093    
     20460   1476.1269     -5540.3881     -5247.5033      2712.2072      51299.494      59.946911    
     20470   1474.8037     -5540.6217     -5247.9995      2880.7116      51292.413      60.04487     
     20480   1448.991      -5535.9551     -5248.4545      3320.3825      51284.546      60.126228    
     20490   1435.685      -5533.656      -5248.7955      3443.5619      51276.152      60.192685    
     20500   1437.8222     -5534.2764     -5248.9919      3045.8743      51267.228      60.253683    
     20510   1418.7704     -5530.5308     -5249.0264      3053.4079      51257.074      60.3224      
     20520   1398.7032     -5526.3552     -5248.8325      3430.2406      51245.326      60.391742    
     20530   1416.7864     -5529.4574     -5248.3467      3543.8433      51232.319      60.459101    
     20540   1440.2495     -5533.3279     -5247.5617      3454.5586      51218.24       60.530279    
     20550   1452.2591     -5534.6733     -5246.5243      3500.6812      51203.121      60.607519    
     20560   1438.4314     -5530.6406     -5245.2352      3671.1484      51187.334      60.683504    
     20570   1451.6371     -5531.7279     -5243.7023      3361.6041      51171.318      60.754527    
     20580   1447.5439     -5529.16       -5241.9466      3043.2009      51154.994      60.817773    
     20590   1461.3524     -5530.0459     -5240.0927      2913.1437      51138.143      60.862039    
     20600   1462.5339     -5528.4111     -5238.2235      3326.0665      51120.575      60.90216     
     20610   1456.657      -5525.4954     -5236.4737      3938.578       51102.438      60.9534      
     20620   1465.4815     -5525.6624     -5234.8898      4305.4768      51084.277      61.02217     
     20630   1477.7848     -5526.7412     -5233.5275      4548.1386      51066.774      61.104782    
     20640   1513.1376     -5532.6566     -5232.4284      4421.066       51050.393      61.198752    
     20650   1517.0786     -5532.6467     -5231.6366      4444.5891      51034.926      61.298257    
     20660   1516.5009     -5532.0352     -5231.1397      4437.9573      51019.768      61.393967    
     20670   1493.885      -5527.2524     -5230.8443      4517.2127      51004.446      61.487884    
     20680   1467.6785     -5521.8582     -5230.6497      4492.2348      50988.712      61.563538    
     20690   1488.3708     -5525.77       -5230.4559      3894.5488      50972.493      61.607123    
     20700   1503.5009     -5528.6536     -5230.3375      3532.6434      50955.617      61.639203    
     20710   1481.5775     -5524.2466     -5230.2804      3931.2219      50937.989      61.665634    
     20720   1468.6555     -5521.6318     -5230.2296      4393.5129      50920.34       61.688969    
     20730   1484.0013     -5524.5938     -5230.1466      4191.2977      50903.276      61.723026    
     20740   1536.5687     -5535.0289     -5230.1517      3616.951       50886.67       61.759615    
     20750   1530.8124     -5534.0284     -5230.2933      3981.5599      50870.556      61.780122    
     20760   1529.8124     -5534.1943     -5230.6576      4318.0815      50855.194      61.777091    
     20770   1527.4095     -5534.2749     -5231.215       4361.0633      50840.446      61.777493    
     20780   1535.6313     -5536.6487     -5231.9574      4301.3808      50826.197      61.821057    
     20790   1531.2354     -5536.7527     -5232.9337      4500.1157      50812.665      61.912934    
     20800   1492.8549     -5530.2609     -5234.0571      4851.0557      50799.895      62.013731    
     20810   1485.4261     -5529.9833     -5235.2535      4751.9043      50787.839      62.099042    
     20820   1464.7419     -5527.0312     -5236.4055      4697.7077      50776.57       62.167886    
     20830   1458.7749     -5526.9309     -5237.4891      4675.9958      50766.558      62.246257    
     20840   1479.6979     -5532.1025     -5238.5093      4605.5231      50758.245      62.337353    
     20850   1481.4927     -5533.4414     -5239.492       4963.7987      50751.845      62.422327    
     20860   1504.5147     -5538.9869     -5240.4697      5050.4648      50747.635      62.509447    
     20870   1489.693      -5537.0303     -5241.4538      5343.8134      50745.76       62.611878    
     20880   1495.6995     -5539.2502     -5242.482       5113.0517      50746.304      62.71247     
     20890   1498.0827     -5540.7462     -5243.5051      4768.2149      50749.203      62.819181    
     20900   1506.0516     -5543.3698     -5244.5475      4355.7163      50754.167      62.964414    
     20910   1503.2719     -5543.8986     -5245.6279      4216.7093      50760.643      63.150351    
     20920   1466.8211     -5537.7198     -5246.6815      4415.0267      50768.182      63.352188    
     20930   1445.4474     -5534.3943     -5247.5968      4252.3928      50776.495      63.56336     
     20940   1433.601      -5532.7592     -5248.3122      3860.8712      50785.26       63.777574    
     20950   1436.7104     -5533.9006     -5248.8367      3395.8166      50794.3        63.979841    
     20960   1466.8779     -5540.2639     -5249.2143      3046.312       50803.373      64.178572    
     20970   1457.7923     -5538.7635     -5249.5167      3335.984       50812.07       64.378777    
     20980   1459.1283     -5539.277      -5249.765       3539.9189      50820.283      64.569577    
     20990   1484.7108     -5544.5618     -5249.9739      3454.8404      50828.212      64.738883    
     21000   1504.5529     -5548.741      -5250.2161      3455.7506      50836.139      64.876071    
     21010   1505.4011     -5549.2599     -5250.5668      3799.9507      50844.097      64.993278    
     21020   1476.7316     -5543.9963     -5250.9916      4207.3466      50852.051      65.116306    
     21030   1468.7244     -5542.8519     -5251.436       4009.8693      50859.894      65.235732    
     21040   1449.961      -5539.5308     -5251.8377      3951.2208      50867.414      65.351914    
     21050   1426.1611     -5535.1212     -5252.1504      4090.6751      50874.673      65.49253     
     21060   1431.6229     -5536.3945     -5252.34        4118.0479      50881.838      65.666488    
     21070   1442.398      -5538.5728     -5252.3803      4113.1164      50888.7        65.882459    
     21080   1443.8931     -5538.8353     -5252.3463      4405.8721      50895.321      66.121402    
     21090   1426.5202     -5535.2501     -5252.2081      4999.2345      50902.42       66.357672    
     21100   1444.5955     -5538.5969     -5251.9685      4860.078       50910.526      66.564754    
     21110   1445.0147     -5538.3398     -5251.6282      4893.9801      50919.458      66.745722    
     21120   1420.3926     -5533.0177     -5251.1915      5240.7289      50929.067      66.930138    
     21130   1424.5714     -5533.2664     -5250.611       5144.5594      50939.647      67.130733    
     21140   1440.1855     -5535.5991     -5249.8457      4569.1518      50951.023      67.338521    
     21150   1465.1477     -5539.6414     -5248.9351      3992.5588      50962.469      67.54613     
     21160   1482.7423     -5542.1752     -5247.9779      3658.6568      50973.328      67.777758    
     21170   1483.4075     -5541.3395     -5247.0102      3743.8453      50983.391      68.027934    
     21180   1486.9621     -5541.1198     -5246.0852      3751.0686      50992.71       68.267241    
     21190   1470.0583     -5536.8578     -5245.1772      4069.1839      51001.452      68.486489    
     21200   1459.2253     -5533.793      -5244.2618      4470.5824      51010.4        68.696079    
     21210   1476.9863     -5536.3469     -5243.2917      4485.8265      51020.241      68.893502    
     21220   1498.379      -5539.5681     -5242.2683      4146.3664      51031.017      69.079408    
     21230   1501.1532     -5539.1287     -5241.2784      3779.4982      51042.515      69.263378    
     21240   1490.208      -5536.0269     -5240.3482      3365.4265      51054.52       69.444213    
     21250   1488.6496     -5534.7638     -5239.3944      2812.425       51066.55       69.618041    
     21260   1498.9962     -5535.8577     -5238.4353      2652.3424      51077.624      69.786704    
     21270   1501.7215     -5535.4417     -5237.4786      3053.1112      51087.3        69.955205    
     21280   1492.5833     -5532.6412     -5236.4913      3818.1551      51095.961      70.110172    
     21290   1483.2913     -5529.761      -5235.4547      4410.2725      51104.192      70.251312    
     21300   1480.3061     -5527.9984     -5234.2845      4573.6726      51112.447      70.382508    
     21310   1509.9669     -5532.5109     -5232.9118      4401.2079      51121.155      70.503187    
     21320   1497.6132     -5528.506      -5231.3581      4061.1845      51130.549      70.626478    
     21330   1512.5699     -5529.7815     -5229.666       3378.7351      51140.16       70.745493    
     21340   1533.1448     -5532.0593     -5227.8614      3028.2297      51149.3        70.875919    
     21350   1543.7552     -5532.4036     -5226.1004      3385.597       51157.753      71.022228    
     21360   1554.5793     -5532.9602     -5224.5094      3765.0096      51166.006      71.17106     
     21370   1562.6305     -5533.2539     -5223.2056      4053.3427      51174.508      71.307887    
     21380   1583.481      -5536.4103     -5222.225       4107.7241      51183.131      71.442852    
     21390   1615.4608     -5542.2517     -5221.7211      4008.4488      51191.606      71.580337    
     21400   1575.6584     -5534.3987     -5221.7655      4260.0014      51199.881      71.722908    
     21410   1539.7437     -5527.7794     -5222.2722      4309.9851      51208.204      71.866458    
     21420   1532.9867     -5527.3308     -5223.1643      3952.8689      51216.866      72.009456    
     21430   1499.1461     -5521.8007     -5224.3486      3971.174       51225.599      72.150599    
     21440   1490.2694     -5521.4312     -5225.7404      4106.2264      51234.415      72.287714    
     21450   1502.9131     -5525.5001     -5227.3006      4259.4533      51243.441      72.438435    
     21460   1535.5057     -5533.7274     -5229.0611      4258.0837      51252.303      72.616628    
     21470   1551.8198     -5538.9716     -5231.0683      4302.8083      51260.538      72.809307    
     21480   1517.6877     -5534.3042     -5233.1732      4402.5465      51268.281      73.016091    
     21490   1518.8895     -5536.5172     -5235.1478      3947.9516      51275.837      73.222172    
     21500   1517.6771     -5538.0249     -5236.896       3413.2294      51283.042      73.384436    
     21510   1501.3147     -5536.2949     -5238.4126      3252.9989      51289.7        73.491673    
     21520   1497.8681     -5536.8647     -5239.6663      3030.9373      51295.973      73.588672    
     21530   1476.9016     -5533.7787     -5240.7403      3182.0402      51301.958      73.710698    
     21540   1465.3147     -5532.3918     -5241.6524      3371.4443      51307.756      73.887003    
     21550   1460.5402     -5532.238      -5242.4459      3308.8171      51313.496      74.115138    
     21560   1466.7405     -5534.1808     -5243.1585      3048.1517      51319.278      74.351044    
     21570   1498.6833     -5541.223      -5243.8628      2475.4512      51324.794      74.561231    
     21580   1497.1297     -5541.7225     -5244.6706      2416.9755      51329.454      74.755207    
     21590   1479.5626     -5539.1221     -5245.5557      2723.8459      51333.15       74.933203    
     21600   1473.1079     -5538.7906     -5246.5049      2919.8994      51336.103      75.104668    
     21610   1448.6935     -5534.9246     -5247.483       3335.8272      51338.544      75.273928    
     21620   1411.9578     -5528.5096     -5248.357       3563.025       51340.968      75.422496    
     21630   1417.0972     -5530.2711     -5249.0987      3418.5306      51343.486      75.535571    
     21640   1412.318      -5529.9023     -5249.6782      3248.3134      51345.743      75.629266    
     21650   1436.796      -5535.2289     -5250.148       2876.8109      51347.455      75.714668    
     21660   1452.0622     -5538.6746     -5250.5646      2691.0352      51348.285      75.790059    
     21670   1444.3522     -5537.5605     -5250.9804      2814.4731      51347.971      75.850058    
     21680   1453.1897     -5539.7271     -5251.3934      3023.5089      51346.319      75.908249    
     21690   1460.3355     -5541.5753     -5251.8238      3191.739       51343.062      75.97559     
     21700   1462.0031     -5542.3839     -5252.3016      3433.0574      51338.504      76.048311    
     21710   1442.0512     -5538.9294     -5252.8058      3856.8215      51333.37       76.139834    
     21720   1431.2756     -5537.2837     -5253.2981      4076.645       51328.392      76.275839    
     21730   1436.1904     -5538.7185     -5253.7578      3902.5812      51323.794      76.441209    
     21740   1440.428      -5539.9896     -5254.1881      3685.0361      51319.085      76.625042    
     21750   1438.2545     -5539.9731     -5254.6028      3421.1197      51313.911      76.810114    
     21760   1424.5838     -5537.6349     -5254.9771      3324.8652      51308.005      76.959578    
     21770   1427.5384     -5538.5486     -5255.3045      3320.4069      51300.912      77.0638      
     21780   1409.7926     -5535.2834     -5255.5604      3666.6131      51292.383      77.129437    
     21790   1381.3875     -5529.7584     -5255.6714      3897.7668      51282.984      77.162715    
     21800   1417.7312     -5536.9387     -5255.6405      3228.8783      51273.254      77.169108    
     21810   1409.991      -5535.2124     -5255.45        3168.63        51262.844      77.158175    
     21820   1396.1633     -5532.1421     -5255.1233      3229.8953      51251.773      77.131676    
     21830   1421.6154     -5536.7175     -5254.6487      2821.7131      51240.015      77.078427    
     21840   1423.5593     -5536.4656     -5254.011       2607.2123      51227.366      77.012655    
     21850   1436.0796     -5538.2051     -5253.2663      2583.0679      51213.727      76.948339    
     21860   1436.1011     -5537.3793     -5252.4362      2819.0522      51198.892      76.886271    
     21870   1424.9652     -5534.2617     -5251.5282      3117.4516      51182.814      76.825456    
     21880   1433.5796     -5534.9597     -5250.517       2890.0425      51165.627      76.771548    
     21890   1441.7138     -5535.4849     -5249.4282      2751.0197      51147.631      76.736401    
     21900   1435.1405     -5533.0393     -5248.2869      3134.545       51129.002      76.726595    
     21910   1449.5428     -5534.7389     -5247.1288      3695.932       51110.018      76.722409    
     21920   1443.5725     -5532.3684     -5245.943       4108.5884      51091.336      76.719351    
     21930   1462.6016     -5535.0183     -5244.8172      4016.433       51073.449      76.73414     
     21940   1467.1642     -5534.8594     -5243.753       4010.5118      51056.291      76.774928    
     21950   1492.5145     -5538.9855     -5242.8492      3778.3042      51039.504      76.840778    
     21960   1495.3534     -5538.8555     -5242.1559      3671.9863      51022.456      76.901147    
     21970   1495.0329     -5538.3314     -5241.6955      3477.0136      51004.71       76.93778     
     21980   1470.3598     -5533.1836     -5241.4432      3464.1321      50986.075      76.951293    
     21990   1458.2994     -5530.649      -5241.3016      3447.9672      50966.792      76.9371      
     22000   1479.2096     -5534.7437     -5241.2473      3173.066       50946.966      76.87623     
     22010   1482.6902     -5535.5149     -5241.3279      3138.1884      50926.371      76.771745    
     22020   1469.8286     -5533.1825     -5241.5474      3378.4172      50905.196      76.642709    
     22030   1454.8336     -5530.5271     -5241.8673      3616.4422      50883.844      76.513004    
     22040   1458.4626     -5531.6437     -5242.2638      3650.4359      50862.572      76.416645    
     22050   1460.9277     -5532.59       -5242.721       4009.089       50841.446      76.361672    
     22060   1459.1709     -5532.7635     -5243.2431      4484.7345      50820.626      76.344401    
     22070   1488.6792     -5539.2799     -5243.9046      4518.7155      50800.29       76.335036    
     22080   1510.0416     -5544.394      -5244.7802      4429.9999      50780.349      76.289344    
     22090   1507.232      -5545.0342     -5245.9778      4343.1387      50760.509      76.227907    
     22100   1481.3462     -5541.3633     -5247.443       4574.6596      50740.668      76.159324    
     22110   1446.3891     -5536.0181     -5249.0338      4973.6184      50721.057      76.087143    
     22120   1446.7027     -5537.6583     -5250.6118      4996.726       50701.785      76.040305    
     22130   1467.7963     -5543.3859     -5252.1541      4647.2332      50683.029      76.020605    
     22140   1467.6397     -5544.8163     -5253.6155      4507.3452      50665.058      76.001592    
     22150   1465.5448     -5545.7285     -5254.9434      4437.0396      50648.219      75.959176    
     22160   1455.4238     -5544.8584     -5256.0815      4517.0642      50632.59       75.889215    
     22170   1470.73       -5548.8541     -5257.0402      4331.8053      50617.947      75.804042    
     22180   1486.0748     -5552.7462     -5257.8877      4183.478       50603.674      75.727548    
     22190   1477.9905     -5551.9354     -5258.6809      4366.0176      50589.456      75.670969    
     22200   1474.6051     -5551.9867     -5259.4039      4430.895       50575.69       75.6488      
     22210   1477.2611     -5553.2402     -5260.1305      4577.684       50562.834      75.665634    
     22220   1453.1951     -5549.1603     -5260.8256      5031.4806      50551.279      75.698129    
     22230   1443.5452     -5547.9185     -5261.4984      5208.6332      50541.509      75.723573    
     22240   1443.4999     -5548.5538     -5262.1428      4906.8775      50533.659      75.732879    
     22250   1442.8499     -5549.0446     -5262.7625      4346.8934      50527.286      75.737952    
     22260   1431.0524     -5547.3124     -5263.3711      3948.1585      50521.885      75.763105    
     22270   1421.258      -5545.9475     -5263.9496      3764.4386      50517.088      75.795531    
     22280   1402.3736     -5542.7014     -5264.4504      3861.3625      50512.738      75.816911    
     22290   1394.518      -5541.5394     -5264.8471      3809.1468      50509.182      75.832888    
     22300   1377.3673     -5538.3831     -5265.0937      3790.5034      50506.975      75.848318    
     22310   1402.563      -5543.48       -5265.1914      3584.5582      50506.162      75.879787    
     22320   1435.8181     -5550.0714     -5265.1845      3431.247       50505.913      75.91641     
     22330   1451.9441     -5553.2787     -5265.1922      3805.6577      50505.577      75.956288    
     22340   1448.6998     -5552.7092     -5265.2664      4465.536       50505.297      76.016381    
     22350   1451.5402     -5553.4384     -5265.432       4841.4626      50505.663      76.08845     
     22360   1446.2081     -5552.6188     -5265.6704      4943.5409      50507.11       76.17339     
     22370   1458.9292     -5555.4749     -5266.0024      4741.8098      50509.584      76.274398    
     22380   1459.3755     -5555.9923     -5266.4313      4614.1287      50512.707      76.385174    
     22390   1443.3142     -5553.364      -5266.9898      4403.4907      50516.234      76.510013    
     22400   1428.5189     -5551.0862     -5267.6476      4019.1852      50520.058      76.655604    
     22410   1399.6499     -5546.0043     -5268.2937      3923.4965      50524.181      76.816301    
     22420   1394.2922     -5545.4971     -5268.8495      3969.5343      50528.651      76.976557    
     22430   1417.458      -5550.6006     -5269.3566      4007.3223      50533.366      77.130805    
     22440   1436.1951     -5554.808      -5269.8463      4102.6411      50538.488      77.310635    
     22450   1436.0102     -5555.3079     -5270.3829      4325.0893      50544.13       77.520425    
     22460   1409.288      -5550.5691     -5270.9462      4791.4198      50550.295      77.747358    
     22470   1409.2474     -5551.118      -5271.5032      4873.867       50557.144      77.987194    
     22480   1396.0476     -5549.0068     -5272.011       4936.7079      50564.837      78.2266      
     22490   1393.7067     -5548.9709     -5272.4396      5022.7498      50573.333      78.462226    
     22500   1410.6308     -5552.6953     -5272.806       5006.8329      50582.787      78.705665    
     22510   1413.2232     -5553.5219     -5273.1181      5062.2749      50593.355      78.939063    
     22520   1441.6335     -5559.49       -5273.4493      4653.2626      50605.013      79.147295    
     22530   1428.4849     -5557.2664     -5273.8345      4748.9236      50617.746      79.341799    
     22540   1405.4338     -5553.1274     -5274.2692      4934.4983      50631.812      79.529165    
     22550   1397.9668     -5552.053      -5274.6763      4769.0913      50647.051      79.728984    
     22560   1393.3784     -5551.5125     -5275.0462      4383.2505      50663.23       79.944317    
     22570   1369.6543     -5547.067      -5275.308       4247.9183      50680.252      80.184987    
     22580   1371.6333     -5547.5793     -5275.4277      3942.9962      50697.882      80.458439    
     22590   1370.2605     -5547.2523     -5275.373       3787.3042      50715.78       80.743936    
     22600   1368.9058     -5546.7334     -5275.1229      3574.4982      50733.795      81.023615    
     22610   1375.8541     -5547.6409     -5274.6517      3332.3462      50751.814      81.27497     
     22620   1384.1098     -5548.5608     -5273.9336      3289.4162      50769.56       81.482558    
     22630   1379.0511     -5546.5906     -5272.9671      3486.6025      50786.9        81.662351    
     22640   1391.0646     -5547.7694     -5271.7623      3404.8897      50803.987      81.851504    
     22650   1398.3616     -5547.7482     -5270.2932      3146.88        50820.842      82.081003    
     22660   1395.0812     -5545.4714     -5268.6673      3312.2149      50837.463      82.318896    
     22670   1405.9278     -5545.8783     -5266.9221      3464.1262      50854.028      82.536916    
     22680   1415.7372     -5546.0665     -5265.164       3566.1176      50870.529      82.730118    
     22690   1404.8751     -5542.2491     -5263.5018      3765.447       50886.853      82.915581    
     22700   1414.9247     -5542.7446     -5262.0033      3964.2562      50903.198      83.10432     
     22710   1434.697      -5545.329      -5260.6646      3948.1305      50919.828      83.281003    
     22720   1479.405      -5553.1014     -5259.5663      3530.0071      50936.555      83.436046    
     22730   1471.7672     -5550.791      -5258.7713      3565.7148      50952.865      83.579495    
     22740   1468.1892     -5549.6008     -5258.2911      3725.8409      50968.753      83.723828    
     22750   1467.1472     -5549.1738     -5258.0708      3873.4384      50984.459      83.887578    
     22760   1450.1119     -5545.7318     -5258.0088      3979.8773      51000.029      84.095114    
     22770   1446.6354     -5545.1155     -5258.0823      3912.2877      51015.553      84.350384    
     22780   1453.3148     -5546.6261     -5258.2676      3603.0197      51030.952      84.617977    
     22790   1454.0429     -5547.0461     -5258.5432      3028.6651      51045.975      84.848519    
     22800   1453.1049     -5547.2567     -5258.9399      2561.3832      51060.112      85.048424    
     22810   1431.168      -5543.3983     -5259.4341      2605.7691      51072.974      85.232029    
     22820   1450.4916     -5547.8049     -5260.0066      2402.7523      51084.99       85.409638    
     22830   1459.1414     -5550.1915     -5260.677       2419.1984      51096.487      85.582159    
     22840   1455.4502     -5550.2937     -5261.5115      2454.503       51107.378      85.739053    
     22850   1405.3557     -5541.2344     -5262.3917      2946.2821      51117.51       85.879088    
     22860   1381.6942     -5537.3796     -5263.2317      3324.7939      51127.013      86.023547    
     22870   1376.9011     -5537.1116     -5263.9147      3358.8331      51135.652      86.183709    
     22880   1397.4612     -5541.7518     -5264.4755      3167.5052      51143.147      86.348839    
     22890   1392.8245     -5541.3076     -5264.9513      3423.9306      51149.343      86.504377    
     22900   1383.2386     -5539.7867     -5265.3324      3660.3195      51154.475      86.645825    
     22910   1419.089      -5547.219      -5265.6514      3469.6609      51159.055      86.77744     
     22920   1449.824      -5553.6519     -5265.986       3437.0517      51163.239      86.877786    
     22930   1460.5274     -5556.2607     -5266.4712      3584.9415      51167.14       86.930152    
     22940   1438.4499     -5552.5031     -5267.094       3867.8251      51170.989      86.976021    
     22950   1447.9761     -5555.1467     -5267.8475      3671.2341      51175.241      87.047444    
     22960   1439.3084     -5554.2979     -5268.7185      3459.8714      51179.8        87.149368    
     22970   1417.5942     -5550.9401     -5269.6691      3438.5738      51184.459      87.279145    
     22980   1413.4442     -5551.1038     -5270.6562      3267.8314      51189.375      87.420008    
     22990   1403.8326     -5550.1597     -5271.6192      3210.2287      51194.726      87.559163    
     23000   1410.9456     -5552.5232     -5272.5714      2972.844       51200.597      87.69126     
     23010   1383.2128     -5547.9093     -5273.4601      3112.3375      51206.856      87.810843    
     23020   1369.4481     -5545.9548     -5274.2367      3156.2177      51213.41       87.924122    
     23030   1331.2247     -5538.9313     -5274.7972      3396.7533      51219.886      88.026883    
     23040   1319.9072     -5536.9746     -5275.0861      3305.5502      51225.994      88.116147    
     23050   1328.3707     -5538.6599     -5275.0921      2998.6911      51231.553      88.183828    
     23060   1330.0061     -5538.7266     -5274.8343      2911.3235      51236.675      88.227626    
     23070   1337.1553     -5539.6395     -5274.3288      2881.6709      51241.267      88.272318    
     23080   1350.6667     -5541.6193     -5273.6276      2951.9555      51244.801      88.337926    
     23090   1356.6863     -5541.9664     -5272.7804      2958.4999      51247.165      88.412011    
     23100   1361.454      -5541.9573     -5271.8253      2953.2883      51248.571      88.491357    
     23110   1384.8128     -5545.6        -5270.8333      2744.3769      51249.137      88.590627    
     23120   1390.6855     -5545.7963     -5269.8643      2800.2098      51248.704      88.697212    
     23130   1380.4668     -5542.9153     -5269.0109      3274.5514      51247.189      88.773983    
     23140   1381.1485     -5542.2858     -5268.2461      3848.963       51244.888      88.826961    
     23150   1379.9976     -5541.3596     -5267.5483      4512.9792      51242.257      88.868668    
     23160   1412.3352     -5547.1783     -5266.9508      4302.6465      51239.852      88.911235    
     23170   1410.1816     -5546.2581     -5266.4578      3755.619       51237.568      88.968626    
     23180   1433.0675     -5550.4878     -5266.1467      2848.3366      51234.987      89.035567    
     23190   1415.6337     -5546.8279     -5265.9459      2345.1921      51231.592      89.119316    
     23200   1404.3985     -5544.4977     -5265.8449      2241.4509      51227.112      89.240105    
     23210   1374.039      -5538.3618     -5265.7328      2867.3742      51221.776      89.398104    
     23220   1367.6013     -5536.9116     -5265.5599      3561.6143      51216.312      89.571654    
     23230   1391.6047     -5541.401      -5265.2867      3882.3434      51211.025      89.72828     
     23240   1399.4026     -5542.6406     -5264.9791      4136.2592      51205.762      89.8631      
     23250   1383.444      -5539.1576     -5264.6625      4329.6375      51200.675      89.984633    
     23260   1380.7477     -5538.2542     -5264.294       4003.7912      51195.94       90.085664    
     23270   1421.13       -5545.9014     -5263.9288      3222.4306      51191.477      90.160471    
     23280   1436.0705     -5548.5088     -5263.5718      2962.0066      51186.755      90.20069     
     23290   1446.9197     -5550.4398     -5263.3502      2932.3077      51181.051      90.200661    
     23300   1456.6896     -5552.3342     -5263.3061      3056.6663      51173.995      90.176982    
     23310   1426.5332     -5546.458      -5263.4134      3530.3379      51165.58       90.162574    
     23320   1433.1253     -5548.0159     -5263.6633      3744.2322      51156.325      90.185845    
     23330   1428.9745     -5547.5559     -5264.0269      3777.5778      51146.979      90.253941    
     23340   1412.6974     -5544.8064     -5264.507       3782.071       51137.823      90.355915    
     23350   1402.1587     -5543.2515     -5265.0431      3801.041       51128.68       90.449241    
     23360   1407.6015     -5544.895      -5265.6067      3731.7475      51119.19       90.527335    
     23370   1420.5934     -5548.0957     -5266.2296      3650.1181      51109.117      90.598213    
     23380   1434.8655     -5551.6794     -5266.9816      3495.0347      51098.629      90.658298    
     23390   1411.0814     -5547.8273     -5267.8485      3763.3592      51088.036      90.720065    
     23400   1396.1754     -5545.8267     -5268.8055      3981.8008      51077.514      90.794146    
     23410   1371.1354     -5541.8053     -5269.7524      4258.8382      51066.8        90.854544    
     23420   1382.242      -5544.9163     -5270.6596      3995.4385      51055.668      90.874488    
     23430   1411.3696     -5551.5963     -5271.5604      3537.6042      51043.806      90.868212    
     23440   1398.5217     -5549.9524     -5272.4657      3386.0202      51030.867      90.850129    
     23450   1398.1525     -5550.8119     -5273.3984      3169.3151      51016.643      90.836106    
     23460   1395.768      -5551.2909     -5274.3505      2934.9746      51001.146      90.836228    
     23470   1366.6641     -5546.4097     -5275.2439      2997.941       50984.579      90.844347    
     23480   1367.5456     -5547.3955     -5276.0549      3021.8801      50967.305      90.864725    
     23490   1359.9439     -5546.5649     -5276.7326      3124.108       50949.638      90.898841    
     23500   1343.5682     -5543.8568     -5277.2736      3247.194       50931.742      90.925848    
     23510   1337.5302     -5542.9929     -5277.6078      3191.6821      50913.789      90.942578    
     23520   1358.5108     -5547.3248     -5277.7768      2916.9451      50895.857      90.967792    
     23530   1376.1747     -5550.8848     -5277.832       2921.4384      50877.862      91.01556     
     23540   1365.5505     -5548.7527     -5277.8079      3194.1131      50859.942      91.080725    
     23550   1338.5853     -5543.2544     -5277.6599      3314.6813      50842.233      91.130057    
     23560   1336.0083     -5542.4275     -5277.3443      3028.34        50824.657      91.13967     
     23570   1337.1616     -5542.1287     -5276.8167      2885.1535      50807.073      91.141904    
     23580   1342.3521     -5542.4004     -5276.0585      3115.9711      50789.507      91.155046    
     23590   1378.8928     -5548.6714     -5275.0793      3240.1682      50771.893      91.15334     
     23600   1408.6806     -5553.4376     -5273.9352      3482.5537      50754.052      91.124856    
     23610   1425.455      -5555.5822     -5272.7515      3757.018       50736.156      91.10574     
     23620   1411.9371     -5551.7212     -5271.5726      3939.8461      50718.586      91.112       
     23630   1398.9058     -5547.9913     -5270.4284      3983.7801      50701.399      91.135297    
     23640   1390.8849     -5545.2404     -5269.2689      4064.9454      50684.37       91.179997    
     23650   1386.9285     -5543.254      -5268.0676      4133.4199      50667.306      91.242194    
     23660   1398.59       -5544.3083     -5266.8081      4177.9513      50650.532      91.308549    
     23670   1396.2424     -5542.5568     -5265.5223      4217.1188      50634.415      91.361876    
     23680   1395.476      -5541.149      -5264.2666      4187.1699      50618.952      91.415383    
     23690   1415.2495     -5543.8645     -5263.0587      4041.3603      50604.142      91.471561    
     23700   1432.5589     -5546.2024     -5261.9622      4041.2481      50590.076      91.524868    
     23710   1431.2335     -5545.0463     -5261.069       4372.1414      50577.029      91.576214    
     23720   1453.566      -5548.8486     -5260.4403      4419.7288      50565.21       91.621939    
     23730   1438.4251     -5545.4839     -5260.0797      4634.0105      50554.06       91.659739    
     23740   1432.9915     -5544.2736     -5259.9475      4687.6424      50543.17       91.704125    
     23750   1432.0652     -5544.1263     -5259.9841      4781.9211      50532.606      91.749579    
     23760   1420.0899     -5541.9207     -5260.1545      5014.4949      50522.88       91.80024     
     23770   1418.1902     -5541.7628     -5260.3736      4986.3416      50515.027      91.866068    
     23780   1444.7732     -5547.3413     -5260.6776      4492.9563      50509.159      91.952114    
     23790   1452.6621     -5549.3199     -5261.091       4188.9573      50504.364      92.033518    
     23800   1439.116      -5547.1414     -5261.6001      4159.1095      50500.162      92.109093    
     23810   1444.8012     -5548.8684     -5262.1992      3754.6377      50496.421      92.183998    
     23820   1439.9631     -5548.5619     -5262.8526      3498.214       50492.819      92.279713    
     23830   1408.6125     -5543.0398     -5263.5509      3846.6416      50489.104      92.405561    
     23840   1394.8751     -5540.9846     -5264.2214      4304.2977      50485.465      92.542835    
     23850   1401.2537     -5542.8666     -5264.8378      4507.9454      50482.512      92.673922    
     23860   1428.2432     -5548.8501     -5265.4662      4110.9548      50480.655      92.79954     
     23870   1448.2473     -5553.5574     -5266.2044      3680.5318      50479.594      92.910354    
     23880   1429.492      -5550.7156     -5267.0839      3689.0109      50478.7        93.010518    
     23890   1451.2682     -5556.0765     -5268.1241      3302.0284      50477.626      93.128445    
     23900   1457.0664     -5558.4445     -5269.3416      3182.3705      50476.317      93.267094    
     23910   1432.3779     -5554.9237     -5270.7194      3710.7453      50474.898      93.413892    
     23920   1394.481      -5548.7992     -5272.1142      4562.3737      50473.793      93.581081    
     23930   1376.0229     -5546.4485     -5273.4258      5241.4809      50473.908      93.769274    
     23940   1362.1331     -5544.8236     -5274.5569      5338.0227      50475.972      93.95723     
     23950   1400.8043     -5553.5248     -5275.5851      4572.5151      50480.116      94.116442    
     23960   1404.4319     -5555.2251     -5276.5657      3961.2057      50485.693      94.263426    
     23970   1383.8683     -5552.1053     -5277.5261      3857.2007      50492.133      94.415169    
     23980   1386.3098     -5553.4849     -5278.4211      3531.7505      50499.285      94.575474    
     23990   1377.1033     -5552.4891     -5279.2521      3569.0427      50506.835      94.761189    
     24000   1392.3561     -5556.3113     -5280.0479      3553.7998      50514.415      94.960517    
     24010   1391.3943     -5556.9012     -5280.8287      3740.3391      50521.545      95.165073    
     24020   1386.2002     -5556.642      -5281.6         3830.5495      50528.163      95.365788    
     24030   1399.4506     -5560.0576     -5282.3866      3666.7007      50534.726      95.56219     
     24040   1397.2521     -5560.4216     -5283.1868      3547.0367      50541.529      95.753263    
     24050   1399.6609     -5561.7488     -5284.036       3453.5638      50548.396      95.941423    
     24060   1383.4795     -5559.3937     -5284.8915      3616.3984      50555.22       96.127342    
     24070   1380.9595     -5559.7529     -5285.7508      3866.069       50562.162      96.292501    
     24080   1360.4215     -5556.4607     -5286.5336      3951.4046      50569.388      96.444995    
     24090   1359.4934     -5557.021      -5287.278       3716.1465      50576.905      96.620163    
     24100   1324.7963     -5550.7577     -5287.8991      3697.6311      50584.859      96.815949    
     24110   1313.3133     -5548.8992     -5288.319       3226.4225      50593.521      96.994881    
     24120   1337.4532     -5553.9078     -5288.538       2563.046       50602.831      97.156703    
     24130   1342.277      -5554.9457     -5288.6187      2723.3253      50612.531      97.312595    
     24140   1323.7845     -5551.2217     -5288.5639      3468.1884      50622.685      97.468844    
     24150   1355.4987     -5557.3129     -5288.3625      3459.0302      50633.346      97.659957    
     24160   1381.6475     -5562.2058     -5288.0672      3203.8037      50644.218      97.90028     
     24170   1370.7105     -5559.7474     -5287.7788      3200.14        50655.134      98.160106    
     24180   1353.9291     -5556.1146     -5287.4757      3344.8242      50666.141      98.390429    
     24190   1364.559      -5557.8398     -5287.0918      3230.5202      50677.422      98.572621    
     24200   1372.9499     -5559.0564     -5286.6435      3254.9934      50688.852      98.742431    
     24210   1361.4986     -5556.3014     -5286.1606      3839.4232      50700.426      98.93207     
     24220   1355.6485     -5554.6241     -5285.6441      4471.784       50712.668      99.158214    
     24230   1345.1466     -5551.9226     -5285.0263      4743.218       50726.327      99.405578    
     24240   1345.8668     -5551.3008     -5284.2615      4575.6743      50741.528      99.651227    
     24250   1364.3168     -5554.0547     -5283.3547      3998.7864      50757.962      99.858578    
     24260   1361.2047     -5552.3811     -5282.2986      3614.8995      50775.035      100.00804    
     24270   1354.1342     -5549.8359     -5281.1563      3592.2028      50792.234      100.1266     
     24280   1353.0727     -5548.3817     -5279.9127      3734.5798      50809.715      100.23768    
     24290   1351.5738     -5546.744      -5278.5724      3922.5727      50827.696      100.37529    
     24300   1365.1543     -5548.0148     -5277.1486      3891.8373      50846.332      100.5508     
     24310   1384.1498     -5550.3812     -5275.7461      3635.9144      50865.487      100.73392    
     24320   1385.8829     -5549.4265     -5274.4475      3518.6892      50884.787      100.91554    
     24330   1371.3696     -5545.3982     -5273.2988      3494.2686      50904.074      101.10046    
     24340   1391.7072     -5548.4513     -5272.3166      3237.1546      50923.212      101.29824    
     24350   1414.159      -5552.0903     -5271.5009      2926.0147      50942.017      101.51534    
     24360   1398.3725     -5548.3978     -5270.9407      3065.1596      50960.295      101.74707    
     24370   1383.0417     -5544.9803     -5270.5651      3041.2079      50978.29       101.97936    
     24380   1389.315      -5545.9768     -5270.3168      2747.1267      50996.387      102.20225    
     24390   1366.5005     -5541.2772     -5270.1439      2720.9992      51014.588      102.43259    
     24400   1381.6447     -5544.1593     -5270.0212      2556.7449      51032.569      102.65411    
     24410   1398.737      -5547.4728     -5269.9433      2386.7934      51049.985      102.83058    
     24420   1392.4408     -5546.246      -5269.9658      2575.7429      51066.756      102.9695     
     24430   1372.4329     -5542.377      -5270.0666      3001.6833      51082.69       103.07799    
     24440   1329.1024     -5533.8636     -5270.1507      3601.4112      51097.634      103.16273    
     24450   1327.2755     -5533.4894     -5270.1389      3817.52        51111.624      103.25219    
     24460   1352.2227     -5538.2878     -5269.9875      3520.6405      51124.96       103.37937    
     24470   1366.5025     -5540.937      -5269.8033      3269.7642      51137.915      103.53069    
     24480   1373.9446     -5542.2382     -5269.6279      3001.1         51150.497      103.68002    
     24490   1392.0053     -5545.6674     -5269.4736      2659.0057      51162.815      103.84032    
     24500   1410.1719     -5549.2584     -5269.4601      2464.6571      51175.052      104.03236    
     24510   1397.1558     -5546.8026     -5269.5869      2694.0087      51187.484      104.24466    
     24520   1385.1911     -5544.6405     -5269.7988      2861.3085      51200.267      104.45149    
     24530   1407.1346     -5549.3068     -5270.1111      2855.3973      51213.173      104.64675    
     24540   1372.7701     -5542.9087     -5270.5314      3167.3747      51225.979      104.81754    
     24550   1361.1852     -5541.0681     -5270.9895      2906.5321      51238.833      104.95783    
     24560   1368.3136     -5542.9453     -5271.4523      2370.2615      51251.643      105.08764    
     24570   1342.2092     -5538.2153     -5271.9018      2396.4196      51264.034      105.20542    
     24580   1340.6286     -5538.2996     -5272.2997      2358.7274      51275.729      105.32152    
     24590   1361.3618     -5542.7512     -5272.6375      2198.0782      51286.383      105.43161    
     24600   1366.0928     -5544.0322     -5272.9798      2305.3774      51295.718      105.53053    
     24610   1371.3763     -5545.4645     -5273.3638      2642.3993      51303.964      105.62723    
     24620   1373.0432     -5546.2291     -5273.7977      3105.4529      51311.733      105.72746    
     24630   1370.5246     -5546.239      -5274.3073      3403.2663      51319.376      105.82425    
     24640   1383.2221     -5549.3533     -5274.9022      3128.0528      51326.747      105.89369    
     24650   1380.063      -5549.4434     -5275.6191      2892.3225      51333.295      105.93965    
     24660   1401.9885     -5554.7087     -5276.5342      2450.597       51338.776      105.98511    
     24670   1404.4587     -5556.3501     -5277.6854      2223.7426      51343.231      106.03649    
     24680   1395.6704     -5556.0597     -5279.1387      2232.6523      51346.646      106.0899     
     24690   1375.8517     -5553.7987     -5280.81        2269.7792      51348.952      106.15478    
     24700   1369.2378     -5554.3055     -5282.6292      2057.9941      51350.137      106.24694    
     24710   1346.2282     -5551.5414     -5284.4304      2153.9384      51350.179      106.37092    
     24720   1336.5936     -5551.2352     -5286.0359      2213.7055      51349.152      106.50231    
     24730   1347.9203     -5554.8699     -5287.4232      2133.9724      51346.923      106.617      
     24740   1333.8262     -5553.1619     -5288.5117      2327.3257      51343.2        106.71251    
     24750   1350.1846     -5557.2502     -5289.3543      2289.8671      51338.094      106.79358    
     24760   1357.5759     -5559.3585     -5289.996       2262.952       51331.616      106.86745    
     24770   1362.3422     -5560.8164     -5290.5082      2229.2104      51323.726      106.93631    
     24780   1356.9952     -5560.1876     -5290.9403      2267.0227      51314.339      106.99667    
     24790   1337.1364     -5556.5955     -5291.2884      2393.9833      51303.19       107.04549    
     24800   1354.2906     -5560.262      -5291.5513      2128.7195      51290.045      107.09487    
     24810   1361.7902     -5561.9839     -5291.7852      2024.6946      51274.556      107.14518    
     24820   1349.9351     -5559.8335     -5291.987       2512.9863      51256.722      107.17637    
     24830   1343.7833     -5558.7858     -5292.1599      2984.1824      51236.911      107.18105    
     24840   1349.7324     -5560.1019     -5292.2957      2903.5128      51215.548      107.14523    
     24850   1334.1423     -5557.0939     -5292.3809      2673.9481      51193.009      107.08562    
     24860   1348.2065     -5559.9133     -5292.4098      2090.5899      51169.799      107.03111    
     24870   1336.1909     -5557.5223     -5292.4029      1781.7772      51145.934      106.97422    
     24880   1330.049      -5556.2549     -5292.3541      1692.1256      51121.077      106.91547    
     24890   1326.6785     -5555.4679     -5292.2359      1747.3281      51094.943      106.85698    
     24900   1324.2226     -5554.7563     -5292.0116      1754.0958      51067.492      106.80699    
     24910   1361.5167     -5561.8802     -5291.7358      1568.8375      51038.439      106.74573    
     24920   1352.5536     -5559.7965     -5291.4305      1989.143       51007.633      106.67487    
     24930   1344.133      -5557.8102     -5291.1149      2525.7459      50975.608      106.58547    
     24940   1325.5776     -5553.7559     -5290.7423      3088.0547      50943.1        106.48321    
     24950   1311.1546     -5550.4277     -5290.2759      3402.9954      50910.441      106.38875    
     24960   1331.0311     -5553.7859     -5289.6902      3296.617       50877.383      106.28083    
     24970   1337.1548     -5554.2986     -5288.9879      3176.8554      50843.664      106.14161    
     24980   1331.0348     -5552.2939     -5288.1976      3210.0749      50809.24       105.9765     
     24990   1341.6952     -5553.5482     -5287.3367      3278.0901      50774.211      105.79309    
     25000   1336.7614     -5551.6018     -5286.3692      3665.0291      50738.779      105.59997    
     25010   1361.2368     -5555.4661     -5285.3772      3940.9493      50703.378      105.41089    
     25020   1364.2869     -5555.0468     -5284.3527      4367.8486      50668.526      105.26115    
     25030   1373.9103     -5555.989      -5283.3855      4763.6198      50634.815      105.17461    
     25040   1394.1479     -5559.1399     -5282.521       5004.2007      50602.587      105.14692    
     25050   1402.4948     -5560.0975     -5281.8225      5079.3953      50571.733      105.14561    
     25060   1391.3332     -5557.3777     -5281.3172      5105.0233      50541.961      105.11816    
     25070   1406.3173     -5560.0419     -5281.0084      4739.8504      50513.24       105.02855    
     25080   1415.0724     -5561.6653     -5280.8947      4308.1768      50485.611      104.89594    
     25090   1407.4473     -5560.2946     -5281.0369      4017.5856      50459.063      104.78369    
     25100   1387.8427     -5556.7742     -5281.4063      3847.8825      50433.378      104.71364    
     25110   1361.7495     -5552.0837     -5281.8931      3795.7019      50408.693      104.6493     
     25120   1360.9773     -5552.4807     -5282.4433      3816.8867      50385.494      104.58278    
     25130   1370.4913     -5555.009      -5283.0839      4055.7002      50363.725      104.52788    
     25140   1370.4095     -5555.7404     -5283.8315      4411.6111      50343.152      104.46664    
     25150   1362.3078     -5554.9984     -5284.697       4415.3754      50323.756      104.40683    
     25160   1356.9081     -5554.8823     -5285.6523      4151.8616      50305.721      104.39772    
     25170   1347.9852     -5554.1364     -5286.6768      3768.5022      50289.017      104.42873    
     25180   1339.9315     -5553.6079     -5287.7463      3536.9547      50273.311      104.46008    
     25190   1335.7332     -5553.8372     -5288.8086      3667.8722      50258.362      104.48701    
     25200   1339.4623     -5555.6353     -5289.8667      3835.7188      50244.249      104.51127    
     25210   1326.9596     -5554.1682     -5290.8804      4071.2969      50231.206      104.54035    
     25220   1320.2838     -5553.7852     -5291.8219      4103.1124      50219.159      104.59176    
     25230   1323.1663     -5555.198      -5292.6629      3860.4393      50207.598      104.67732    
     25240   1313.6872     -5554.043      -5293.3886      3889.9822      50196.196      104.75844    
     25250   1326.7605     -5557.24       -5293.9917      3657.1278      50185.236      104.80292    
     25260   1337.4494     -5559.876      -5294.5069      3741.2242      50175.206      104.80798    
     25270   1334.8758     -5559.7994     -5294.941       4382.5255      50166.488      104.80649    
     25280   1351.9622     -5563.5842     -5295.3356      4749.8601      50159.534      104.84886    
     25290   1368.7154     -5567.2892     -5295.7165      4933.6089      50154.736      104.96556    
     25300   1368.9471     -5567.736      -5296.1173      5054.0395      50152.06       105.13638    
     25310   1395.4213     -5573.458      -5296.5864      4880.5899      50151.28       105.30554    
     25320   1396.1365     -5574.1443     -5297.1308      4603.1339      50152.374      105.45645    
     25330   1371.3548     -5569.8296     -5297.7331      4363.126       50155.358      105.58669    
     25340   1331.8181     -5562.5035     -5298.2518      4017.6166      50160.082      105.69757    
     25350   1324.6808     -5561.4675     -5298.6319      3557.3368      50166.18       105.79261    
     25360   1313.0286     -5559.3977     -5298.874       3522.4859      50173.099      105.89523    
     25370   1319.6192     -5560.8179     -5298.9865      3657.0419      50180.327      106.02153    
     25380   1318.7708     -5560.6816     -5299.0186      3920.2501      50187.681      106.14346    
     25390   1301.451      -5557.2056     -5298.9791      4033.1932      50195.771      106.25068    
     25400   1296.028      -5555.9806     -5298.8301      4150.2524      50205.249      106.37136    
     25410   1310.1548     -5558.5254     -5298.5719      4276.3483      50216.248      106.52166    
     25420   1313.9015     -5558.9282     -5298.2314      4239.1766      50228.716      106.68528    
     25430   1312.2143     -5558.1863     -5297.8242      4039.8031      50242.349      106.82265    
     25440   1326.5039     -5560.5546     -5297.3572      3567.0639      50256.663      106.92418    
     25450   1329.0169     -5560.5406     -5296.8447      3236.0056      50271.163      107.01713    
     25460   1339.5643     -5562.1172     -5296.3284      3131.2047      50285.427      107.12649    
     25470   1300.3734     -5553.8148     -5295.8021      3826.4521      50299.609      107.2647     
     25480   1271.4236     -5547.4618     -5295.1931      4404.0511      50314.343      107.43948    
     25490   1304.6524     -5553.2736     -5294.4118      4465.8524      50329.957      107.63741    
     25500   1340.1779     -5559.4149     -5293.5044      4278.1432      50346.493      107.82726    
     25510   1341.3234     -5558.7407     -5292.6029      4243.7203      50363.667      107.99092    
     25520   1330.9169     -5555.7942     -5291.7212      4115.2545      50381.252      108.12419    
     25530   1322.6951     -5553.3197     -5290.878       4018.5734      50399.177      108.26158    
     25540   1327.5556     -5553.4281     -5290.0221      4088.959       50417.447      108.42605    
     25550   1341.427      -5555.3221     -5289.1638      4225.0446      50436.218      108.64061    
     25560   1387.9434     -5563.7684     -5288.3806      4114.6104      50455.837      108.91416    
     25570   1369.2663     -5559.4406     -5287.7585      4401.1118      50476.59       109.22943    
     25580   1348.9313     -5554.9655     -5287.3182      4441.6667      50498.579      109.57634    
     25590   1361.175      -5557.0291     -5286.9524      3747.994       50521.674      109.90998    
     25600   1372.0016     -5558.896      -5286.6712      3116.8483      50545.096      110.21655    
     25610   1356.6918     -5555.707      -5286.52        2830.986       50568.008      110.49241    
     25620   1354.9056     -5555.2954     -5286.4627      2705.3903      50589.865      110.70853    
     25630   1347.1353     -5553.7727     -5286.4818      2940.4299      50610.206      110.85885    
     25640   1341.3454     -5552.6851     -5286.5429      2875.4537      50628.814      110.9575     
     25650   1358.8772     -5556.2937     -5286.673       2517.5622      50645.539      111.02639    
     25660   1361.2572     -5557.0005     -5286.9076      2316.5003      50660.281      111.08547    
     25670   1357.4017     -5556.5896     -5287.2617      2311.4843      50673.078      111.12566    
     25680   1393.1732     -5564.2277     -5287.8022      2237.8762      50684.141      111.13627    
     25690   1388.6642     -5564.1277     -5288.5968      2581.2068      50693.673      111.1392     
     25700   1361.9448     -5559.8727     -5289.6433      3186.9935      50701.949      111.15877    
     25710   1358.7278     -5560.4795     -5290.8884      3268.8719      50709.212      111.21898    
     25720   1344.8621     -5559.126      -5292.2861      3355.6502      50715.342      111.31736    
     25730   1341.2084     -5559.8778     -5293.7628      3274.4049      50720.282      111.45095    
     25740   1337.9911     -5560.7106     -5295.234       3119.041       50724.217      111.61612    
     25750   1323.6698     -5559.2644     -5296.6294      2985.5259      50727.52       111.77473    
     25760   1325.8682     -5560.9607     -5297.8895      2749.1124      50730.36       111.89241    
     25770   1324.3109     -5561.7371     -5298.9748      2576.0582      50732.547      111.97798    
     25780   1312.5552     -5560.3011     -5299.8714      2537.3452      50733.795      112.04262    
     25790   1312.1259     -5560.9058     -5300.5612      2371.7986      50733.886      112.09399    
     25800   1310.8325     -5561.1801     -5301.0921      2323.555       50732.616      112.12711    
     25810   1289.7751     -5557.3781     -5301.4682      2581.4511      50730.051      112.15992    
     25820   1297.0508     -5559.0366     -5301.6832      2365.8075      50726.688      112.21024    
     25830   1303.7656     -5560.4568     -5301.771       2221.8419      50722.653      112.25679    
     25840   1303.6238     -5560.4319     -5301.7743      2506.9693      50717.997      112.2758     
     25850   1292.576      -5558.1797     -5301.7141      3167.1496      50713.288      112.28594    
     25860   1287.2318     -5556.947      -5301.5418      3612.9408      50709.022      112.32373    
     25870   1318.0034     -5562.8027     -5301.292       3450.8554      50705.314      112.38572    
     25880   1319.9086     -5562.8965     -5301.0077      3304.2714      50702.076      112.46272    
     25890   1327.9336     -5564.2244     -5300.7433      3186.1067      50699.271      112.56869    
     25900   1324.3057     -5563.2535     -5300.4923      3197.741       50696.645      112.70614    
     25910   1333.7481     -5564.9084     -5300.2737      3494.537       50693.887      112.85536    
     25920   1322.3905     -5562.4585     -5300.0773      4089.1089      50691.173      112.98528    
     25930   1343.8305     -5566.5619     -5299.9267      4078.2909      50688.933      113.08492    
     25940   1343.9169     -5566.4641     -5299.8117      4143.8625      50687.022      113.15548    
     25950   1325.4104     -5562.7496     -5299.7692      4208.7018      50685.348      113.1834     
     25960   1328.8812     -5563.4293     -5299.7603      3915.595       50684.213      113.2028     
     25970   1309.447      -5559.5779     -5299.7648      3741.382       50683.69       113.24135    
     25980   1288.1002     -5555.3038     -5299.7263      3645.4282      50683.876      113.29946    
     25990   1292.7189     -5556.0875     -5299.5936      3512.0849      50684.812      113.39083    
     26000   1299.7535     -5557.244      -5299.3543      3368.3605      50686.122      113.49712    
     26010   1292.0026     -5555.3716     -5299.0198      3609.5111      50687.204      113.60263    
     26020   1277.8292     -5552.101      -5298.5613      3983.2627      50687.829      113.69668    
     26030   1288.3378     -5553.5632     -5297.9386      4071.6967      50688.233      113.78712    
     26040   1315.7133     -5558.2086     -5297.1523      4009.5961      50688.666      113.88803    
     26050   1327.4226     -5559.6475     -5296.2678      3902.5226      50689.173      114.00646    
     26060   1329.3242     -5559.0905     -5295.3335      3892.1196      50689.859      114.14013    
     26070   1318.8076     -5556.0183     -5294.348       3850.8076      50690.771      114.24869    
     26080   1353.7478     -5561.9626     -5293.3597      3172.5041      50691.705      114.29893    
     26090   1365.8317     -5563.3901     -5292.3896      2782.0274      50692.109      114.31826    
     26100   1376.5374     -5564.6755     -5291.5508      2757.9802      50691.699      114.3357     
     26110   1387.8765     -5566.259      -5290.8845      2752.0369      50690.555      114.35552    
     26120   1399.9252     -5568.2        -5290.4347      2625.1804      50688.731      114.39127    
     26130   1423.4335     -5572.7278     -5290.2982      2549.0024      50686.205      114.43645    
     26140   1397.2655     -5567.7682     -5290.5307      3079.3708      50683.138      114.47473    
     26150   1374.237      -5563.7812     -5291.113       3582.7503      50680.018      114.46046    
     26160   1357.9646     -5561.3877     -5291.9481      3853.9677      50677.111      114.41647    
     26170   1383.5417     -5567.6378     -5293.1233      3516.1175      50674.475      114.41317    
     26180   1366.3006     -5565.7544     -5294.6608      3423.7971      50671.898      114.4551     
     26190   1348.5427     -5564.0603     -5296.4901      3241.239       50669.161      114.50934    
     26200   1333.4841     -5563.0459     -5298.4635      2892.2329      50666.114      114.5587     
     26210   1318.8543     -5562.0652     -5300.3856      2571.6537      50662.707      114.58848    
     26220   1310.4675     -5562.1168     -5302.1013      2450.3391      50658.657      114.59656    
     26230   1287.4209     -5558.9103     -5303.4675      2759.7609      50653.778      114.59453    
     26240   1298.2948     -5562.0824     -5304.4821      2812.2047      50648.534      114.60786    
     26250   1313.9309     -5565.9291     -5305.2264      2678.5825      50643.469      114.65039    
     26260   1303.3669     -5564.3994     -5305.7928      2750.631       50638.94       114.71125    
     26270   1313.5632     -5566.8706     -5306.2409      2718.805       50634.871      114.77943    
     26280   1309.0725     -5566.3359     -5306.5972      2423.0233      50630.424      114.83792    
     26290   1304.9665     -5565.8188     -5306.8948      2085.9854      50624.785      114.87063    
     26300   1297.2558     -5564.5481     -5307.154       2026.1986      50617.576      114.8785     
     26310   1289.4135     -5563.1499     -5307.3118      2227.0314      50608.881      114.89033    
     26320   1288.4102     -5563.0514     -5307.4123      2617.0526      50599.263      114.92868    
     26330   1257.742      -5556.9456     -5307.3915      3187.0883      50589.464      114.99111    
     26340   1270.5919     -5559.3523     -5307.2487      3086.6039      50579.753      115.03414    
     26350   1293.4018     -5563.5923     -5306.9628      2809.0472      50569.932      115.03566    
     26360   1301.8704     -5564.9198     -5306.6101      2781.3748      50559.979      115.03708    
     26370   1299.495      -5564.0713     -5306.2329      2966.233       50550.252      115.07958    
     26380   1300.6248     -5563.8871     -5305.8245      2954.9846      50540.951      115.14516    
     26390   1307.661      -5564.8367     -5305.378       2705.3971      50531.855      115.20725    
     26400   1316.4699     -5566.1356     -5304.9291      2735.0585      50522.545      115.24569    
     26410   1316.6435     -5565.7419     -5304.501       3023.2241      50512.679      115.25846    
     26420   1299.7892     -5561.9762     -5304.0794      3450.4105      50502.279      115.26229    
     26430   1311.6686     -5563.9039     -5303.6501      3759.5547      50491.587      115.25312    
     26440   1319.4063     -5564.9857     -5303.1966      3928.3377      50480.773      115.25029    
     26450   1338.8624     -5568.442      -5302.7925      3740.0086      50469.932      115.26376    
     26460   1331.3457     -5566.6263     -5302.4683      3751.9986      50458.771      115.28845    
     26470   1323.407      -5564.8107     -5302.2278      3538.6078      50447.113      115.31781    
     26480   1340.7388     -5568.0762     -5302.0544      3259.7379      50434.82       115.34241    
     26490   1330.1373     -5565.9045     -5301.9862      3426.8502      50421.516      115.38132    
     26500   1315.4717     -5563.0001     -5301.9917      3708.6732      50407.235      115.43471    
     26510   1309.9092     -5561.9553     -5302.0506      3888.0515      50392.44       115.48187    
     26520   1293.0812     -5558.6873     -5302.1214      3883.3585      50377.367      115.5214     
     26530   1281.1105     -5556.3512     -5302.1605      3855.0027      50362.225      115.56392    
     26540   1281.106      -5556.3036     -5302.1138      3816.7021      50347.356      115.61779    
     26550   1299.2909     -5559.7837     -5301.9858      3664.1716      50333.188      115.68661    
     26560   1279.4998     -5555.6554     -5301.7843      3827.4764      50319.895      115.76217    
     26570   1297.8987     -5559.0396     -5301.5179      3783.8778      50307.491      115.82291    
     26580   1292.977      -5557.7106     -5301.1654      3879.4711      50295.987      115.87954    
     26590   1304.7258     -5559.6295     -5300.7532      3884.6635      50285.569      115.92842    
     26600   1312.9949     -5560.7845     -5300.2675      3873.8622      50276.328      115.96237    
     26610   1316.3833     -5560.9475     -5299.7582      3898.2356      50268.204      115.97751    
     26620   1350.484      -5567.2039     -5299.2485      3906.1741      50261.12       115.9788     
     26630   1350.9503     -5566.8673     -5298.8194      4269.3511      50255.157      115.96812    
     26640   1332.9552     -5563.0085     -5298.5311      4364.6841      50250.859      115.96276    
     26650   1332.5238     -5562.7269     -5298.3351      4058.8043      50248.336      115.97997    
     26660   1316.4933     -5559.4325     -5298.2214      4059.8197      50247.113      116.03693    
     26670   1317.267      -5559.5431     -5298.1785      4017.9368      50247.094      116.14823    
     26680   1326.9999     -5561.4965     -5298.2007      4058.9126      50248.275      116.28831    
     26690   1323.9691     -5561.0039     -5298.3095      4253.3363      50250.544      116.42135    
     26700   1337.8074     -5563.9775     -5298.5374      4229.9531      50253.677      116.53916    
     26710   1317.2432     -5560.2737     -5298.9138      4380.4773      50257.456      116.63677    
     26720   1287.9055     -5554.9406     -5299.4016      4398.6324      50262.03       116.73094    
     26730   1296.584      -5557.1884     -5299.9275      4121.9126      50267.352      116.84378    
     26740   1302.1843     -5558.8466     -5300.4745      3796.7991      50273.058      116.95793    
     26750   1304.1774     -5559.8741     -5301.1067      3639.6669      50278.735      117.07773    
     26760   1295.8151     -5558.9132     -5301.8049      3741.8207      50284.216      117.20519    
     26770   1270.113      -5554.5403     -5302.5317      4311.39        50289.581      117.32424    
     26780   1268.1546     -5554.8527     -5303.2326      4723.4672      50295.245      117.42473    
     26790   1257.3871     -5553.3486     -5303.865       5210.3953      50301.703      117.52624    
     26800   1264.2825     -5555.2592     -5304.4074      5301.754       50309.302      117.64158    
     26810   1317.8832     -5566.3989     -5304.912       4655.812       50318.445      117.7773     
     26820   1324.7052     -5568.312      -5305.4715      4312.3892      50329.04       117.92775    
     26830   1317.1808     -5567.5349     -5306.1874      4012.7907      50340.727      118.08871    
     26840   1311.6863     -5567.2599     -5307.0025      3615.0106      50352.881      118.25592    
     26850   1307.6206     -5567.3643     -5307.9136      3132.0142      50364.843      118.44821    
     26860   1292.0847     -5565.2552     -5308.8871      2806.8889      50376.292      118.66407    
     26870   1273.7198     -5562.564      -5309.8397      2710.6166      50387.184      118.87546    
     26880   1281.2487     -5564.9773     -5310.7592      2787.1063      50397.67       119.0527     
     26890   1259.1834     -5561.436      -5311.596       3318.8907      50407.88       119.1969     
     26900   1253.9917     -5561.135      -5312.3251      3705.4786      50417.924      119.33641    
     26910   1236.9629     -5558.3309     -5312.8998      3782.8521      50427.768      119.5037     
     26920   1238.4921     -5559.0033     -5313.2687      3569.0235      50437.493      119.67797    
     26930   1252.4088     -5561.9886     -5313.4928      3310.0063      50447.328      119.84532    
     26940   1250.6888     -5561.7041     -5313.5495      3341.1675      50457.151      120.00817    
     26950   1247.4516     -5560.9878     -5313.4755      3632.7064      50466.649      120.16708    
     26960   1247.5442     -5560.7992     -5313.2686      3764.84        50475.894      120.30954    
     26970   1254.7566     -5561.8748     -5312.9131      3590.4495      50485.112      120.42485    
     26980   1252.0034     -5560.8098     -5312.3944      3491.5786      50494.343      120.51179    
     26990   1268.6807     -5563.4645     -5311.7401      3239.7134      50503.409      120.58116    
     27000   1271.0111     -5563.1316     -5310.9448      3227.5141      50512.052      120.66183    
     27010   1283.9847     -5564.8059     -5310.0449      3225.5026      50520.418      120.75086    
     27020   1292.0166     -5565.4266     -5309.072       3205.3245      50528.595      120.82309    
     27030   1301.2621     -5566.2345     -5308.0455      3299.3281      50536.507      120.89598    
     27040   1313.2418     -5567.5844     -5307.0184      3511.2964      50543.963      120.98462    
     27050   1286.3895     -5561.2599     -5306.0218      3981.7957      50550.94       121.08206    
     27060   1295.4722     -5562.0894     -5305.0491      3870.1965      50557.603      121.17603    
     27070   1314.7692     -5564.9502     -5304.0812      3532.834       50563.862      121.29474    
     27080   1311.2147     -5563.3568     -5303.193       3467.0283      50569.782      121.44827    
     27090   1305.432      -5561.4181     -5302.4017      3447.4358      50575.611      121.60012    
     27100   1316.6065     -5562.9229     -5301.6893      3297.4847      50581.264      121.72281    
     27110   1318.788      -5562.7463     -5301.0799      3255.9916      50586.602      121.83033    
     27120   1330.7866     -5564.6594     -5300.6123      3091.6221      50591.277      121.93797    
     27130   1335.0031     -5565.197      -5300.3133      3037.6103      50594.819      122.06714    
     27140   1319.1303     -5561.9136     -5300.1792      3034.7555      50597.117      122.21257    
     27150   1325.614      -5563.1968     -5300.176       2899.2162      50598.221      122.3316     
     27160   1330.3909     -5564.2936     -5300.325       2882.4471      50598.241      122.41389    
     27170   1302.7938     -5559.0941     -5300.6012      3339.4747      50597.535      122.46617    
     27180   1311.8828     -5561.2701     -5300.9738      3667.1013      50596.572      122.4685     
     27190   1311.5571     -5561.6708     -5301.4391      3915.2384      50595.531      122.43713    
     27200   1307.1205     -5561.3708     -5302.0194      4024.3436      50594.534      122.40924    
     27210   1305.9309     -5561.8176     -5302.7022      3789.432       50593.667      122.40604    
     27220   1310.6407     -5563.5623     -5303.5124      3504.7936      50592.893      122.44573    
     27230   1302.8248     -5562.9789     -5304.4798      3458.4219      50592.061      122.53181    
     27240   1287.8944     -5561.1222     -5305.5855      3385.7819      50591.022      122.64399    
     27250   1276.6279     -5560.1085     -5306.8073      3253.1506      50589.622      122.76278    
     27260   1281.9355     -5562.4922     -5308.1378      2960.2847      50587.774      122.86029    
     27270   1289.1807     -5565.4164     -5309.6245      2856.335       50585.257      122.9163     
     27280   1271.9757     -5563.6113     -5311.2331      3046.0309      50582.053      122.94889    
     27290   1257.6133     -5562.4219     -5312.8934      3213.1289      50578.457      122.97096    
     27300   1255.7289     -5563.63       -5314.4754      3085.2572      50574.856      122.97971    
     27310   1257.2873     -5565.3721     -5315.9083      2934.4372      50571.109      122.9917     
     27320   1241.4833     -5563.4385     -5317.1104      3258.4555      50566.722      123.02123    
     27330   1238.2402     -5563.6641     -5317.9795      3527.561       50561.735      123.07091    
     27340   1270.8236     -5570.7191     -5318.5695      3217.3586      50556.38       123.13696    
     27350   1286.4559     -5574.223      -5318.9717      3029.985       50550.52       123.22012    
     27360   1288.3111     -5574.8906     -5319.2713      3009.9759      50544.15       123.29649    
     27370   1279.6709     -5573.402      -5319.4969      3088.0236      50537.426      123.33994    
     27380   1276.3212     -5572.908      -5319.6676      3040.4268      50530.431      123.35741    
     27390   1287.6021     -5575.2773     -5319.7986      2751.3582      50523.302      123.36024    
     27400   1274.8354     -5572.8655     -5319.9199      2753.0157      50516.154      123.33961    
     27410   1259.1712     -5569.8435     -5320.0059      2641.3144      50509.063      123.31743    
     27420   1259.6134     -5569.9768     -5320.0515      2397.9385      50502.091      123.32607    
     27430   1232.9142     -5564.6426     -5320.0147      2605.0928      50495.105      123.37231    
     27440   1218.9002     -5561.6836     -5319.8363      2949.7314      50488.2        123.43553    
     27450   1241.2381     -5565.7789     -5319.4995      2974.7438      50481.676      123.49351    
     27460   1257.4839     -5568.5076     -5319.0047      2877.5713      50475.757      123.54767    
     27470   1290.612      -5574.5446     -5318.4686      2436.9534      50470.487      123.5782     
     27480   1282.2385     -5572.3612     -5317.9467      2712.8629      50465.564      123.57389    
     27490   1260.779      -5567.6111     -5317.4545      3365.6457      50461.061      123.56471    
     27500   1263.7696     -5567.6638     -5316.9138      3412.5163      50457.234      123.5681     
     27510   1300.0787     -5574.312      -5316.3578      2829.8522      50453.784      123.5923     
     27520   1285.5277     -5570.8964     -5315.8293      2523.0857      50449.868      123.62337    
     27530   1272.6693     -5567.8813     -5315.3655      2162.9419      50444.851      123.63802    
     27540   1267.7537     -5566.4425     -5314.902       1799.8845      50438.244      123.60778    
     27550   1252.4367     -5562.9023     -5314.401       1864.9741      50429.758      123.54038    
     27560   1276.7743     -5567.1815     -5313.8512      1949.7019      50419.679      123.46143    
     27570   1273.2121     -5565.8888     -5313.2653      2370.8781      50408.347      123.39013    
     27580   1260.0759     -5562.709      -5312.6919      3020.9462      50395.99       123.34377    
     27590   1264.9228     -5563.0518     -5312.073       3303.6988      50383.031      123.34267    
     27600   1286.5102     -5566.6882     -5311.4262      3182.2965      50369.681      123.36295    
     27610   1272.7622     -5563.3275     -5310.7933      3280.1674      50355.749      123.38288    
     27620   1265.2306     -5561.209      -5310.1691      3372.194       50341.025      123.42028    
     27630   1275.7997     -5562.6584     -5309.5215      3249.7666      50325.707      123.45275    
     27640   1313.9525     -5569.6025     -5308.8955      3043.9517      50309.872      123.46057    
     27650   1320.1413     -5570.3093     -5308.3744      3391.8727      50293.427      123.47316    
     27660   1332.4164     -5572.4066     -5308.0361      3839.1493      50276.639      123.50436    
     27670   1345.1265     -5574.7954     -5307.903       3931.8903      50260.141      123.5526     
[...]
     48200   1190.526      -5528.0815     -5291.8641      11.093846      60044.607      410.13188    
     48210   1179.6273     -5526.8313     -5292.7764     -176.16153      60066.239      410.39632    
     48220   1173.9075     -5526.4999     -5293.5798     -261.7543       60086.891      410.63276    
     48230   1187.4875     -5529.887      -5294.2724     -508.96265      60106.129      410.86514    
     48240   1187.493      -5530.493      -5294.8774     -574.79349      60123.091      411.11213    
     48250   1182.654      -5530.0525     -5295.397      -526.45571      60137.445      411.3498     
     48260   1194.9798     -5532.9441     -5295.843      -567.31638      60149.363      411.55463    
     48270   1188.438      -5532.0256     -5296.2225     -472.90844      60158.831      411.7481     
     48280   1179.9889     -5530.6655     -5296.5388     -385.46546      60166.193      411.95403    
     48290   1177.0053     -5530.303      -5296.7683     -329.37241      60171.807      412.15981    
     48300   1166.9919     -5528.4287     -5296.8808     -212.7317       60175.986      412.35914    
     48310   1171.7392     -5529.3607     -5296.8709     -273.28396      60179.165      412.56371    
     48320   1183.9003     -5531.6624     -5296.7596     -415.11263      60181.117      412.76325    
     48330   1183.218      -5531.3562     -5296.5888     -229.26437      60181.457      412.93644    
     48340   1178.3456     -5530.1653     -5296.3646      48.730943      60180.833      413.08032    
     48350   1179.2263     -5530.058      -5296.0826      346.79097      60180.408      413.20771    
     48360   1183.2095     -5530.5176     -5295.7519      450.20854      60181.415      413.33158    
     48370   1188.4874     -5531.2123     -5295.3994      507.65984      60184.351      413.46985    
     48380   1190.9969     -5531.3562     -5295.0454      493.17016      60189.405      413.62018    
     48390   1184.3599     -5529.7057     -5294.7117      619.93602      60196.619      413.78524    
     48400   1164.7336     -5525.4668     -5294.367       702.62065      60206.435      413.98186    
     48410   1162.614      -5524.6542     -5293.9749      581.99532      60219.116      414.20883    
     48420   1164.5535     -5524.593      -5293.5289      399.4712       60234.172      414.44232    
     48430   1171.0444     -5525.4071     -5293.0551      235.53163      60250.855      414.64775    
     48440   1171.2953     -5524.9688     -5292.567       126.81159      60268.453      414.82345    
     48450   1177.5939     -5525.7415     -5292.09        4.0121827      60286.478      415.03303    
     48460   1183.8859     -5526.52       -5291.6201     -180.74333      60304.384      415.31274    
     48470   1186.8362     -5526.661      -5291.1757     -301.22139      60321.421      415.63362    
     48480   1172.2693     -5523.338      -5290.743      -266.83297      60337.134      415.96071    
     48490   1173.6797     -5523.1589     -5290.2841     -392.51985      60351.522      416.24502    
     48500   1175.4429     -5523.004      -5289.7793     -558.74853      60364.163      416.43692    
     48510   1170.3484     -5521.4443     -5289.2305     -577.70579      60374.419      416.53448    
     48520   1169.5517     -5520.6782     -5288.6224     -518.00537      60382.169      416.58423    
     48530   1183.3846     -5522.7407     -5287.9403     -438.0032       60387.685      416.66539    
     48540   1199.892      -5525.3126     -5287.2369     -338.53879      60391.318      416.82105    
     48550   1202.0509     -5525.0636     -5286.5595     -208.32318      60393.481      416.99942    
     48560   1207.146      -5525.4313     -5285.9162     -184.2557       60394.678      417.15225    
     48570   1222.643      -5527.9263     -5285.3364     -394.78144      60394.979      417.27314    
     48580   1221.2768     -5527.1759     -5284.8571     -602.81494      60393.597      417.36679    
     48590   1204.9975     -5523.5599     -5284.4712     -707.91378      60389.705      417.43595    
     48600   1187.435      -5519.7228     -5284.1187     -713.48033      60382.84       417.47481    
     48610   1186.9916     -5519.2496     -5283.7335     -625.99127      60372.941      417.44449    
     48620   1209.2261     -5523.241      -5283.3132     -390.09945      60360.392      417.34492    
     48630   1202.2062     -5521.4202     -5282.8852      263.31454      60346.396      417.27349    
     48640   1213.9334     -5523.3538     -5282.492       710.58141      60333.484      417.30051    
     48650   1216.1107     -5523.4156     -5282.1219      1023.3386      60323.629      417.42166    
     48660   1223.9972     -5524.6802     -5281.8216      1099.922       60318.046      417.6086     
     48670   1222.374      -5524.1305     -5281.594       1100.9182      60317.183      417.81012    
     48680   1228.6793     -5525.2588     -5281.4712      943.61481      60321.007      417.96717    
     48690   1231.763      -5525.8568     -5281.4574      782.71618      60328.916      418.07701    
     48700   1219.6163     -5523.55       -5281.5607      717.72421      60340.225      418.19806    
     48710   1211.2603     -5522.0977     -5281.7663      520.2078       60354.552      418.38846    
     48720   1209.2951     -5521.972      -5282.0306      301.30711      60371.122      418.62272    
     48730   1211.2123     -5522.6821     -5282.3603      200.73542      60389.028      418.87157    
     48740   1206.5838     -5522.172      -5282.7685      385.93072      60407.946      419.13059    
     48750   1213.5944     -5524.0459     -5283.2514      454.8263       60428.481      419.40915    
     48760   1223.0707     -5526.5244     -5283.8497      274.24045      60450.843      419.68475    
     48770   1215.6293     -5525.8158     -5284.6175      152.58693      60474.401      419.92653    
     48780   1184.7671     -5520.5955     -5285.5207      58.589207      60498.629      420.15143    
     48790   1158.0542     -5516.2394     -5286.4648     -72.068821      60523.094      420.39375    
     48800   1150.5291     -5515.6183     -5287.3368     -318.13676      60547.186      420.66297    
     48810   1151.0025     -5516.4712     -5288.0958     -541.1511       60569.909      420.94801    
     48820   1157.7038     -5518.4421     -5288.7371     -690.04476      60590.311      421.2408     
     48830   1167.2574     -5520.8767     -5289.2761     -880.37536      60607.693      421.53742    
     48840   1173.6845     -5522.6177     -5289.7419     -904.37607      60621.363      421.80375    
     48850   1174.9136     -5523.2802     -5290.1605     -922.92957      60631.116      422.01881    
     48860   1180.3249     -5524.7274     -5290.534      -947.8319       60636.892      422.1955     
     48870   1186.8023     -5526.3721     -5290.8935     -913.23374      60638.606      422.34992    
     48880   1167.9742     -5522.9663     -5291.2235     -669.52954      60636.49       422.47621    
     48890   1156.4094     -5520.9254     -5291.4772     -462.76962      60631.472      422.5889     
     48900   1153.2167     -5520.4109     -5291.5962     -340.96903      60624.452      422.71824    
     48910   1149.7742     -5519.6642     -5291.5325     -292.53413      60615.935      422.87113    
     48920   1155.0934     -5520.4285     -5291.2414     -269.76415      60606.168      423.0185     
     48930   1178.3435     -5524.5293     -5290.7291     -349.32758      60595.199      423.13866    
     48940   1176.3584     -5523.4233     -5290.017      -218.1268       60582.834      423.21919    
     48950   1163.0295     -5519.8678     -5289.1061     -35.190544      60569.548      423.24426    
     48960   1169.3472     -5519.9788     -5287.9635     -19.4923        60556.035      423.21531    
     48970   1178.7743     -5520.4688     -5286.583       67.963131      60542.497      423.15444    
     48980   1181.9499     -5519.5404     -5285.0246      277.17528      60529.309      423.13388    
     48990   1177.1738     -5516.9476     -5283.3795      572.92281      60517.372      423.19348    
     49000   1175.1373     -5514.8811     -5281.717       687.6308       60507.851      423.30828    
     49010   1188.1504     -5515.8365     -5280.0905      569.07855      60501.224      423.42992    
     49020   1202.3139     -5517.1406     -5278.5843      350.62951      60496.973      423.51102    
     49030   1211.0517     -5517.5643     -5277.2743      270.81763      60494.265      423.54258    
     49040   1215.9808     -5517.4724     -5276.2044      326.6919       60492.738      423.53871    
     49050   1217.1607     -5516.8502     -5275.3481      496.14876      60492.65       423.51627    
     49060   1226.3128     -5518.0009     -5274.6828      593.06117      60494.695      423.52329    
     49070   1241.3201     -5520.4937     -5274.198       566.62223      60499.271      423.60723    
     49080   1229.3321     -5517.8101     -5273.893       617.78888      60506.363      423.7964     
     49090   1218.5215     -5515.5088     -5273.7367      564.77951      60516.082      424.09924    
     49100   1204.8946     -5512.7216     -5273.6532      620.07367      60528.31       424.48513    
     49110   1199.4533     -5511.5988     -5273.61        590.9103       60543.157      424.92767    
     49120   1192.3517     -5510.1357     -5273.5561      370.38539      60560.516      425.38222    
     49130   1207.5343     -5513.083      -5273.4909     -101.15668      60579.411      425.81149    
     49140   1216.1537     -5514.7485     -5273.4462     -344.00928      60598          426.21676    
     49150   1217.119      -5514.9609     -5273.4671     -210.58198      60615.275      426.60117    
     49160   1218.9685     -5515.4147     -5273.5539     -29.270802      60631.66       427.0102     
     49170   1220.2128     -5515.83       -5273.7223     -42.571178      60647.894      427.46831    
     49180   1213.003      -5514.6562     -5273.9791     -114.74756      60663.958      427.9057     
     49190   1195.4036     -5511.4629     -5274.2777     -146.24951      60679.583      428.2579     
     49200   1201.6668     -5513.02       -5274.5921     -356.83821      60694.605      428.53659    
     49210   1202.6618     -5513.5452     -5274.9198     -547.17222      60708.185      428.7952     
     49220   1185.0355     -5510.3917     -5275.2637     -541.06076      60719.492      429.08048    
     49230   1179.6695     -5509.6384     -5275.5751     -438.93131      60728.57       429.39305    
     49240   1186.5461     -5511.2644     -5275.8367     -411.41947      60735.763      429.70252    
     49250   1197.1767     -5513.5972     -5276.0602     -409.15255      60741.185      429.98498    
     49260   1211.9761     -5516.7836     -5276.3101     -428.96372      60744.882      430.23772    
     49270   1209.2724     -5516.5518     -5276.6148     -405.97529      60746.75       430.46058    
     49280   1210.2623     -5517.137      -5277.0036     -462.09744      60746.837      430.6491     
     49290   1206.7541     -5516.907      -5277.4697     -579.94272      60744.897      430.79063    
     49300   1204.4535     -5517.007      -5278.0261     -747.28022      60740.408      430.90464    
     49310   1204.7231     -5517.709      -5278.6747     -841.91781      60732.699      431.01256    
     49320   1200.673      -5517.6643     -5279.4336     -796.1512       60721.316      431.1174     
     49330   1177.8845     -5513.9766     -5280.2674     -397.81973      60706.558      431.22382    
     49340   1160.7518     -5511.3973     -5281.0875     -206.01649      60689.871      431.34148    
     49350   1179.1673     -5515.8387     -5281.8751     -431.57936      60672.009      431.49856    
     49360   1177.2534     -5516.239      -5282.6551     -456.12747      60652.268      431.68863    
     49370   1165.2135     -5514.601      -5283.4059     -439.56984      60630.446      431.87152    
     49380   1175.6145     -5517.3787     -5284.1199     -577.15259      60606.49       431.99217    
     49390   1186.502      -5520.2208     -52CHGNet v0.3.0 initialized with 412,525 parameters
CHGNet will run on cuda:0
CHGNet will run on cuda:0
84.8018     -682.99449      60579.895      432.04116    
     49400   1193.4197     -5522.2958     -5285.5042     -696.25588      60550.212      432.05905    
     49410   1187.185      -5521.7853     -5286.2308     -512.71727      60517.384      432.06487    
     49420   1173.2027     -5519.7415     -5286.9612     -283.62108      60482.1        432.06183    
     49430   1163.889      -5518.5809     -5287.6487     -145.74941      60445.296      432.07826    
     49440   1153.5756     -5517.1267     -5288.2408     -11.771581      60407.584      432.10924    
     49450   1153.5914     -5517.587      -5288.698      -45.994864      60369.44       432.11736    
     49460   1172.7116     -5521.7175     -5289.0348     -237.13459      60330.755      432.08684    
     49470   1191.8451     -5525.7806     -5289.3015     -352.08197      60290.808      432.03679    
     49480   1189.4233     -5525.5558     -5289.5572     -206.47123      60249.087      431.96797    
     49490   1176.7414     -5523.2754     -5289.793       73.505429      60206.139      431.84266    
     49500   1167.106      -5521.5201     -5289.9496      393.45014      60163.199      431.64171    
     49510   1174.0856     -5522.955      -5289.9996      478.36264      60121.507      431.41229    
     49520   1181.8698     -5524.4443     -5289.9444      585.73444      60081.545      431.23441    
     49530   1184.2938     -5524.7867     -5289.8059      733.22916      60043.76       431.1637     
     49540   1185.1657     -5524.7212     -5289.5673      789.33586      60008.767      431.19061    
     49550   1194.9559     -5526.3505     -5289.2541      507.36235      59976.704      431.27035    
     49560   1188.1642     -5524.6106     -5288.8618      243.9645       59946.578      431.33814    
     49570   1180.6362     -5522.6243     -5288.3691     -59.475237      59917.226      431.34457    
     49580   1197.953      -5525.432      -5287.741      -326.64614      59887.405      431.31383    
     49590   1210.1431     -5527.1213     -5287.0116     -417.77015      59855.985      431.29482    
     49600   1205.8762     -5525.4921     -5286.229      -186.30383      59822.634      431.28291    
     49610   1205.018      -5524.4854     -5285.3925     -37.199127      59788.113      431.24539    
     49620   1206.6354     -5523.9089     -5284.4952     -88.103639      59753.001      431.16714    
     49630   1215.8338     -5524.812      -5283.5732     -248.62988      59717.091      431.08082    
     49640   1204.8329     -5521.6974     -5282.6413     -142.76503      59679.908      431.01251    
     49650   1202.0879     -5520.2131     -5281.7017      21.050359      59641.795      430.95855    
     49660   1213.1856     -5521.4517     -5280.7383      108.21784      59603.372      430.90684    
     49670   1216.4861     -5521.1594     -5279.7912      77.856407      59564.948      430.866      
     49680   1214.799      -5519.9246     -5278.891       106.57352      59526.498      430.82341    
     49690   1226.5855     -5521.4238     -5278.0517      73.836555      59488.086      430.77382    
     49700   1239.7179     -5523.2838     -5277.306       61.697607      59449.605      430.716      
     49710   1237.5305     -5522.2463     -5276.7026      343.80673      59411.145      430.63527    
     49720   1225.4661     -5519.3972     -5276.2472      692.32598      59373.755      430.54427    
     49730   1223.5778     -5518.671      -5275.8957      914.11066      59338.805      430.44454    
     49740   1225.0615     -5518.6974     -5275.6276      955.94646      59307.245      430.3276     
     49750   1231.754      -5519.8641     -5275.4665      843.13731      59279.266      430.21636    
     49760   1229.7626     -5519.4309     -5275.4284      772.24342      59254.506      430.14797    
     49770   1237.1272     -5520.988      -5275.5243      706.17293      59232.704      430.14882    
     49780   1249.8304     -5523.7749     -5275.7906      593.69799      59213.576      430.21651    
     49790   1253.7382     -5525.0413     -5276.2816      604.36161      59196.772      430.32432    
     49800   1257.0182     -5526.4735     -5277.0631      526.0345       59182.21       430.46205    
     49810   1242.934      -5524.7483     -5278.1324      551.90238      59169.709      430.62545    
     49820   1235.4587     -5524.6069     -5279.4742      485.61805      59159.283      430.79817    
     49830   1218.6205     -5522.8011     -5281.0094      548.88233      59150.797      430.95098    
     49840   1204.5963     -5521.6403     -5282.6311      521.26278      59144.42       431.0805     
     49850   1182.9489     -5518.9347     -5284.2207      602.48381      59140.181      431.22244    
     49860   1159.6864     -5515.6985     -5285.6001      730.73847      59138.43       431.40766    
     49870   1165.561      -5517.9814     -5286.7175      646.44432      59139.582      431.62197    
     49880   1168.577      -5519.4221     -5287.5597      606.00882      59143.471      431.83521    
     49890   1171.006      -5520.5277     -5288.1833      540.69125      59149.908      432.05026    
     49900   1177.2317     -5522.2002     -5288.6206      420.30456      59158.666      432.26916    
     49910   1180.8253     -5523.2043     -5288.9117      314.53528      59169.336      432.49606    
     49920   1183.7587     -5523.9734     -5289.0987      211.98764      59181.48       432.7528     
     49930   1186.932      -5524.6981     -5289.1938      186.12079      59194.714      433.03535    
     49940   1199.1937     -5527.1821     -5289.2449      101.96754      59208.854      433.3194     
     49950   1196.6354     -5526.713      -5289.2834      132.65286      59223.667      433.59878    
     49960   1170.1626     -5521.4674     -5289.2904      331.44061      59239.356      433.87893    
     49970   1169.0558     -5521.1653     -5289.2079      136.34812      59256.47       434.16191    
     49980   1177.85       -5522.7114     -5289.0091     -188.66243      59274.415      434.44392    
     49990   1186.4131     -5524.1495     -5288.7482     -528.48678      59291.872      434.72947    
     50000   1188.6345     -5524.288      -5288.4459     -660.69703      59307.484      435.0177     
Loop time of 5716.81 on 1 procs for 20000 steps with 1536 atoms

Performance: 0.302 ns/day, 79.400 hours/ns, 3.498 timesteps/s, 5.374 katom-step/s
133.1% CPU use with 1 MPI tasks x 1 OpenMP threads

MPI task timing breakdown:
Section |  min time  |  avg time  |  max time  |%varavg| %total
---------------------------------------------------------------
Pair    | 5627       | 5627       | 5627       |   0.0 | 98.43
Bond    | 0.041569   | 0.041569   | 0.041569   |   0.0 |  0.00
Neigh   | 5.3995     | 5.3995     | 5.3995     |   0.0 |  0.09
Comm    | 0.68636    | 0.68636    | 0.68636    |   0.0 |  0.01
Output  | 81.938     | 81.938     | 81.938     |   0.0 |  1.43
Modify  | 1.6148     | 1.6148     | 1.6148     |   0.0 |  0.03
Other   |            | 0.1765     |            |       |  0.00

Nlocal:           1536 ave        1536 max        1536 min
Histogram: 1 0 0 0 0 0 0 0 0 0
Nghost:           2353 ave        2353 max        2353 min
Histogram: 1 0 0 0 0 0 0 0 0 0
Neighs:              0 ave           0 max           0 min
Histogram: 1 0 0 0 0 0 0 0 0 0
FullNghs:        40388 ave       40388 max       40388 min
Histogram: 1 0 0 0 0 0 0 0 0 0

Total # of neighbors = 40388
Ave neighs/atom = 26.294271
Ave special neighs/atom = 0
Neighbor list builds = 2000
Dangerous builds = 2000
System init for write_data ...
System init for write_restart ...
Total wall time: 2:34:37
