LiKCl-chgnet-finetune-prod/0.40x-LiKCl-chgnet-finetune-prod/initial-solid.data (written by ASE) 

1536 	 atoms 
3  atom types
0.0                  22.416  xlo xhi
0.0                  22.416  ylo yhi
0.0      67.248000000000005  zlo zhi


Masses

1 35.45
2 39.0983
3 6.94


Atoms 

     1   0   3   1.0                       0                       0                       0
     2   0   2   1.0  2.1861373802078326e-32                   2.802                   2.802
     3   0   3   1.0                   2.802                       0                   2.802
     4   0   3   1.0                   2.802                   2.802 -3.9767817918562088e-32
     5   0   1  -1.0                   2.802                       0 -1.9883908959281044e-32
     6   0   1  -1.0                   2.802                   2.802                   2.802
     7   0   1  -1.0                       0                       0                   2.802
     8   0   1  -1.0  2.1861373802078326e-32                   2.802  7.2041824185287006e-33
     9   0   2   1.0                       0                       0      5.6040000000000001
    10   0   2   1.0  2.1861373802078326e-32                   2.802      8.4060000000000006
    11   0   2   1.0                   2.802                       0      8.4060000000000006
    12   0   3   1.0                   2.802                   2.802      5.6040000000000001
    13   0   1  -1.0                   2.802                       0      5.6040000000000001
    14   0   1  -1.0                   2.802                   2.802      8.4060000000000006
    15   0   1  -1.0                       0                       0      8.4060000000000006
    16   0   1  -1.0  2.1861373802078326e-32                   2.802      5.6040000000000001
    17   0   2   1.0                       0                       0                  11.208
    18   0   3   1.0  2.1861373802078326e-32                   2.802                   14.01
    19   0   2   1.0                   2.802                       0                   14.01
    20   0   2   1.0                   2.802                   2.802                  11.208
    21   0   1  -1.0                   2.802                       0                  11.208
    22   0   1  -1.0                   2.802                   2.802                   14.01
    23   0   1  -1.0                       0                       0                   14.01
    24   0   1  -1.0  2.1861373802078326e-32                   2.802                  11.208
    25   0   3   1.0                       0                       0      16.812000000000001
    26   0   3   1.0  2.1861373802078326e-32                   2.802      19.613999999999997
    27   0   2   1.0                   2.802                       0      19.613999999999997
    28   0   3   1.0                   2.802                   2.802      16.812000000000001
    29   0   1  -1.0                   2.802                       0      16.812000000000001
    30   0   1  -1.0                   2.802                   2.802      19.613999999999997
    31   0   1  -1.0                       0                       0      19.613999999999997
    32   0   1  -1.0  2.1861373802078326e-32                   2.802      16.812000000000001
    33   0   3   1.0                       0                       0                  22.416
    34   0   3   1.0  2.1861373802078326e-32                   2.802                  25.218
    35   0   3   1.0                   2.802                       0                  25.218
    36   0   3   1.0                   2.802                   2.802                  22.416
    37   0   1  -1.0                   2.802                       0                  22.416
    38   0   1  -1.0                   2.802                   2.802                  25.218
    39   0   1  -1.0                       0                       0                  25.218
    40   0   1  -1.0  2.1861373802078326e-32                   2.802                  22.416
    41   0   2   1.0                       0                       0                   28.02
    42   0   3   1.0  2.1861373802078326e-32                   2.802      30.822000000000003
    43   0   3   1.0                   2.802                       0      30.822000000000003
    44   0   3   1.0                   2.802                   2.802                   28.02
    45   0   1  -1.0                   2.802                       0                   28.02
    46   0   1  -1.0                   2.802                   2.802      30.822000000000003
    47   0   1  -1.0                       0                       0      30.822000000000003
    48   0   1  -1.0  2.1861373802078326e-32                   2.802                   28.02
    49   0   3   1.0                       0                       0      33.624000000000002
    50   0   3   1.0  2.1861373802078326e-32                   2.802      36.426000000000002
    51   0   3   1.0                   2.802                       0      36.426000000000002
    52   0   3   1.0                   2.802                   2.802      33.624000000000002
    53   0   1  -1.0                   2.802                       0      33.624000000000002
    54   0   1  -1.0                   2.802                   2.802      36.426000000000002
    55   0   1  -1.0                       0                       0      36.426000000000002
    56   0   1  -1.0  2.1861373802078326e-32                   2.802      33.624000000000002
    57   0   2   1.0                       0                       0      39.227999999999994
    58   0   2   1.0  2.1861373802078326e-32                   2.802      42.029999999999994
    59   0   3   1.0                   2.802                       0      42.029999999999994
    60   0   2   1.0                   2.802                   2.802      39.227999999999994
    61   0   1  -1.0                   2.802                       0      39.227999999999994
    62   0   1  -1.0                   2.802                   2.802      42.029999999999994
    63   0   1  -1.0                       0                       0      42.029999999999994
    64   0   1  -1.0  2.1861373802078326e-32                   2.802      39.227999999999994
    65   0   3   1.0                       0                       0      44.832000000000001
    66   0   2   1.0  2.1861373802078326e-32                   2.802      47.633999999999993
    67   0   2   1.0                   2.802                       0      47.633999999999993
    68   0   3   1.0                   2.802                   2.802      44.832000000000001
    69   0   1  -1.0                   2.802                       0      44.832000000000001
    70   0   1  -1.0                   2.802                   2.802      47.633999999999993
    71   0   1  -1.0                       0                       0      47.633999999999993
    72   0   1  -1.0  2.1861373802078326e-32                   2.802      44.832000000000001
    73   0   2   1.0                       0                       0                  50.436
    74   0   3   1.0  2.1861373802078326e-32                   2.802                  53.238
    75   0   3   1.0                   2.802                       0                  53.238
    76   0   3   1.0                   2.802                   2.802                  50.436
    77   0   1  -1.0                   2.802                       0                  50.436
    78   0   1  -1.0                   2.802                   2.802                  53.238
    79   0   1  -1.0                       0                       0                  53.238
    80   0   1  -1.0  2.1861373802078326e-32                   2.802                  50.436
    81   0   3   1.0                       0                       0      56.039999999999999
    82   0   2   1.0  2.1861373802078326e-32                   2.802      58.841999999999999
    83   0   3   1.0                   2.802                       0      58.841999999999999
    84   0   2   1.0                   2.802                   2.802      56.039999999999999
    85   0   1  -1.0                   2.802                       0      56.039999999999999
    86   0   1  -1.0                   2.802                   2.802      58.841999999999999
    87   0   1  -1.0                       0                       0      58.841999999999999
    88   0   1  -1.0  2.1861373802078326e-32                   2.802      56.039999999999999
    89   0   3   1.0                       0                       0      61.643999999999998
    90   0   3   1.0  2.1861373802078326e-32                   2.802      64.445999999999998
    91   0   3   1.0                   2.802                       0      64.445999999999998
    92   0   2   1.0                   2.802                   2.802      61.643999999999998
    93   0   1  -1.0                   2.802                       0      61.643999999999998
    94   0   1  -1.0                   2.802                   2.802      64.445999999999998
    95   0   1  -1.0                       0                       0      64.445999999999998
    96   0   1  -1.0  2.1861373802078326e-32                   2.802      61.643999999999998
    97   0   3   1.0                       0      5.6040000000000001                       0
    98   0   2   1.0  2.1861373802078326e-32      8.4060000000000006                   2.802
    99   0   3   1.0                   2.802      5.6040000000000001                   2.802
   100   0   3   1.0                   2.802      8.4060000000000006 -3.9767817918562088e-32
   101   0   1  -1.0                   2.802      5.6040000000000001 -1.9883908959281044e-32
   102   0   1  -1.0                   2.802      8.4060000000000006                   2.802
   103   0   1  -1.0                       0      5.6040000000000001                   2.802
   104   0   1  -1.0  2.1861373802078326e-32      8.4060000000000006  7.2041824185287006e-33
   105   0   3   1.0                       0      5.6040000000000001      5.6040000000000001
   106   0   3   1.0  2.1861373802078326e-32      8.4060000000000006      8.4060000000000006
   107   0   3   1.0                   2.802      5.6040000000000001      8.4060000000000006
   108   0   2   1.0                   2.802      8.4060000000000006      5.6040000000000001
   109   0   1  -1.0                   2.802      5.6040000000000001      5.6040000000000001
   110   0   1  -1.0                   2.802      8.4060000000000006      8.4060000000000006
   111   0   1  -1.0                       0      5.6040000000000001      8.4060000000000006
   112   0   1  -1.0  2.1861373802078326e-32      8.4060000000000006      5.6040000000000001
   113   0   3   1.0                       0      5.6040000000000001                  11.208
   114   0   2   1.0  2.1861373802078326e-32      8.4060000000000006                   14.01
   115   0   2   1.0                   2.802      5.6040000000000001                   14.01
   116   0   2   1.0                   2.802      8.4060000000000006                  11.208
   117   0   1  -1.0                   2.802      5.6040000000000001                  11.208
   118   0   1  -1.0                   2.802      8.4060000000000006                   14.01
   119   0   1  -1.0                       0      5.6040000000000001                   14.01
   120   0   1  -1.0  2.1861373802078326e-32      8.4060000000000006                  11.208
   121   0   3   1.0                       0      5.6040000000000001      16.812000000000001
   122   0   3   1.0  2.1861373802078326e-32      8.4060000000000006      19.613999999999997
   123   0   2   1.0                   2.802      5.6040000000000001      19.613999999999997
   124   0   3   1.0                   2.802      8.4060000000000006      16.812000000000001
   125   0   1  -1.0                   2.802      5.6040000000000001      16.812000000000001
   126   0   1  -1.0                   2.802      8.4060000000000006      19.613999999999997
   127   0   1  -1.0                       0      5.6040000000000001      19.613999999999997
   128   0   1  -1.0  2.1861373802078326e-32      8.4060000000000006      16.812000000000001
   129   0   2   1.0                       0      5.6040000000000001                  22.416
   130   0   3   1.0  2.1861373802078326e-32      8.4060000000000006                  25.218
   131   0   3   1.0                   2.802      5.6040000000000001                  25.218
   132   0   2   1.0                   2.802      8.4060000000000006                  22.416
   133   0   1  -1.0                   2.802      5.6040000000000001                  22.416
   134   0   1  -1.0                   2.802      8.4060000000000006                  25.218
   135   0   1  -1.0                       0      5.6040000000000001                  25.218
   136   0   1  -1.0  2.1861373802078326e-32      8.4060000000000006                  22.416
   137   0   3   1.0                       0      5.6040000000000001                   28.02
   138   0   2   1.0  2.1861373802078326e-32      8.4060000000000006      30.822000000000003
   139   0   2   1.0                   2.802      5.6040000000000001      30.822000000000003
   140   0   3   1.0                   2.802      8.4060000000000006                   28.02
   141   0   1  -1.0                   2.802      5.6040000000000001                   28.02
   142   0   1  -1.0                   2.802      8.4060000000000006      30.822000000000003
   143   0   1  -1.0                       0      5.6040000000000001      30.822000000000003
   144   0   1  -1.0  2.1861373802078326e-32      8.4060000000000006                   28.02
   145   0   2   1.0                       0      5.6040000000000001      33.624000000000002
   146   0   3   1.0  2.1861373802078326e-32      8.4060000000000006      36.426000000000002
   147   0   3   1.0                   2.802      5.6040000000000001      36.426000000000002
   148   0   3   1.0                   2.802      8.4060000000000006      33.624000000000002
   149   0   1  -1.0                   2.802      5.6040000000000001      33.624000000000002
   150   0   1  -1.0                   2.802      8.4060000000000006      36.426000000000002
   151   0   1  -1.0                       0      5.6040000000000001      36.426000000000002
   152   0   1  -1.0  2.1861373802078326e-32      8.4060000000000006      33.624000000000002
   153   0   2   1.0                       0      5.6040000000000001      39.227999999999994
   154   0   3   1.0  2.1861373802078326e-32      8.4060000000000006      42.029999999999994
   155   0   3   1.0                   2.802      5.6040000000000001      42.029999999999994
   156   0   3   1.0                   2.802      8.4060000000000006      39.227999999999994
   157   0   1  -1.0                   2.802      5.6040000000000001      39.227999999999994
   158   0   1  -1.0                   2.802      8.4060000000000006      42.029999999999994
   159   0   1  -1.0                       0      5.6040000000000001      42.029999999999994
   160   0   1  -1.0  2.1861373802078326e-32      8.4060000000000006      39.227999999999994
   161   0   3   1.0                       0      5.6040000000000001      44.832000000000001
   162   0   3   1.0  2.1861373802078326e-32      8.4060000000000006      47.633999999999993
   163   0   2   1.0                   2.802      5.6040000000000001      47.633999999999993
   164   0   2   1.0                   2.802      8.4060000000000006      44.832000000000001
   165   0   1  -1.0                   2.802      5.6040000000000001      44.832000000000001
   166   0   1  -1.0                   2.802      8.4060000000000006      47.633999999999993
   167   0   1  -1.0                       0      5.6040000000000001      47.633999999999993
   168   0   1  -1.0  2.1861373802078326e-32      8.4060000000000006      44.832000000000001
   169   0   2   1.0                       0      5.6040000000000001                  50.436
   170   0   3   1.0  2.1861373802078326e-32      8.4060000000000006                  53.238
   171   0   3   1.0                   2.802      5.6040000000000001                  53.238
   172   0   2   1.0                   2.802      8.4060000000000006                  50.436
   173   0   1  -1.0                   2.802      5.6040000000000001                  50.436
   174   0   1  -1.0                   2.802      8.4060000000000006                  53.238
   175   0   1  -1.0                       0      5.6040000000000001                  53.238
   176   0   1  -1.0  2.1861373802078326e-32      8.4060000000000006                  50.436
   177   0   3   1.0                       0      5.6040000000000001      56.039999999999999
   178   0   2   1.0  2.1861373802078326e-32      8.4060000000000006      58.841999999999999
   179   0   2   1.0                   2.802      5.6040000000000001      58.841999999999999
   180   0   3   1.0                   2.802      8.4060000000000006      56.039999999999999
   181   0   1  -1.0                   2.802      5.6040000000000001      56.039999999999999
   182   0   1  -1.0                   2.802      8.4060000000000006      58.841999999999999
   183   0   1  -1.0                       0      5.6040000000000001      58.841999999999999
   184   0   1  -1.0  2.1861373802078326e-32      8.4060000000000006      56.039999999999999
   185   0   3   1.0                       0      5.6040000000000001      61.643999999999998
   186   0   2   1.0  2.1861373802078326e-32      8.4060000000000006      64.445999999999998
   187   0   2   1.0                   2.802      5.6040000000000001      64.445999999999998
   188   0   2   1.0                   2.802      8.4060000000000006      61.643999999999998
   189   0   1  -1.0                   2.802      5.6040000000000001      61.643999999999998
   190   0   1  -1.0                   2.802      8.4060000000000006      64.445999999999998
   191   0   1  -1.0                       0      5.6040000000000001      64.445999999999998
   192   0   1  -1.0  2.1861373802078326e-32      8.4060000000000006      61.643999999999998
   193   0   3   1.0                       0                  11.208                       0
   194   0   3   1.0  2.1861373802078326e-32                   14.01                   2.802
   195   0   3   1.0                   2.802                  11.208                   2.802
   196   0   3   1.0                   2.802                   14.01 -3.9767817918562088e-32
   197   0   1  -1.0                   2.802                  11.208 -1.9883908959281044e-32
   198   0   1  -1.0                   2.802                   14.01                   2.802
   199   0   1  -1.0                       0                  11.208                   2.802
   200   0   1  -1.0  2.1861373802078326e-32                   14.01  7.2041824185287006e-33
   201   0   3   1.0                       0                  11.208      5.6040000000000001
   202   0   2   1.0  2.1861373802078326e-32                   14.01      8.4060000000000006
   203   0   3   1.0                   2.802                  11.208      8.4060000000000006
   204   0   3   1.0                   2.802                   14.01      5.6040000000000001
   205   0   1  -1.0                   2.802                  11.208      5.6040000000000001
   206   0   1  -1.0                   2.802                   14.01      8.4060000000000006
   207   0   1  -1.0                       0                  11.208      8.4060000000000006
   208   0   1  -1.0  2.1861373802078326e-32                   14.01      5.6040000000000001
   209   0   2   1.0                       0                  11.208                  11.208
   210   0   2   1.0  2.1861373802078326e-32                   14.01                   14.01
   211   0   2   1.0                   2.802                  11.208                   14.01
   212   0   2   1.0                   2.802                   14.01                  11.208
   213   0   1  -1.0                   2.802                  11.208                  11.208
   214   0   1  -1.0                   2.802                   14.01                   14.01
   215   0   1  -1.0                       0                  11.208                   14.01
   216   0   1  -1.0  2.1861373802078326e-32                   14.01                  11.208
   217   0   2   1.0                       0                  11.208      16.812000000000001
   218   0   2   1.0  2.1861373802078326e-32                   14.01      19.613999999999997
   219   0   2   1.0                   2.802                  11.208      19.613999999999997
   220   0   2   1.0                   2.802                   14.01      16.812000000000001
   221   0   1  -1.0                   2.802                  11.208      16.812000000000001
   222   0   1  -1.0                   2.802                   14.01      19.613999999999997
   223   0   1  -1.0                       0                  11.208      19.613999999999997
   224   0   1  -1.0  2.1861373802078326e-32                   14.01      16.812000000000001
   225   0   2   1.0                       0                  11.208                  22.416
   226   0   2   1.0  2.1861373802078326e-32                   14.01                  25.218
   227   0   3   1.0                   2.802                  11.208                  25.218
   228   0   2   1.0                   2.802                   14.01                  22.416
   229   0   1  -1.0                   2.802                  11.208                  22.416
   230   0   1  -1.0                   2.802                   14.01                  25.218
   231   0   1  -1.0                       0                  11.208                  25.218
   232   0   1  -1.0  2.1861373802078326e-32                   14.01                  22.416
   233   0   3   1.0                       0                  11.208                   28.02
   234   0   3   1.0  2.1861373802078326e-32                   14.01      30.822000000000003
   235   0   3   1.0                   2.802                  11.208      30.822000000000003
   236   0   2   1.0                   2.802                   14.01                   28.02
   237   0   1  -1.0                   2.802                  11.208                   28.02
   238   0   1  -1.0                   2.802                   14.01      30.822000000000003
   239   0   1  -1.0                       0                  11.208      30.822000000000003
   240   0   1  -1.0  2.1861373802078326e-32                   14.01                   28.02
   241   0   2   1.0                       0                  11.208      33.624000000000002
   242   0   3   1.0  2.1861373802078326e-32                   14.01      36.426000000000002
   243   0   3   1.0                   2.802                  11.208      36.426000000000002
   244   0   3   1.0                   2.802                   14.01      33.624000000000002
   245   0   1  -1.0                   2.802                  11.208      33.624000000000002
   246   0   1  -1.0                   2.802                   14.01      36.426000000000002
   247   0   1  -1.0                       0                  11.208      36.426000000000002
   248   0   1  -1.0  2.1861373802078326e-32                   14.01      33.624000000000002
   249   0   2   1.0                       0                  11.208      39.227999999999994
   250   0   3   1.0  2.1861373802078326e-32                   14.01      42.029999999999994
   251   0   3   1.0                   2.802                  11.208      42.029999999999994
   252   0   3   1.0                   2.802                   14.01      39.227999999999994
   253   0   1  -1.0                   2.802                  11.208      39.227999999999994
   254   0   1  -1.0                   2.802                   14.01      42.029999999999994
   255   0   1  -1.0                       0                  11.208      42.029999999999994
   256   0   1  -1.0  2.1861373802078326e-32                   14.01      39.227999999999994
   257   0   2   1.0                       0                  11.208      44.832000000000001
   258   0   2   1.0  2.1861373802078326e-32                   14.01      47.633999999999993
   259   0   2   1.0                   2.802                  11.208      47.633999999999993
   260   0   3   1.0                   2.802                   14.01      44.832000000000001
   261   0   1  -1.0                   2.802                  11.208      44.832000000000001
   262   0   1  -1.0                   2.802                   14.01      47.633999999999993
   263   0   1  -1.0                       0                  11.208      47.633999999999993
   264   0   1  -1.0  2.1861373802078326e-32                   14.01      44.832000000000001
   265   0   2   1.0                       0                  11.208                  50.436
   266   0   3   1.0  2.1861373802078326e-32                   14.01                  53.238
   267   0   2   1.0                   2.802                  11.208                  53.238
   268   0   2   1.0                   2.802                   14.01                  50.436
   269   0   1  -1.0                   2.802                  11.208                  50.436
   270   0   1  -1.0                   2.802                   14.01                  53.238
   271   0   1  -1.0                       0                  11.208                  53.238
   272   0   1  -1.0  2.1861373802078326e-32                   14.01                  50.436
   273   0   3   1.0                       0                  11.208      56.039999999999999
   274   0   2   1.0  2.1861373802078326e-32                   14.01      58.841999999999999
   275   0   3   1.0                   2.802                  11.208      58.841999999999999
   276   0   2   1.0                   2.802                   14.01      56.039999999999999
   277   0   1  -1.0                   2.802                  11.208      56.039999999999999
   278   0   1  -1.0                   2.802                   14.01      58.841999999999999
   279   0   1  -1.0                       0                  11.208      58.841999999999999
   280   0   1  -1.0  2.1861373802078326e-32                   14.01      56.039999999999999
   281   0   2   1.0                       0                  11.208      61.643999999999998
   282   0   2   1.0  2.1861373802078326e-32                   14.01      64.445999999999998
   283   0   3   1.0                   2.802                  11.208      64.445999999999998
   284   0   2   1.0                   2.802                   14.01      61.643999999999998
   285   0   1  -1.0                   2.802                  11.208      61.643999999999998
   286   0   1  -1.0                   2.802                   14.01      64.445999999999998
   287   0   1  -1.0                       0                  11.208      64.445999999999998
   288   0   1  -1.0  2.1861373802078326e-32                   14.01      61.643999999999998
   289   0   2   1.0                       0      16.812000000000001                       0
   290   0   3   1.0  2.1861373802078326e-32      19.613999999999997                   2.802
   291   0   2   1.0                   2.802      16.812000000000001                   2.802
   292   0   3   1.0                   2.802      19.613999999999997 -3.9767817918562088e-32
   293   0   1  -1.0                   2.802      16.812000000000001 -1.9883908959281044e-32
   294   0   1  -1.0                   2.802      19.613999999999997                   2.802
   295   0   1  -1.0                       0      16.812000000000001                   2.802
   296   0   1  -1.0  2.1861373802078326e-32      19.613999999999997  7.2041824185287006e-33
   297   0   3   1.0                       0      16.812000000000001      5.6040000000000001
   298   0   3   1.0  2.1861373802078326e-32      19.613999999999997      8.4060000000000006
   299   0   2   1.0                   2.802      16.812000000000001      8.4060000000000006
   300   0   2   1.0                   2.802      19.613999999999997      5.6040000000000001
   301   0   1  -1.0                   2.802      16.812000000000001      5.6040000000000001
   302   0   1  -1.0                   2.802      19.613999999999997      8.4060000000000006
   303   0   1  -1.0                       0      16.812000000000001      8.4060000000000006
   304   0   1  -1.0  2.1861373802078326e-32      19.613999999999997      5.6040000000000001
   305   0   3   1.0                       0      16.812000000000001                  11.208
   306   0   2   1.0  2.1861373802078326e-32      19.613999999999997                   14.01
   307   0   2   1.0                   2.802      16.812000000000001                   14.01
   308   0   3   1.0                   2.802      19.613999999999997                  11.208
   309   0   1  -1.0                   2.802      16.812000000000001                  11.208
   310   0   1  -1.0                   2.802      19.613999999999997                   14.01
   311   0   1  -1.0                       0      16.812000000000001                   14.01
   312   0   1  -1.0  2.1861373802078326e-32      19.613999999999997                  11.208
   313   0   3   1.0                       0      16.812000000000001      16.812000000000001
   314   0   2   1.0  2.1861373802078326e-32      19.613999999999997      19.613999999999997
   315   0   2   1.0                   2.802      16.812000000000001      19.613999999999997
   316   0   2   1.0                   2.802      19.613999999999997      16.812000000000001
   317   0   1  -1.0                   2.802      16.812000000000001      16.812000000000001
   318   0   1  -1.0                   2.802      19.613999999999997      19.613999999999997
   319   0   1  -1.0                       0      16.812000000000001      19.613999999999997