LAMMPS (2 Aug 2023)
OMP_NUM_THREADS environment is not set. Defaulting to 1 thread. (src/comm.cpp:98)
  using 1 OpenMP thread(s) per MPI task
Reading data file ...
  orthogonal box = (0 0 0) to (88.544902 22.136226 44.272451)
  1 by 1 by 1 MPI processor grid
  reading atoms ...
  4096 atoms
Finding 1-2 1-3 1-4 neighbors ...
  special bond factors lj:    0        0        0       
  special bond factors coul:  0        0        0       
     0 = max # of 1-2 neighbors
     0 = max # of 1-3 neighbors
     0 = max # of 1-4 neighbors
     1 = max # of special neighbors
  special bonds CPU = 0.000 seconds
  read_data CPU = 0.085 seconds
2048 atoms in group gSolid
2048 atoms in group gLiquid
Neighbor list info ...
  update: every = 1 steps, delay = 10 steps, check = yes
  max neighbors/atom: 2000, page size: 100000
  master list distance cutoff = 6.3
  ghost atom cutoff = 6.3
  binsize = 3.15, bins = 29 8 15
  1 neighbor lists, perpetual/occasional/extra = 1 0 0
  (1) pair chgnet/gpu, perpetual
      attributes: full, newton on
      pair build: full/bin
      stencil: full/bin/3d
      bin: standard
Setting up Verlet run ...
  Unit style    : metal
  Current step  : 0
  Time step     : 0.0005
Per MPI rank memory allocation (min/avg/max) = 7.483 | 7.483 | 7.483 Mbytes
   Step          Temp          PotEng         TotEng         Press          Volume        c_msd[4]   
         0   300           -15017.861     -14859.065      49670.539      86776.215      0            
        10   295.08671     -15025.257     -14869.061      48132.851      87105.25       0.0025601919 
        20   282.30355     -15045.428     -14895.999      43708.66       88049.458      0.024911489  
        30   266.85045     -15070.988     -14929.739      39219.033      89363.378      0.092643996  
        40   253.55844     -15093.092     -14958.878      34760.069      90648.039      0.19985499   
        50   245.59279     -15110.918     -14980.921      31047.454      91765.499      0.32569739   
        60   244.81632     -15128.698     -14999.112      27901.786      92817.457      0.47029104   
        70   251.6858      -15148.385     -15015.162      24977.398      93861.483      0.63705734   
        80   265.3928      -15169.566     -15029.089      22392.331      94873.087      0.8197912    
        90   284.35231     -15191.242     -15040.729      20393.412      95813.647      1.0078734    
       100   306.19743     -15212.561     -15050.484      19049.37       96672.266      1.1945134    
       110   328.22415     -15232.814     -15059.079      18285.697      97463.884      1.3788667    
       120   347.85845     -15251.404     -15067.276      17905.852      98212.048      1.5636412    
       130   363.10683     -15267.883     -15075.683      17728.527      98937.339      1.7522978    
       140   373.21091     -15282.285     -15084.737      17585.628      99653.612      1.9476413    
       150   378.67896     -15294.983     -15094.541      17438.97       100368.15      2.151252     
       160   381.21168     -15306.6       -15104.817      17226.901      101083.8       2.3637437    
       170   382.69995     -15317.66      -15115.089      16913.504      101800.38      2.5848156    
       180   383.97873     -15328.462     -15125.214      16516.948      102515.85      2.8134844    
       190   385.31477     -15339.131     -15135.176      16040.039      103227.59      3.0484352    
       200   386.83024     -15349.76      -15145.003      15488.715      103932.89      3.2881708    
       210   388.38076     -15360.201     -15154.623      14870.148      104629.12      3.5311336    
       220   389.91861     -15370.38      -15163.988      14199.887      105313.86      3.7757603    
       230   391.69221     -15380.397     -15173.067      13500.823      105984.92      4.0205685    
       240   393.90908     -15390.331     -15181.827      12779.12       106640.57      4.2642767    
       250   396.46943     -15400.149     -15190.29       12055.089      107279.29      4.5057308    
       260   399.15113     -15409.73      -15198.452      11338.306      107899.95      4.7439901    
       270   401.50968     -15418.866     -15206.339      10662.271      108501.84      4.9784023    
       280   402.83443     -15427.198     -15213.97       10031.096      109084.89      5.2086243    
       290   402.78065     -15434.549     -15221.349      9452.0035      109649.46      5.4345655    
       300   401.51448     -15441.016     -15228.486      8935.1165      110196.37      5.656509     
       310   399.12215     -15446.656     -15235.393      8457.5257      110726.76      5.8748851    
       320   395.51527     -15451.395     -15242.04       8013.1259      111241.75      6.0900664    
       330   391.35916     -15455.601     -15248.446      7569.6585      111742.23      6.3022483    
       340   387.81325     -15459.86      -15254.583      7111.8528      112228.44      6.5113462    
       350   385.12182     -15464.331     -15260.478      6633.9746      112699.86      6.7169329    
       360   382.63284     -15468.661     -15266.126      6169.9643      113155.56      6.9183337    
       370   379.54374     -15472.449     -15271.549      5737.1953      113594.81      7.1149231    
       380   376.01053     -15475.772     -15276.742      5313.2933      114017.28      7.30623      
       390   372.87891     -15479.08      -15281.708      4918.9453      114422.71      7.4918596    
       400   371.06041     -15482.887     -15286.477      4534.4494      114811.13      7.6714311    
       410   370.5989      -15487.245     -15291.08       4174.434       115182.51      7.8445716    
       420   370.53238     -15491.682     -15295.551      3838.8114      115537.01      8.0110559    
       430   370.14474     -15495.843     -15299.918      3527.9415      115874.93      8.1707549    
       440   369.25072     -15499.65      -15304.198      3254.4118      116196.7       8.3235475    
       450   367.69149     -15503.02      -15308.393      2984.9183      116502.97      8.4692592    
       460   365.72335     -15506.064     -15312.48       2751.5112      116794.32      8.6075575    
       470   363.56816     -15508.927     -15316.483      2520.0881      117071.4       8.7380641    
       480   361.17303     -15511.555     -15320.378      2299.3308      117334.54      8.8603171    
       490   358.58782     -15513.992     -15324.184      2079.966       117583.93      8.9739378    
       500   355.76089     -15516.193     -15327.882      1856.7657      117819.57      9.0786331    
       510   352.46967     -15518.045     -15331.476      1649.5645      118041.19      9.1742235    
       520   348.87249     -15519.622     -15334.957      1458.1292      118248.64      9.2607377    
       530   345.64539     -15521.278     -15338.321      1262.5807      118441.93      9.3384436    
       540   343.33184     -15523.307     -15341.574      1088.8429      118620.92      9.4076475    
       550   341.78434     -15525.643     -15344.729      921.71187      118785.68      9.468839     
       560   340.2472      -15527.914     -15347.814      775.80987      118936.32      9.5224905    
       570   338.49123     -15529.998     -15350.828      641.27266      119073.19      9.5690345    
       580   336.56629     -15531.934     -15353.782      514.7369       119196.67      9.6088352    
       590   334.21389     -15533.573     -15356.667      402.18952      119307.15      9.6422205    
       600   331.06779     -15534.711     -15359.47       294.58794      119405.11      9.6695383    
       610   327.32958     -15535.46      -15362.198      198.19581      119490.91      9.6908902    
       620   323.62476     -15536.113     -15364.812      102.36925      119564.92      9.7061024    
       630   320.68154     -15537.073     -15367.33       5.196334       119627.39      9.7147558    
       640   319.10255     -15538.666     -15369.759     -108.10177      119678.42      9.71644      
       650   318.98478     -15540.962     -15372.117     -226.07854      119717.71      9.7107804    
       660   319.79016     -15543.707     -15374.436     -341.42553      119744.73      9.6975036    
       670   320.40803     -15546.345     -15376.746     -448.74332      119759.07      9.6765593    
       680   319.81192     -15548.328     -15379.045     -520.32745      119760.55      9.648093     
       690   317.72886     -15549.513     -15381.332     -547.42332      119749.84      9.6126881    
       700   314.81796     -15550.213     -15383.573     -544.28192      119728.36      9.5712844    
       710   312.12731     -15550.971     -15385.755     -536.7698       119697.9       9.5249093    
       720   310.3802      -15552.158     -15387.868     -548.4893       119660.02      9.4744025    
       730   309.67487     -15553.844     -15389.927     -559.29977      119615.76      9.4202639    
       740   309.68339     -15555.855     -15391.934     -587.34455      119565.85      9.3629025    
       750   309.572       -15557.779     -15393.917     -595.60558      119510.67      9.302649     
       760   308.78339     -15559.311     -15395.865     -582.92064      119450.85      9.2400664    
       770   307.43913     -15560.505     -15397.771     -563.48507      119387.42      9.1759839    
       780   305.8038      -15561.496     -15399.628     -535.8853       119321.48      9.1112875    
       790   303.72314     -15562.2       -15401.433     -502.69396      119254.09      9.0468194    
       800   301.1259      -15562.545     -15403.153     -454.93645      119186.37      8.9832893    
       810   298.59134     -15562.83      -15404.78      -408.04112      119119.45      8.9212668    
       820   296.67272     -15563.348     -15406.313     -380.51999      119054.25      8.8612124    
       830   295.27597     -15564.025     -15407.73      -374.83081      118991.08      8.8034237    
       840   294.26074     -15564.805     -15409.047     -385.87316      118929.75      8.7480561    
       850   293.5688      -15565.639     -15410.247     -395.6512       118869.77      8.6951083    
       860   293.4408      -15566.672     -15411.348     -421.8839       118810.62      8.6445642    
       870   294.0378      -15567.993     -15412.353     -467.04882      118751.55      8.5963176    
       880   295.14766     -15569.496     -15413.268     -513.24356      118691.56      8.5501138    
       890   296.0765      -15570.84      -15414.121     -553.01112      118629.72      8.5056633    
       900   296.37783     -15571.797     -15414.918     -568.27164      118565.49      8.4627072    
       910   296.31553     -15572.509     -15415.663     -554.88874      118498.9       8.4210767    
       920   296.14216     -15573.117     -15416.363     -530.74404      118430.56      8.3807221    
       930   295.82771     -15573.614     -15417.027     -490.27594      118361.25      8.3416085    
       940   295.38924     -15573.995     -15417.64      -430.33728      118292.02      8.3037652    
       950   294.8876      -15574.282     -15418.192     -365.94575      118224.11      8.2673667    
       960   294.12899     -15574.391     -15418.702     -290.33195      118158.77      8.2326839    
       970   292.98138     -15574.223     -15419.142     -209.12961      118097.27      8.200061     
       980   291.64606     -15573.882     -15419.508     -146.98159      118040.73      8.1698604    
       990   290.79324     -15573.703     -15419.78      -90.978578      117989.78      8.1423309    
      1000   291.11891     -15574.049     -15419.954     -57.445879      117944.69      8.1176716    
      1010   292.58463     -15574.91      -15420.039     -52.093039      117905.22      8.0959388    
      1020   294.57378     -15575.959     -15420.035     -62.632111      117870.63      8.0770003    
      1030   296.08958     -15576.703     -15419.977     -100.43601      117839.84      8.0605962    
      1040   296.44536     -15576.777     -15419.863     -110.00547      117811.55      8.0463273    
      1050   295.80118     -15576.295     -15419.721     -125.70067      117785.01      8.0339163    
      1060   295.09344     -15575.723     -15419.524     -147.57769      117759.62      8.0231317    
      1070   294.87755     -15575.359     -15419.275     -203.66841      117734.63      8.0137001    
      1080   295.12282     -15575.191     -15418.977     -285.42229      117708.67      8.0051833    
      1090   295.36545     -15574.961     -15418.618     -373.15173      117680.12      7.9970573    
      1100   295.46274     -15574.614     -15418.22      -445.13609      117647.39      7.9888258    
      1110   295.41876     -15574.143     -15417.771     -512.43623      117609.38      7.9801452    
      1120   295.39286     -15573.634     -15417.276     -553.32056      117565.38      7.970793     
      1130   295.67088     -15573.246     -15416.741     -575.05004      117515.29      7.9607484    
      1140   296.4438      -15573.081     -15416.167     -571.7505       117459.53      7.9501141    
      1150   297.70001     -15573.143     -15415.564     -547.72596      117399.03      7.9391134    
      1160   299.27843     -15573.356     -15414.942     -524.31399      117334.93      7.9280122    
      1170   300.85573     -15573.574     -15414.325     -494.55745      117268.25      7.9171019    
      1180   301.7237      -15573.431     -15413.722     -451.84998      117200.03      7.9067566    
      1190   301.44209     -15572.702     -15413.143     -396.20112      117131.4       7.8973472    
      1200   301.08241     -15571.952     -15412.583     -325.10657      117063.67      7.8892719    
      1210   301.96698     -15571.879     -15412.042     -265.74634      116998.22      7.8829069    
      1220   304.08939     -15572.473     -15411.512     -217.21644      116936.01      7.8784821    
      1230   306.03427     -15573.006     -15411.016     -171.14246      116877.66      7.8761779    
      1240   306.76347     -15572.96      -15410.584     -98.538625      116823.75      7.8761343    
      1250   306.10176     -15572.24      -15410.214     -7.3605474      116775.26      7.8785699    
      1260   304.62787     -15571.148     -15409.903      89.779396      116733.41      7.8837549    
      1270   303.39872     -15570.238     -15409.643      149.93717      116699.28      7.8918557    
      1280   303.48865     -15570.061     -15409.418      181.98749      116673.18      7.9028365    
      1290   304.8453      -15570.597     -15409.236      160.22457      116654.6       7.9165673    
      1300   306.45763     -15571.315     -15409.101      106.67338      116642.05      7.9327089    
      1310   307.1221      -15571.604     -15409.038      44.924889      116633.54      7.9507719    
      1320   306.63692     -15571.363     -15409.054     -8.9735769      116627.2       7.970233     
      1330   306.09055     -15571.158     -15409.138     -90.960861      116621.4       7.9905039    
      1340   306.56527     -15571.57      -15409.299     -193.36744      116614.27      8.0108625    
      1350   307.86749     -15572.501     -15409.54      -302.66396      116603.7       8.0306653    
      1360   308.94133     -15573.404     -15409.875     -393.17563      116587.72      8.0494315    
      1370   309.02007     -15573.89      -15410.319     -440.48765      116565.03      8.0669112    
      1380   307.78471     -15573.771     -15410.855     -452.46703      116535.42      8.0831761    
      1390   305.66065     -15573.272     -15411.48      -430.05257      116499.57      8.0984919    
      1400   303.51298     -15572.822     -15412.167     -400.3588       116458.72      8.1132734    
      1410   301.85612     -15572.652     -15412.874     -359.93807      116414.23      8.1279623    
      1420   301.01364     -15572.92      -15413.587     -333.03922      116367.42      8.1429731    
      1430   300.85286     -15573.561     -15414.313     -305.85444      116319.28      8.1585733    
      1440   300.61538     -15574.152     -15415.031     -280.96084      116270.57      8.174879     
      1450   299.86706     -15574.472     -15415.746     -267.88863      116221.88      8.1919045    
      1460   298.77177     -15574.597     -15416.451     -251.35219      116173.58      8.20953      
      1470   297.97827     -15574.853     -15417.127     -250.50408      116125.93      8.2276447    
      1480   297.92544     -15575.47      -15417.772     -258.50267      116078.93      8.2461302    
      1490   298.47841     -15576.388     -15418.397     -269.61484      116032.31      8.2648525    
      1500   299.03945     -15577.288     -15419         -277.47312      115985.8       8.28377      
      1510   299.26789     -15578.003     -15419.594     -262.79194      115939.28      8.302984     
      1520   299.27263     -15578.58      -15420.169     -255.10179      115892.95      8.3227246    
      1530   299.13116     -15579.061     -15420.724     -236.21402      115847.01      8.3431765    
      1540   298.23231     -15579.134     -15421.273     -217.19862      115801.76      8.3644606    
      1550   296.6197      -15578.79      -15421.783     -173.79472      115757.65      8.3866092    
      1560   295.36899     -15578.597     -15422.252     -148.98191      115715.33      8.4097625    
      1570   295.30725     -15578.98      -15422.668     -142.06638      115675.13      8.4340779    
      1580   296.02178     -15579.724     -15423.033     -158.7112       115636.9       8.4596476    
      1590   296.74268     -15580.43      -15423.358     -198.88358      115599.99      8.4863827    
      1600   297.03737     -15580.88      -15423.652     -223.60419      115563.47      8.5140493    
      1610   296.90307     -15581.065     -15423.909     -254.61976      115526.61      8.5424338    
      1620   296.73524     -15581.201     -15424.133     -274.75925      115488.83      8.5712845    
      1630   296.99398     -15581.533     -15424.328     -287.69726      115449.76      8.6003352    
      1640   297.50709     -15581.959     -15424.482     -310.4934       115409.22      8.6293301    
      1650   297.43596     -15582.062     -15424.623     -315.08988      115366.9       8.6580545    
      1660   296.17867     -15581.505     -15424.732     -297.508        115322.89      8.6864984    
      1670   294.36246     -15580.617     -15424.805     -244.0334       115277.88      8.7148033    
      1680   293.32933     -15580.08      -15424.815     -200.93352      115233.04      8.7432366    
      1690   294.13839     -15580.463     -15424.769     -178.96182      115189.29      8.7720809    
      1700   296.49604     -15581.601     -15424.659     -186.2884       115146.87      8.801547     
      1710   299.19529     -15582.897     -15424.527     -197.82803      115105.52      8.8318109    
      1720   301.35232     -15583.89      -15424.378     -209.66517      115064.84      8.8630074    
      1730   302.77258     -15584.512     -15424.248     -202.93652      115024.52      8.8952252    
      1740   303.60298     -15584.852     -15424.148     -181.30384      114984.69      8.9285373    
      1750   304.23222     -15585.111     -15424.075     -148.0951       114945.76      8.9629856    
      1760   304.70824     -15585.334     -15424.046     -113.96546      114908.29      8.9986167    
      1770   305.04724     -15585.533     -15424.066     -100.4151       114872.83      9.0354176    
      1780   305.29449     -15585.739     -15424.141     -105.08075      114839.42      9.0732189    
      1790   305.01831     -15585.717     -15424.264     -121.71089      114807.73      9.1118161    
      1800   303.86392     -15585.286     -15424.445     -144.87262      114777.18      9.1510721    
      1810   302.27971     -15584.672     -15424.669     -176.42818      114747.15      9.1909416    
      1820   301.46996     -15584.496     -15424.922     -238.34205      114716.78      9.2313274    
      1830   301.59838     -15584.844     -15425.202     -315.32882      114684.78      9.2719719    
      1840   301.99221     -15585.352     -15425.501     -384.65803      114649.74      9.312548     
      1850   302.33872     -15585.859     -15425.825     -435.86803      114610.57      9.3527532    
      1860   302.60268     -15586.341     -15426.167     -476.08296      114566.63      9.3924039    
      1870   302.69609     -15586.777     -15426.554     -514.48375      114517.61      9.431527     
      1880   302.28975     -15586.982     -15426.974     -536.58974      114463.36      9.4703069    
      1890   301.30362     -15586.902     -15427.416     -550.59231      114404.08      9.5089737    
      1900   300.35488     -15586.861     -15427.877     -556.19009      114340.08      9.5477151    
      1910   299.53901     -15586.897     -15428.345     -547.23978      114271.93      9.5866979    
      1920   298.6305      -15586.879     -15428.808     -523.52832      114200.4       9.6260659    
      1930   297.87578     -15586.922     -15429.25      -488.42769      114126.47      9.6659337    
      1940   297.54252     -15587.162     -15429.667     -451.07642      114051.25      9.706458     
      1950   297.71148     -15587.66      -15430.075     -407.07216      113975.8       9.7478327    
      1960   298.05245     -15588.195     -15430.43      -365.47527      113901.11      9.7902259    
      1970   298.298       -15588.67      -15430.775     -338.08981      113828.01      9.8337263    
      1980   298.33322     -15589.001     -15431.087     -310.9434       113756.98      9.8782789    
      1990   298.14158     -15589.191     -15431.379     -300.88657      113688.36      9.9237908    
      2000   297.84472     -15589.3       -15431.645     -295.34187      113622.12      9.9701106    
      2010   297.92938     -15589.581     -15431.881     -320.37955      113558         10.017071    
      2020   298.82899     -15590.271     -15432.095     -331.80344      113495.36      10.064493    
      2030   300.33317     -15591.27      -15432.297     -355.21412      113433.65      10.11228     
      2040   301.43833     -15592.068     -15432.511     -359.68672      113372.37      10.160367    
      2050   301.20193     -15592.152     -15432.72      -325.64556      113311.46      10.208666    
      2060   300.09193     -15591.793     -15432.948     -260.66395      113251.57      10.257106    
      2070   299.39906     -15591.655     -15433.177     -198.69786      113193.85      10.305742    
      2080   299.77028     -15592.074     -15433.4       -151.8812       113139.31      10.354673    
      2090   300.70223     -15592.783     -15433.615     -113.75042      113088.55      10.404027    
      2100   301.32631     -15593.342     -15433.844     -89.205687      113041.82      10.453947    
      2110   301.4248      -15593.631     -15434.081     -61.66846       112999.14      10.504697    
      2120   301.13604     -15593.738     -15434.341     -37.304816      112960.58      10.556612    
      2130   300.29906     -15593.567     -15434.613     -18.291347      112926.08      10.609891    
      2140   298.65291     -15592.969     -15434.886      6.2529057      112895.54      10.664551    
      2150   296.46784     -15592.065     -15435.139      50.972337      112869         10.72043     
      2160   294.9883      -15591.49      -15435.347      65.186477      112846.77      10.777256    
      2170   295.44246     -15591.897     -15435.514      40.305868      112828.63      10.83454     
      2180   297.48746     -15593.082     -15435.616     -38.428998      112813.44      10.891718    
      2190   299.55353     -15594.256     -15435.696     -119.02723      112799.31      10.948307    
      2200   300.54928     -15594.848     -15435.761     -183.54385      112784.41      11.003962    
      2210   300.3005      -15594.795     -15435.84      -191.28008      112767.57      11.058448    
      2220   299.65433     -15594.524     -15435.911     -175.77258      112748.82      11.111589    
      2230   299.20159     -15594.35      -15435.976     -180.91433      112728.59      11.163316    
      2240   299.2117      -15594.42      -15436.041     -176.39573      112706.98      11.213583    
      2250   299.5917      -15594.668     -15436.088     -165.61488      112684.24      11.262461    
      2260   299.76456     -15594.808     -15436.136     -146.28523      112660.74      11.310271    
      2270   299.13913     -15594.523     -15436.183     -117.41365      112636.98      11.357422    
      2280   298.33292     -15594.132     -15436.218     -73.579974      112613.58      11.404363    
      2290   298.3556      -15594.162     -15436.236     -31.414225      112591.35      11.451508    
      2300   299.16429     -15594.596     -15436.242     -10.539956      112570.98      11.499139    
      2310   300.00861     -15595.035     -15436.235      2.7684922      112552.69      11.547335    
      2320   300.56849     -15595.314     -15436.217      19.122927      112536.57      11.595965    
      2330   301.29426     -15595.705     -15436.224      32.461704      112522.68      11.644809    
      2340   302.29105     -15596.242     -15436.233      38.561917      112511.01      11.693651    
      2350   303.24256     -15596.776     -15436.264      18.441323      112501.39      11.742349    
      2360   303.60789     -15597.036     -15436.33      -3.9329503      112493.19      11.790838    
      2370   303.0495      -15596.842     -15436.432     -39.163125      112485.75      11.839117    
      2380   301.75604     -15596.3       -15436.574     -69.786441      112478.27      11.887187    
      2390   300.19872     -15595.629     -15436.728     -92.972653      112470.16      11.935038    
      2400   299.13487     -15595.227     -15436.888     -129.43783      112460.93      11.982624    
      2410   299.0889      -15595.354     -15437.041     -202.03746      112449.82      12.029891    
      2420   300.05078     -15596.01      -15437.187     -275.54331      112435.63      12.076827    
      2430   301.59825     -15596.975     -15437.333     -366.74321      112417.06      12.123467    
      2440   302.62429     -15597.692     -15437.507     -425.74993      112392.78      12.169793    
      2450   302.24135     -15597.689     -15437.707     -451.96907      112362.1       12.215751    
      2460   300.92848     -15597.213     -15437.925     -461.73988      112325.13      12.26138     
      2470   299.93132     -15596.922     -15438.162     -446.47196      112282.38      12.306769    
      2480   299.77235     -15597.075     -15438.4       -448.35661      112234.67      12.351988    
      2490   300.38401     -15597.637     -15438.637     -443.66151      112182.52      12.396972    
      2500   301.26956     -15598.343     -15438.875     -445.41384      112126.44      12.441502    
      2510   301.49241     -15598.713     -15439.127     -447.68579      112066.79      12.485267    
      2520   300.70823     -15598.567     -15439.396     -428.38224      112003.99      12.527879    
      2530   299.21438     -15598.043     -15439.663     -383.77986      111938.79      12.569053    
      2540   297.52217     -15597.407     -15439.923     -348.69278      111872.28      12.608629    
      2550   296.53746     -15597.113     -15440.15      -309.82441      111805.39      12.646524    
      2560   297.00058     -15597.555     -15440.346     -278.64174      111738.94      12.682811    
      2570   298.62793     -15598.582     -15440.512     -248.20815      111673.54      12.717825    
      2580   300.12277     -15599.512     -15440.651     -214.31955      111609.67      12.75219     
      2590   300.36362     -15599.793     -15440.804     -171.81675      111547.86      12.7865      
      2600   299.17114     -15599.312     -15440.955     -108.79567      111488.84      12.821133    
      2610   296.9922      -15598.298     -15441.094     -35.383861      111433.6       12.856245    
      2620   294.71509     -15597.187     -15441.188      20.893151      111383.19      12.891909    
      2630   293.71739     -15596.709     -15441.238      57.745542      111338.25      12.928101    
      2640   294.63938     -15597.18      -15441.221      75.594185      111298.97      12.9648      
      2650   297.09949     -15598.403     -15441.143      79.60161       111265.12      13.002022    
      2660   299.86246     -15599.764     -15441.04       82.647         111236.27      13.039692    
      2670   301.52574     -15600.535     -15440.931      99.743141      111211.99      13.077672    
      2680   301.15004     -15600.238     -15440.833      147.73471      111192.22      13.115816    
      2690   299.23062     -15599.141     -15440.752      236.03924      111177.53      13.153863    
      2700   297.55589     -15598.154     -15440.652      291.541        111169.07      13.191336    
      2710   297.50276     -15598.017     -15440.542      307.97815      111167.41      13.227736    
      2720   298.52794     -15598.41      -15440.393      293.69042      111172.26      13.262692    
      2730   298.97752     -15598.49      -15440.235      273.68281      111182.7       13.295986    
      2740   298.17213     -15597.889     -15440.06       251.09461      111197.79      13.327514    
      2750   297.17733     -15597.173     -15439.871      207.85532      111216.64      13.357128    
      2760   297.26561     -15596.999     -15439.65       129.25625      111238         13.384831    
      2770   298.42071     -15597.359     -15439.399      26.199966      111260.01      13.41088     
      2780   299.59211     -15597.715     -15439.135     -73.451423      111280.56      13.435698    
      2790   299.90419     -15597.603     -15438.857     -145.62687      111297.77      13.459943    
      2800   299.05823     -15596.871     -15438.574     -180.75255      111310.4       13.484421    
      2810   297.52647     -15595.781     -15438.294     -174.87267      111318.2       13.510043    
      2820   296.29966     -15594.82      -15437.983     -168.33388      111321.65      13.537629    
      2830   296.2226      -15594.442     -15437.646     -172.33939      111321.23      13.567705    
      2840   297.59402     -15594.789     -15437.267     -184.85215      111317.23      13.600564    
      2850   299.85862     -15595.591     -15436.87      -225.83473      111309.6       13.636312    
      2860   301.45838     -15596.036     -15436.468     -252.58746      111297.92      13.674916    
      2870   301.14578     -15595.486     -15436.084     -247.19002      111282.05      13.716231    
      2880   299.28515     -15594.133     -15435.715     -214.14808      111262.42      13.759865    
      2890   297.25811     -15592.68      -15435.335     -157.88785      111240.03      13.805241    
      2900   296.80756     -15592.045     -15434.939     -116.57669      111216.21      13.851633    
      2910   298.53537     -15592.523     -15434.503     -112.06978      111191.93      13.898303    
      2920   300.75382     -15593.258     -15434.063     -103.87245      111167.41      13.944627    
      2930   301.68176     -15593.303     -15433.616     -73.788021      111142.81      13.989975    
      2940   301.28467     -15592.669     -15433.193     -2.5424047      111118.8       14.033738    
      2950   300.57225     -15591.877     -15432.778      65.877709      111096.77      14.075511    
      2960   300.00155     -15591.168     -15432.371      91.74372       111077.86      14.11515     
      2970   300.18283     -15590.862     -15431.969      112.20195      111062.45      14.152772    
      2980   301.86117     -15591.343     -15431.562      114.94854      111050.66      14.18852     
      2990   304.63449     -15592.431     -15431.181      107.53556      111042.24      14.222529    
      3000   307.29293     -15593.504     -15430.848      92.674165      111036.69      14.254994    
      3010   308.72515     -15594.002     -15430.587      105.98325      111033.6       14.28618     
      3020   308.79378     -15593.881     -15430.43       129.52968      111033         14.316361    
      3030   307.95846     -15593.365     -15430.357      154.75703      111035.18      14.345715    
      3040   306.93606     -15592.847     -15430.379      169.30604      111040.39      14.374479    
      3050   306.095       -15592.494     -15430.472      162.11197      111048.68      14.40284     
      3060   305.57439     -15592.381     -15430.634      136.73373      111059.64      14.430782    
      3070   305.0875      -15592.34      -15430.851      111.04907      111072.57      14.458265    
      3080   304.2199      -15592.162     -15431.132      89.261898      111086.77      14.485212    
      3090   302.90588     -15591.784     -15431.45       57.279661      111101.68      14.511288    
      3100   301.06345     -15591.145     -15431.786      30.430393      111116.61      14.535989    
      3110   298.77042     -15590.286     -15432.141      2.2392564      111131.01      14.558899    
      3120   296.73222     -15589.547     -15432.48      -35.918582      111144.33      14.579847    
      3130   296.10836     -15589.514     -15432.778     -100.66757      111155.79      14.598849    
      3140   297.10988     -15590.311     -15433.044     -194.73618      111164.16      14.616061    
      3150   298.8016      -15591.437     -15433.275     -265.1477       111167.85      14.631691    
      3160   300.36307     -15592.489     -15433.501     -326.45757      111165.66      14.646083    
      3170   301.3472      -15593.24      -15433.731     -358.75049      111156.81      14.659594    
      3180   301.35398     -15593.488     -15433.976     -367.1724       111141.13      14.672463    
      3190   300.37578     -15593.225     -15434.23      -330.44764      111118.97      14.68478     
      3200   299.1431      -15592.841     -15434.498     -278.95854      111091.5       14.696544    
      3210   298.52937     -15592.766     -15434.748     -217.00298      111060.18      14.707665    
      3220   298.73613     -15593.113     -15434.986     -167.67432      111026.52      14.718064    
      3230   299.34032     -15593.658     -15435.211     -116.75472      110991.76      14.727685    
      3240   300.04401     -15594.248     -15435.429     -66.593982      110957.01      14.736409    
      3250   300.97331     -15594.959     -15435.648     -16.324968      110923.3       14.744067    
      3260   301.99641     -15595.728     -15435.875      32.101739      110891.66      14.750605    
      3270   302.74649     -15596.382     -15436.132      69.258504      110862.91      14.756091    
      3280   302.78557     -15596.685     -15436.414      123.57006      110837.65      14.760463    
      3290   301.82419     -15596.482     -15436.721      167.80142      110816.7       14.76359     
      3300   300.27579     -15595.989     -15437.047      225.63148      110800.73      14.76544     
      3310   298.56786     -15595.42      -15437.382      269.21162      110790.55      14.766074    
      3320   296.90309     -15594.844     -15437.687      310.19793      110786.72      14.765653    
      3330   295.91911     -15594.607     -15437.971      321.61311      110789.57      14.764391    
      3340   295.61178     -15594.683     -15438.209      318.33423      110798.94      14.762617    
      3350   295.1691      -15594.643     -15438.404      310.4429       110814.32      14.760901    
      3360   294.67053     -15594.521     -15438.546      303.07152      110835.17      14.7597      
      3370   294.39589     -15594.462     -15438.632      286.62815      110861.01      14.759207    
      3380   294.56277     -15594.58      -15438.662      266.49265      110891.2       14.759434    
      3390   295.66077     -15595.133     -15438.634      231.95411      110924.93      14.760414    
      3400   297.73396     -15596.158     -15438.562      197.40192      110961.3       14.76228     
      3410   299.96587     -15597.245     -15438.467      161.32815      110999.45      14.765348    
      3420   301.37049     -15597.882     -15438.36       130.46813      111038.48      14.770004    
      3430   301.50364     -15597.872     -15438.28       136.06111      111077.78      14.776569    
      3440   300.63042     -15597.352     -15438.222      140.13834      111117.38      14.78515     
      3450   299.66424     -15596.781     -15438.163      129.75773      111157.36      14.795519    
      3460   299.33375     -15596.546     -15438.102      88.924723      111197.43      14.807236    
      3470   299.75964     -15596.707     -15438.038      6.395974       111236.74      14.819804    
      3480   300.39583     -15596.972     -15437.966     -98.863539      111273.62      14.833024    
      3490   300.46302     -15596.936     -15437.894     -187.15593      111306.07      14.846987    
      3500   299.627       -15596.422     -15437.823     -249.98955      111332.53      14.861819    
      3510   298.42896     -15595.713     -15437.748     -307.4237       111351.97      14.877408    
      3520   297.63335     -15595.198     -15437.655     -353.61541      111363.64      14.893377    
      3530   297.48861     -15595.002     -15437.535     -379.88191      111367.06      14.909196    
      3540   297.93398     -15595.096     -15437.393     -394.03287      111362.17      14.924349    
      3550   298.77759     -15595.381     -15437.232     -374.67018      111349.28      14.938485    
      3560   299.6842      -15595.678     -15437.049     -325.84323      111329.31      14.951416    
      3570   300.80523     -15596.093     -15436.87      -261.93886      111303.72      14.96312     
      3580   301.88669     -15596.487     -15436.693     -191.3964       111274.16      14.97371     
      3590   302.51096     -15596.657     -15436.532     -98.957368      111242.43      14.983442    
      3600   302.84946     -15596.699     -15436.395      2.203824       111210.59      14.992846    
      3610   302.9028      -15596.63      -15436.297      95.320485      111180.74      15.002565    
      3620   302.87386     -15596.537     -15436.22       165.14969      111154.74      15.013043    
      3630   303.31376     -15596.721     -15436.171      200.23103      111133.76      15.024513    
      3640   304.41199     -15597.303     -15436.171      216.17035      111118.28      15.036987    
      3650   305.74092     -15598.045     -15436.21       198.41472      111108.22      15.050259    
      3660   306.79158     -15598.699     -15436.308      186.01051      111102.95      15.064065    
      3670   307.41414     -15599.215     -15436.494      162.40272      111101.94      15.078083    
      3680   307.33938     -15599.428     -15436.747      120.5616       111104.36      15.091887    
      3690   306.31354     -15599.226     -15437.088      84.400044      111109.16      15.105111    
      3700   304.41693     -15598.616     -15437.482      49.729183      111115.42      15.1174      
      3710   302.84537     -15598.23      -15437.928      13.414689      111122.34      15.128367    
      3720   302.57433     -15598.559     -15438.4       -40.329115      111129.13      15.137819    
      3730   302.88385     -15599.215     -15438.892     -88.338325      111134.69      15.14581     
      3740   302.96018     -15599.776     -15439.413     -130.69276      111138.04      15.152537    
      3750   302.8563      -15600.265     -15439.957     -149.11769      111138.47      15.158396    
      3760   302.70599     -15600.754     -15440.525     -174.32446      111135.7       15.163959    
      3770   302.14162     -15601.048     -15441.118     -176.60372      111129.47      15.169867    
      3780   300.75024     -15600.906     -15441.713     -171.74863      111119.83      15.176638    
      3790   298.62662     -15600.366     -15442.297     -139.43331      111107.2       15.184424    
      3800   296.33038     -15599.716     -15442.862     -99.793978      111092.33      15.193081    
      3810   294.45802     -15599.229     -15443.366     -56.934247      111076.18      15.202286    
      3820   293.54332     -15599.18      -15443.801     -41.550074      111059.66      15.211469    
      3830   293.62846     -15599.586     -15444.162     -40.932781      111043.16      15.219929    
      3840   294.02829     -15600.1       -15444.464     -39.815943      111026.72      15.227134    
      3850   293.96845     -15600.297     -15444.693     -47.421428      111010.31      15.232863    
      3860   293.06938     -15599.99      -15444.863     -38.381297      110993.84      15.236936    
      3870   291.88746     -15599.456     -15444.954     -33.849401      110977.45      15.239134    
      3880   290.98888     -15598.994     -15444.968     -22.627358      110961.26      15.239149    
      3890   290.67264     -15598.751     -15444.892     -15.416106      110945.43      15.236607    
      3900   291.15078     -15598.827     -15444.715      7.2270537      110930.16      15.231215    
      3910   292.24854     -15599.138     -15444.445      23.276075      110915.86      15.222788    
      3920   293.69012     -15599.562     -15444.105      30.83979       110902.78      15.211288    
      3930   295.69711     -15600.215     -15443.696      34.791698      110891.06      15.196949    
      3940   298.59145     -15601.289     -15443.239      22.245958      110880.71      15.180349    
      3950   301.53286     -15602.386     -15442.778      1.5633571      110871.35      15.162276    
      3960   303.17047     -15602.792     -15442.318     -10.535538      110862.52      15.143574    
      3970   303.13379     -15602.354     -15441.899      11.994469      110853.97      15.124906    
      3980   302.14254     -15601.447     -15441.517      50.486157      110846.12      15.106593    
      3990   301.51568     -15600.754     -15441.156      69.146719      110839.68      15.088839    
      4000   302.49734     -15600.936     -15440.818      72.273296      110835.02      15.071945    
      4010   304.8843      -15601.894     -15440.512      46.651444      110832.06      15.056329    
      4020   307.07251     -15602.793     -15440.253      15.955026      110830.21      15.042368    
      4030   307.69337     -15602.947     -15440.079     -0.065984693    110828.79      15.030388    
      4040   306.87924     -15602.419     -15439.982      16.001477      110827.52      15.020774    
      4050   305.64968     -15601.748     -15439.961      23.352595      110826.59      15.013872    
      4060   304.72851     -15601.299     -15440          15.477491      110826.2       15.009953    
      4070   304.294       -15601.17      -15440.101     -7.8055967      110826.1       15.009002    
      4080   303.95353     -15601.135     -15440.246     -24.34812       110825.81      15.010751    
      4090   303.33371     -15600.983     -15440.423     -14.165559      110825.08      15.01481     
      4100   302.52681     -15600.769     -15440.635      4.2736625      110824.12      15.020681    
      4110   302.4925      -15600.991     -15440.876      4.7037196      110823.24      15.027819    
      4120   303.43729     -15601.763     -15441.147     -20.278798      110822.43      15.035672    
      4130   304.37791     -15602.564     -15441.451     -52.999541      110821.21      15.043701    
      4140   304.44845     -15602.951     -15441.8       -93.947546      110818.88      15.051318    
      4150   303.4726      -15602.824     -15442.19      -119.44881      110814.68      15.057827    
      4160   301.76999     -15602.358     -15442.625     -121.56405      110808.19      15.062505    
      4170   299.75921     -15601.733     -15443.065     -107.07391      110799.47      15.064592    
      4180   297.94787     -15601.203     -15443.493     -87.597725      110788.91      15.063536    
      4190   297.13287     -15601.18      -15443.901     -65.598666      110777         15.059194    
      4200   297.99283     -15601.999     -15444.265     -43.233046      110764.33      15.051819    
      4210   300.1368      -15603.484     -15444.616     -48.427922      110751.29      15.041936    
      4220   302.2649      -15604.965     -15444.97      -37.927788      110737.89      15.030221    
      4230   303.46436     -15605.978     -15445.348     -0.19525797     110724.4       15.017442    
      4240   303.46292     -15606.378     -15445.749      46.918917      110711.56      15.00426     
      4250   302.15373     -15606.133     -15446.197      112.05444      110700.35      14.991142    
      4260   299.67526     -15605.273     -15446.649      185.54624      110692.04      14.978482    
      4270   296.55345     -15604.061     -15447.089      262.53         110688.01      14.966462    
      4280   294.31204     -15603.274     -15447.489      317.47166      110689.68      14.955224    
      4290   294.53814     -15603.724     -15447.819      292.27655      110697.84      14.945028    
      4300   296.86701     -15605.24      -15448.103      192.96352      110711.66      14.936282    
      4310   299.42613     -15606.845     -15448.352      90.009399      110728.96      14.929531    
      4320   300.78678     -15607.812     -15448.6       -3.3158098      110747.4       14.92512     
      4330   300.96017     -15608.154     -15448.85      -81.113401      110764.96      14.922918    
      4340   300.20928     -15608.012     -15449.105     -141.20748      110780.05      14.922428    
      4350   298.39513     -15607.321     -15449.375     -158.57114      110791.53      14.922888    
      4360   296.11517     -15606.352     -15449.612     -148.14318      110799.2       14.923528    
      4370   294.54747     -15605.726     -15449.816     -130.97538      110803.42      14.923604    
      4380   294.07995     -15605.623     -15449.961     -118.0287       110804.68      14.92248     
      4390   294.18054     -15605.765     -15450.049     -108.08386      110803.33      14.91959     
      4400   294.42652     -15605.925     -15450.079     -91.087044      110799.72      14.914437    
      4410   294.83136     -15606.104     -15450.044     -73.14198       110794.31      14.90678     
      4420   295.39539     -15606.319     -15449.961     -46.299053      110787.61      14.896655    
      4430   296.1355      -15606.575     -15449.825     -19.038686      110780.2       14.884356    
      4440   296.9986      -15606.856     -15449.649      5.5435727      110772.7       14.870311    
      4450   297.79713     -15607.068     -15449.438      30.238013      110765.62      14.85494     
      4460   298.30322     -15607.104     -15449.206      84.83662       110759.57      14.838608    
      4470   298.82057     -15607.125     -15448.953      118.57274      110755.47      14.82154     
      4480   299.48522     -15607.206     -15448.682      153.82463      110754.05      14.803843    
      4490   299.86964     -15607.141     -15448.414      201.75315      110755.96      14.785451    
      4500   299.92491     -15606.894     -15448.137      238.53426      110762.04      14.766214    
      4510   299.76747     -15606.535     -15447.862      288.07874      110773         14.745893    
      4520   298.99369     -15605.854     -15447.59       330.73493      110789.65      14.724207    
      4530   297.4143      -15604.73      -15447.303      366.12133      110812.7       14.700837    
      4540   295.58395     -15603.463     -15447.004      396.53891      110842.7       14.675501    
      4550   294.27175     -15602.413     -15446.649      423.93356      110879.98      14.648104    
      4560   294.38686     -15602.084     -15446.259      420.78326      110924.77      14.618776    
      4570   296.63098     -15602.821     -15445.808      370.52993      110976.7       14.587909    
      4580   300.60001     -15604.435     -15445.321      285.12569      111034.45      14.556228    
      4590   304.62574     -15606.09      -15444.845      189.68009      111095.99      14.524779    
      4600   306.71468     -15606.769     -15444.418      121.6039       111159.25      14.494581    
      4610   306.51157     -15606.311     -15444.068      76.438513      111222.65      14.466455    
      4620   305.39801     -15605.434     -15443.78       27.486346      111285.14      14.4409      
      4630   305.04766     -15605.027     -15443.559     -37.796304      111345.7       14.418225    
      4640   305.41516     -15605.043     -15443.381     -140.2634       111402.92      14.398573    
      4650   305.77835     -15605.123     -15443.268     -245.39488      111454.76      14.381869    
      4660   305.70988     -15605.032     -15443.214     -331.78664      111499.24      14.367781    
      4670   305.11989     -15604.723     -15443.217     -400.9369       111534.78      14.355936    
      4680   303.57788     -15603.969     -15443.279     -443.65326      111560.24      14.346031    
      4690   300.92727     -15602.664     -15443.377     -448.74835      111575.18      14.337702    
      4700   297.81968     -15601.136     -15443.494     -413.76636      111579.93      14.330476    
      4710   295.04025     -15599.758     -15443.587     -364.45034      111575.63      14.323806    
      4720   293.19602     -15598.826     -15443.632     -323.84192      111563.64      14.317354    
      4730   292.76595     -15598.58      -15443.613     -294.40371      111545.11      14.311044    
      4740   293.58222     -15598.921     -15443.522     -270.98032      111520.91      14.304968    
      4750   295.40735     -15599.719     -15443.354     -233.85574      111491.82      14.299309    
      4760   298.00451     -15600.877     -15443.137     -206.9385       111458.8       14.294237    
      4770   300.87476     -15602.159     -15442.9       -176.81044      111422.64      14.289933    
      4780   303.2904      -15603.193     -15442.656     -133.38499      111384.09      14.286658    
      4790   304.55802     -15603.668     -15442.459     -77.30248       111344.16      14.284659    
      4800   304.62523     -15603.537     -15442.293      0.99055595     111304.12      14.284132    
      4810   303.77075     -15602.971     -15442.179      86.218081      111265.65      14.285095    
      4820   302.19234     -15602.052     -15442.095      164.1089       111230.47      14.287416    
      4830   300.54992     -15601.127     -15442.04       238.72283      111200.13      14.290845    
      4840   299.47931     -15600.507     -15441.986      301.99996      111176.04      14.295095    
      4850   299.75197     -15600.596     -15441.931      324.414        111159.2       14.29987     
      4860   301.53958     -15601.48      -15441.869      310.87511      111149.84      14.304956    
      4870   304.03947     -15602.771     -15441.836      276.99607      111147.46      14.310169    
      4880   305.61874     -15603.61      -15441.84       232.88438      111151.1       14.315333    
      4890   305.52107     -15603.619     -15441.901      192.53821      111159.64      14.319988    
      4900   304.37901     -15603.134     -15442.02       167.09527      111172.04      14.323568    
      4910   302.49745     -15602.313     -15442.195      172.44149      111187.63      14.3255      
      4920   300.35936     -15601.378     -15442.392      185.64961      111206.39      14.325376    
      4930   298.83969     -15600.779     -15442.597      192.96987      111228.48      14.323033    
      4940   298.62663     -15600.867     -15442.798      194.55746      111253.91      14.318508    
      4950   299.18078     -15601.354     -15442.992      178.05998      111282.56      14.312002    
      4960   299.9005      -15601.914     -15443.171      162.80542      111314.06      14.303684    
      4970   301.17997     -15602.78      -15443.36       121.98509      111347.9       14.29365     
      4980   302.89052     -15603.889     -15443.563      55.756704      111383.1       14.282059    
      4990   303.56045     -15604.485     -15443.805      0.092755136    111418.34      14.26919     
      5000   301.93668     -15603.897     -15444.076     -26.826729      111452.45      14.255352    
      5010   298.38919     -15602.315     -15444.372     -33.483324      111484.82      14.240924    
      5020   294.74594     -15600.661     -15444.646     -44.013577      111515.34      14.226149    
      5030   292.81685     -15599.855     -15444.862     -81.335237      111543.82      14.211098    
      5040   293.43192     -15600.322     -15445.003     -155.83625      111569.54      14.195628    
      5050   296.02138     -15601.788     -15445.098     -252.22368      111590.97      14.179451    
      5060   299.10568     -15603.462     -15445.139     -344.37935      111606.22      14.162275    
      5070   301.03862     -15604.526     -15445.181     -394.81613      111613.55      14.143866    
      5080   301.17171     -15604.646     -15445.229     -398.14058      111612.17      14.124206    
      5090   300.14829     -15604.168     -15445.293     -374.10977      111602.23      14.103521    
      5100   299.27346     -15603.771     -15445.359     -333.53029      111584.53      14.082348    
      5110   299.06206     -15603.723     -15445.423     -293.95643      111560.19      14.061519    
      5120   299.38411     -15603.946     -15445.476     -246.60963      111530.26      14.041791    
      5130   299.91669     -15604.282     -15445.53      -187.80113      111495.95      14.023567    
      5140   300.46751     -15604.629     -15445.585     -123.35097      111458.67      14.006756    
      5150   300.94181     -15604.934     -15445.639     -49.847887      111419.87      13.991101    
      5160   300.86418     -15604.965     -15445.711      14.053982      111381.18      13.976257    
      5170   300.00562     -15604.584     -15445.785      83.008522      111344.04      13.961722    
      5180   298.72062     -15603.982     -15445.864      150.21127      111309.86      13.946919    
      5190   298.12145     -15603.741     -15445.939      198.41149      111280         13.931303    
      5200   298.93869     -15604.222     -15445.987      204.24335      111255.28      13.914435    
      5210   300.45834     -15605.076     -15446.037      203.77011      111235.77      13.896198    
      5220   301.35178     -15605.605     -15446.094      194.16268      111221.2       13.876732    
      5230   301.03178     -15605.511     -15446.169      186.10482      111211.22      13.856213    
      5240   299.95218     -15605.037     -15446.266      183.43813      111205.54      13.834733    
      5250   298.61502     -15604.428     -15446.365      181.88308      111203.95      13.812299    
      5260   297.23743     -15603.78      -15446.446      181.77815      111206.34      13.78904     
      5270   296.12956     -15603.255     -15446.507      170.10838      111212.56      13.765237    
      5280   295.83716     -15603.128     -15446.535      161.86735      111222.28      13.741297    
      5290   296.27411     -15603.336     -15446.512      124.01548      111235.13      13.717723    
      5300   296.89106     -15603.604     -15446.454      81.562871      111250.23      13.695141    
      5310   297.48675     -15603.82      -15446.355      46.492153      111266.65      13.674219    
      5320   298.36504     -15604.152     -15446.222      9.1271789      111283.52      13.655563    
      5330   299.6569      -15604.661     -15446.047     -18.723586      111300.09      13.639514    
      5340   300.83424     -15605.095     -15445.857     -28.519412      111315.79      13.626189    
      5350   301.28349     -15605.135     -15445.659     -20.405941      111330.4       13.615477    
      5360   300.97451     -15604.773     -15445.462      32.349764      111344.28      13.607091    
      5370   300.64575     -15604.395     -15445.257      90.815142      111358.47      13.600637    
      5380   300.71313     -15604.219     -15445.045      133.91496      111374.13      13.595546    
      5390   301.33766     -15604.327     -15444.823      167.68792      111392.21      13.591269    
      5400   302.63711     -15604.792     -15444.6        177.24865      111413.38      13.587413    
      5410   304.49486     -15605.561     -15444.385      173.72758      111437.83      13.583778    
      5420   306.31558     -15606.335     -15444.196      172.83149      111465.38      13.580278    
      5430   307.38146     -15606.768     -15444.064      164.63298      111495.9       13.576878    
      5440   307.06826     -15606.543     -15444.006      160.88324      111529.18      13.573616    
      5450   305.41481     -15605.682     -15444.019      171.34337      111565.13      13.570617    
      5460   303.15789     -15604.559     -15444.091      177.46436      111603.9       13.568026    
      5470   301.36425     -15603.729     -15444.21       157.24067      111645.49      13.565876    
      5480   300.5586      -15603.45      -15444.358      94.561801      111689.34      13.564035    
      5490   300.33735     -15603.5       -15444.525      17.970062      111734.04      13.562365    
      5500   300.16418     -15603.604     -15444.721     -53.929252      111777.95      13.560777    
      5510   300.28682     -15603.878     -15444.93      -113.83413      111819.62      13.559069    
      5520   301.07144     -15604.541     -15445.178     -191.95777      111857.67      13.557001    
      5530   301.97857     -15605.301     -15445.457     -259.8067       111890.56      13.554248    
      5540   301.88119     -15605.588     -15445.796     -301.50994      111917         13.550447    
      5550   300.12424     -15605.045     -15446.183     -290.70776      111936.31      13.54531     
      5560   297.35976     -15604.011     -15446.612     -254.06127      111948.84      13.538706    
      5570   294.80709     -15603.084     -15447.037     -212.45465      111955.52      13.530608    
      5580   293.15389     -15602.6       -15447.427     -161.78005      111957.4       13.521233    
      5590   292.44563     -15602.552     -15447.754     -140.99509      111955.6       13.511032    
      5600   292.50996     -15602.852     -15448.02      -142.283        111950.69      13.50057     
      5610   293.00752     -15603.314     -15448.22      -150.62185      111942.78      13.490556    
      5620   293.47622     -15603.701     -15448.358     -171.12505      111931.72      13.481618    
      5630   293.44756     -15603.756     -15448.428     -186.76925      111917.18      13.474066    
      5640   292.89928     -15603.475     -15448.437     -194.92579      111898.88      13.467797    
      5650   292.54242     -15603.215     -15448.366     -198.7592       111876.72      13.46251     
      5660   292.71813     -15603.144     -15448.202     -193.69384      111850.7       13.458011    
      5670   293.32061     -15603.223     -15447.962     -181.77742      111821.07      13.454184    
      5680   294.09644     -15603.272     -15447.601     -156.26698      111788.19      13.450861    
      5690   295.03836     -15603.322     -15447.152     -122.41571      111752.68      13.447682    
      5700   296.47482     -15603.548     -15446.618     -78.721953      111715.38      13.444191    
      5710   298.48193     -15604.004     -15446.011     -32.113955      111677.34      13.439848    
      5720   300.6872      -15604.525     -15445.366      9.9788751      111639.56      13.434077    
      5730   302.5627      -15604.902     -15444.75       58.114609      111602.93      13.426409    
      5740   304.05988     -15605.131     -15444.186      88.164506      111568.4       13.416437    
      5750   305.29582     -15605.316     -15443.717      129.53827      111536.71      13.403752    
      5760   306.12472     -15605.395     -15443.357      157.54808      111508.58      13.388153    
      5770   306.36457     -15605.27      -15443.105      187.95665      111484.59      13.369666    
      5780   306.47571     -15605.173     -15442.949      215.26617      111465.27      13.348535    
      5790   306.80083     -15605.283     -15442.887      227.94123      111451.05      13.325189    
      5800   307.35046     -15605.588     -15442.901      225.38231      111442.04      13.300224    
      5810   307.7982      -15605.907     -15442.983      234.7526       111438.19      13.274324    
      5820   307.55202     -15605.933     -15443.139      215.76214      111439.43      13.248103    
      5830   306.45229     -15605.565     -15443.354      202.20771      111445.34      13.222172    
      5840   304.57415     -15604.831     -15443.614      163.23465      111455.36      13.197072    
      5850   302.29271     -15603.899     -15443.89       139.78397      111468.66      13.173268    
      5860   299.87413     -15602.875     -15444.146      106.23338      111484.6       13.150972    
      5870   297.46847     -15601.84      -15444.384      79.479814      111502.42      13.130206    
      5880   295.38218     -15600.921     -15444.569      67.579644      111521.53      13.110906    
      5890   294.09673     -15600.357     -15444.686      47.780135      111541.59      13.092957    
      5900   293.62809     -15600.162     -15444.739      30.360674      111562.16      13.076229    
      5910   293.49368     -15600.078     -15444.726      3.0117801      111582.82      13.060567    
      5920   293.44379     -15599.975     -15444.649     -21.793023      111603.03      13.045866    
      5930   293.66593     -15599.953     -15444.51      -54.314888      111622.17      13.032192    
      5940   293.8922      -15599.879     -15444.316     -82.117637      111639.63      13.019762    
      5950   294.12185     -15599.766     -15444.081     -86.883336      111654.85      13.008756    
      5960   294.78034     -15599.819     -15443.786     -85.997425      111667.75      12.999354    
      5970   296.40649     -15600.353     -15443.459     -88.713053      111678.42      12.9919      
      5980   298.9883      -15601.381     -15443.12      -97.042916      111686.79      12.986839    
      5990   301.88083     -15602.582     -15442.79      -84.930175      111692.87      12.984615    
      6000   304.14124     -15603.488     -15442.5       -69.151992      111696.94      12.985633    
      6010   305.36351     -15603.902     -15442.267     -56.3701        111699.37      12.990107    
      6020   305.37618     -15603.756     -15442.114     -29.611531      111700.56      12.998197    
      6030   304.05821     -15602.968     -15442.024      9.7844427      111701.09      13.009841    
      6040   302.02907     -15601.853     -15441.982      55.088487      111701.81      13.024728    
      6050   300.23876     -15600.889     -15441.966      105.46671      111703.72      13.042327    
      6060   299.29627     -15600.374     -15441.95       147.21145      111707.87      13.061976    
      6070   299.58671     -15600.512     -15441.934      161.36742      111715.05      13.082824    
      6080   301.22721     -15601.365     -15441.92       147.65152      111725.49      13.103938    
      6090   303.34076     -15602.482     -15441.918      116.615        111738.82      13.124489    
      6100   304.77071     -15603.273     -15441.952      97.619844      111754.42      13.143756    
      6110   304.97691     -15603.454     -15442.024      74.406538      111771.76      13.161193    
      6120   304.00482     -15603.065     -15442.15       55.353099      111790.26      13.176464    
      6130   302.45858     -15602.404     -15442.307      34.283733      111809.44      13.189451    
      6140   301.18669     -15601.911     -15442.487      5.4341375      111828.84      13.200178    
      6150   300.772       -15601.875     -15442.67      -30.861411      111847.83      13.208855    
      6160   300.79637     -15602.075     -15442.858     -71.117306      111865.68      13.215938    
      6170   300.44036     -15602.066     -15443.037     -97.138298      111881.54      13.222059    
      6180   300.11989     -15602.072     -15443.213     -95.7815        111894.93      13.227962    
      6190   300.30308     -15602.348     -15443.391     -90.583545      111905.91      13.234346    
      6200   300.9222      -15602.845     -15443.56      -90.353491      111914.63      13.241765    
      6210   301.88441     -15603.524     -15443.731     -85.099409      111921.18      13.250575    
      6220   302.51318     -15604.031     -15443.905     -54.745857      111925.76      13.261031    
      6230   302.35076     -15604.146     -15444.106     -6.0027395      111929.01      13.273318    
      6240   301.91247     -15604.12      -15444.312      54.112995      111932.09      13.287594    
      6250   302.3572      -15604.567     -15444.524      89.949295      111936.18      13.303931    
      6260   303.3747      -15605.325     -15444.743      108.66051      111942.1       13.322276    
      6270   303.93175     -15605.85      -15444.972      131.5916       111950.26      13.342388    
      6280   303.65913     -15605.935     -15445.202      156.51296      111961.09      13.363692    
      6290   303.08981     -15605.88      -15445.448      159.77272      111975.05      13.385281    
      6300   302.33271     -15605.697     -15445.666      128.08077      111992.12      13.406234    
      6310   301.07092     -15605.227     -15445.864      103.28088      112011.66      13.425925    
      6320   299.7069      -15604.671     -15446.03       78.534333      112033.02      13.443939    
      6330   299.27951     -15604.567     -15446.153      47.760424      112055.57      13.459928    
      6340   299.80454     -15604.934     -15446.241      5.9387329      112078.62      13.473522    
      6350   300.74907     -15605.509     -15446.316     -45.667826      112101.2       13.484303    
      6360   301.51381     -15605.973     -15446.375     -62.697396      112122.32      13.491983    
      6370   301.28958     -15605.935     -15446.456     -63.387132      112141.59      13.496344    
      6380   299.62667     -15605.121     -15446.523     -33.276021      112159.07      13.497105    
      6390   297.16897     -15603.889     -15446.591     -0.91693        112175.39      13.494123    
      6400   295.10348     -15602.829     -15446.625      5.2905238      112191.28      13.487459    
      6410   294.40601     -15602.446     -15446.611     -14.915154      112206.9       13.477455    
      6420   294.96983     -15602.668     -15446.534     -60.876281      112221.77      13.464743    
      6430   296.04853     -15603.117     -15446.413     -132.12267      112234.9       13.450117    
      6440   297.14073     -15603.533     -15446.251     -197.11888      112244.84      13.434287    
      6450   298.37012     -15603.995     -15446.062     -250.80535      112250.22      13.41759     
      6460   299.87863     -15604.588     -15445.856     -286.601        112249.97      13.400214    
      6470   300.87998     -15604.926     -15445.664     -295.96393      112243.46      13.382329    
      6480   300.67377     -15604.615     -15445.463     -274.39762      112230.64      13.364122    
      6490   299.42296     -15603.77      -15445.279     -206.40047      112212.13      13.345805    
      6500   298.1052      -15602.88      -15445.087     -126.69002      112189.45      13.327795    
      6510   297.60128     -15602.397     -15444.871     -51.552386      112164.43      13.31059     
      6520   298.05905     -15602.395     -15444.626      16.912751      112138.77      13.294749    
      6530   299.38029     -15602.817     -15444.349      82.270602      112114.02      13.280947    
      6540   301.11367     -15603.448     -15444.063      148.74005      112091.62      13.269846    
      6550   302.36659     -15603.826     -15443.777      198.95678      112072.92      13.261936    
      6560   302.48049     -15603.613     -15443.504      253.2355       112059.01      13.257532    
      6570   302.00707     -15603.112     -15443.254      307.88395      112051.03      13.256748    
      6580   302.15049     -15602.965     -15443.03       340.44415      112049.94      13.259471    
      6590   303.19037     -15603.308     -15442.823      332.95512      112056.23      13.26549     
      6600   304.36149     -15603.745     -15442.64       300.65597      112069.63      13.274627    
      6610   304.67133     -15603.77      -15442.501      246.24931      112089.25      13.286694    
      6620   304.27791     -15603.462     -15442.401      213.60067      112113.89      13.301407    
      6630   304.00998     -15603.265     -15442.346      171.56391      112142.68      13.318296    
      6640   304.27193     -15603.387     -15442.329      104.10364      112174.51      13.336604    
      6650   304.57593     -15603.573     -15442.355      53.798369      112207.97      13.355619    
      6660   304.50854     -15603.625     -15442.442     -6.2105761      112241.87      13.374867    
      6670   304.03027     -15603.509     -15442.579     -40.651636      112274.98      13.394097    
      6680   303.21254     -15603.296     -15442.799     -98.834958      112306.39      13.413166    
      6690   302.25901     -15603.067     -15443.076     -182.43958      112334.87      13.431734    
      6700   301.20313     -15602.864     -15443.431     -244.50612      112358.81      13.449296    
      6710   300.18881     -15602.772     -15443.876     -298.53986      112376.84      13.465498    
      6720   299.44174     -15602.879     -15444.378     -356.79933      112387.82      13.480191    
      6730   298.77886     -15603.102     -15444.952     -391.91558      112390.74      13.49338     
      6740   297.93911     -15603.273     -15445.568     -416.96442      112384.94      13.505106    
      6750   297.22571     -15603.53      -15446.203     -424.00658      112370.05      13.515488    
      6760   296.82394     -15603.932     -15446.817     -389.5488       112346.16      13.52484     
      6770   296.77958     -15604.48      -15447.389     -362.9933       112314.09      13.533696    
      6780   297.11877     -15605.174     -15447.903     -311.72607      112274.72      13.542618    
      6790   297.40698     -15605.777     -15448.354     -244.70754      112229.3       13.552032    
      6800   297.18036     -15606.046     -15448.742     -162.97836      112179.4       13.562149    
      6810   296.65184     -15606.08      -15449.056     -76.285495      112126.9       13.573088    
      6820   296.23577     -15606.12      -15449.317      17.342353      112073.78      13.585003    
      6830   295.96611     -15606.166     -15449.505      84.300502      112022.01      13.598193    
      6840   295.99134     -15606.299     -15449.625      154.43451      111973.12      13.612933    
      6850   296.64819     -15606.731     -15449.71       202.45077      111928.5       13.629371    
      6860   297.79929     -15607.377     -15449.746      234.16395      111889.15      13.647494    
      6870   298.7917      -15607.914     -15449.758      252.14448      111855.67      13.667339    
      6880   299.18981     -15608.132     -15449.765      246.01415      111828.28      13.688955    
      6890   299.12366     -15608.094     -15449.762      253.68848      111806.85      13.71232     
      6900   298.70123     -15607.849     -15449.74       266.00615      111791.36      13.737305    
      6910   298.00889     -15607.456     -15449.714      281.01542      111781.96      13.76359     
      6920   297.423       -15607.098     -15449.666      282.48505      111778.86      13.790723    
      6930   297.32633     -15606.977     -15449.596      275.23148      111782.02      13.818099    
      6940   297.46944     -15606.947     -15449.491      239.94437      111791.07      13.845022    
      6950   297.54549     -15606.867     -15449.37       201.69647      111805.21      13.870775    
      6960   297.53765     -15606.713     -15449.22       156.4442       111823.48      13.894664    
      6970   297.72239     -15606.637     -15449.046      107.15458      111844.81      13.916003    
      6980   298.09891     -15606.645     -15448.855      67.487326      111868.1       13.934223    
      6990   298.9645      -15606.891     -15448.643      13.223285      111892.37      13.949043    
      7000   300.77227     -15607.62      -15448.415     -36.749936      111916.46      13.960495    
      7010   303.03411     -15608.602     -15448.199     -82.832138      111939.3       13.96902     
      7020   304.54984     -15609.207     -15448.003     -113.96389      111959.94      13.975278    
      7030   305.03566     -15609.306     -15447.844     -119.01095      111977.81      13.979841    
      7040   304.44469     -15608.893     -15447.744     -107.30387      111992.76      13.983104    
      7050   302.91315     -15608.018     -15447.68      -62.663309      112005.16      13.985412    
      7060   301.38319     -15607.174     -15447.646     -5.3258693      112015.98      13.98713     
      7070   300.38031     -15606.629     -15447.632      32.317218      112026.46      13.988644    
      7080   299.58731     -15606.19      -15447.613      43.790124      112037.4       13.990359    
      7090   298.81808     -15605.757     -15447.586      66.274107      112049.12      13.992524    
      7100   298.2093      -15605.401     -15447.553      76.864253      112062.04      13.995283    
      7110   297.98605     -15605.199     -15447.469      72.743697      112076.42      13.998617    
      7120   298.25218     -15605.218     -15447.347      31.754876      112092.05      14.002528    
      7130   299.40955     -15605.646     -15447.162     -18.260125      112108.13      14.007045    
      7140   301.24809     -15606.36      -15446.904     -101.65202      112123.47      14.012285    
      7150   302.69096     -15606.812     -15446.592     -151.26588      112136.44      14.018299    
      7160   302.74393     -15606.493     -15446.245     -185.65659      112145.86      14.024967    
      7170   301.73667     -15605.572     -15445.857     -194.33057      112151.09      14.032065    
      7180   301.07538     -15604.813     -15445.448     -204.5078       112151.93      14.039278    
      7190   301.47214     -15604.593     -15445.017     -219.13897      112148.26      14.046293    
      7200   302.43663     -15604.662     -15444.576     -233.80044      112139.84      14.05294     
      7210   303.38444     -15604.729     -15444.141     -228.46537      112126.42      14.05923     
      7220   304.06897     -15604.691     -15443.742     -199.50427      112108.18      14.065324    
      7230   304.67227     -15604.65      -15443.381     -161.63354      112085.77      14.071611    
      7240   305.67412     -15604.863     -15443.064     -116.75152      112060.13      14.078534    
      7250   307.01904     -15605.335     -15442.824     -67.479508      112032.24      14.086492    
      7260   308.05483     -15605.704     -15442.644     -3.733899       112003.25      14.095878    
      7270   308.58179     -15605.896     -15442.557      55.852351      111974.59      14.106951    
      7280   308.69823     -15605.954     -15442.554      108.83438      111947.52      14.119785    
      7290   308.26911     -15605.82      -15442.647      157.32378      111923.17      14.134295    
      7300   307.40938     -15605.557     -15442.839      188.95987      111902.56      14.150278    
      7310   306.57647     -15605.392     -15443.114      211.17586      111886.33      14.167428    
      7320   305.87749     -15605.38      -15443.473      222.11072      111874.9       14.185462    
      7330   305.34708     -15605.518     -15443.891      208.95061      111868.44      14.204187    
      7340   305.22423     -15605.94      -15444.379      200.66182      111866.65      14.223347    
      7350   305.32908     -15606.533     -15444.916      185.76677      111869.24      14.242552    
      7360   304.66144     -15606.756     -15445.492      196.11852      111875.93      14.261353    
      7370   302.97248     -15606.452     -15446.083      217.17257      111886.83      14.279409    
      7380   300.9844      -15605.968     -15446.651      242.09195      111902.43      14.296501    
      7390   299.66597     -15605.795     -15447.176      247.6634       111923.17      14.312435    
      7400   299.1988      -15606.004     -15447.632      218.32267      111949.04      14.326978    
      7410   299.05652     -15606.328     -15448.031      188.70446      111979.42      14.340065    
      7420   298.51913     -15606.391     -15448.378      145.12975      112013.57      14.351948    
      7430   297.42127     -15606.088     -15448.657      110.34882      112050.57      14.363166    
      7440   296.25679     -15605.7       -15448.885      76.62713       112089.61      14.374286    
      7450   295.99705     -15605.735     -15449.058      25.889494      112129.88      14.385666    
      7460   297.01511     -15606.381     -15449.165     -52.840332      112170.2       14.397394    
      7470   298.33968     -15607.16      -15449.243     -144.82914      112208.87      14.409361    
      7480   298.69006     -15607.394     -15449.291     -226.7641       112243.88      14.421448    
      7490   297.84559     -15606.974     -15449.318     -271.92219      112273.53      14.433541    
      7500   296.61121     -15606.321     -15449.319     -288.61177      112296.86      14.445645    
      7510   295.72019     -15605.823     -15449.293     -291.67783      112313.52      14.457852    
      7520   295.59306     -15605.683     -15449.219     -286.91952      112323.56      14.470285    
      7530   296.45098     -15606.023     -15449.106     -310.94307      112327.05      14.483218    
      7540   298.14174     -15606.772     -15448.96      -311.77199      112323.69      14.496942    
      7550   299.9353      -15607.544     -15448.782     -319.29504      112313.44      14.511486    
      7560   300.96273     -15607.912     -15448.606     -307.09556      112296.27      14.52658     
      7570   300.96742     -15607.738     -15448.43      -287.71015      112272.42      14.541695    
      7580   300.17236     -15607.154     -15448.267     -251.54956      112242.45      14.556351    
      7590   298.91122     -15606.307     -15448.087     -201.23961      112207.28      14.570398    
      7600   298.02023     -15605.643     -15447.894     -136.10249      112168.05      14.583946    
      7610   298.3048      -15605.567     -15447.669     -87.943058      112126.14      14.597268    
      7620   299.7805      -15606.091     -15447.411     -39.843296      112082.71      14.610717    
      7630   301.62811     -15606.781     -15447.123      3.203943       112038.78      14.624725    
      7640   303.02624     -15607.233     -15446.835      72.817108      111995.4       14.639601    
      7650   303.37218     -15607.13      -15446.549      151.93503      111954.07      14.655547    
      7660   302.67771     -15606.492     -15446.279      225.88166      111916.46      14.672472    
      7670   301.24433     -15605.465     -15446.01       294.03186      111884.17      14.690004    
      7680   300.33662     -15604.707     -15445.733      346.39635      111858.67      14.707731    
      7690   301.16851     -15604.842     -15445.427      359.79807      111840.97      14.725236    
[...]
      8350   297.04689     -15609.914     -15452.681      403.28672      111408.9       15.285852    
      8360   298.36957     -15609.785     -15451.852      338.20059      111439.21      15.299902    
      8370   300.25446     -15609.846     -15450.915      234.57848      111476.72      15.314513    
      8380   302.13106     -15609.886     -15449.962      139.38635      111519.29      15.329644    
      8390   303.50975     -15609.752     -15449.098      49.626865      111564.76      15.345019    
      8400   303.89173     -15609.268     -15448.412     -27.468393      111611.11      15.360305    
      8410   302.64797     -15608.083     -15447.885     -81.205971      111656.68      15.375079    
      8420   300.07891     -15606.322     -15447.484     -110.78303      111700.3       15.388835    
      8430   297.46924     -15604.618     -15447.162     -126.74398      111741.33      15.40113     
      8440   295.93857     -15603.516     -15446.869     -147.34242      111779.41      15.411576    
      8450   295.63994     -15603.07      -15446.582     -175.02671      111814.06      15.419768    
      8460   295.93715     -15602.938     -15446.293     -177.36515      111844.75      15.425377    
      8470   296.04655     -15602.699     -15445.996     -173.59193      111871.37      15.428275    
      8480   295.9115      -15602.313     -15445.682     -164.9665       111894.03      15.4285      
      8490   296.19748     -15602.135     -15445.351     -166.60576      111912.9       15.426289    
      8500   297.09715     -15602.271     -15445.012     -186.51221      111927.95      15.422043    
      8510   298.4069      -15602.61      -15444.658     -212.83392      111938.8       15.416299    
      8520   300.03926     -15603.128     -15444.311     -256.46581      111944.79      15.409559    
      8530   302.15468     -15603.91      -15443.974     -296.80829      111945.09      15.40218     
      8540   304.27409     -15604.74      -15443.682     -322.25432      111938.84      15.394473    
      8550   305.81146     -15605.315     -15443.443     -310.12399      111925.53      15.386823    
      8560   306.42799     -15605.468     -15443.269     -284.42073      111905.43      15.379734    
      8570   305.96053     -15605.12      -15443.169     -237.47434      111879.08      15.373546    
      8580   304.94442     -15604.55      -15443.137     -185.6646       111847.52      15.36828     
      8590   304.2522      -15604.207     -15443.16      -115.66781      111811.97      15.363863    
      8600   304.16801     -15604.226     -15443.223     -44.702211      111773.95      15.360232    
      8610   304.52963     -15604.526     -15443.333      28.771271      111735.08      15.357276    
      8620   304.90813     -15604.886     -15443.492      109.24664      111696.97      15.354938    
      8630   304.95596     -15605.136     -15443.716      191.73571      111661.32      15.35321     
      8640   304.36145     -15605.095     -15443.99       272.54336      111629.9       15.351928    
      8650   303.02135     -15604.72      -15444.324      371.8879       111604.58      15.350766    
      8660   301.67254     -15604.378     -15444.697      434.26098      111587.4       15.349325    
      8670   301.26561     -15604.562     -15445.096      427.94411      111579.68      15.347263    
      8680   301.90801     -15605.314     -15445.508      394.21485      111581.33      15.344463    
      8690   302.4244      -15606.023     -15445.944      355.92233      111591.62      15.341035    
      8700   301.72556     -15606.116     -15446.407      312.62013      111609.67      15.337252    
      8710   299.86194     -15605.584     -15446.861      283.66949      111634.62      15.333545    
      8720   298.23926     -15605.154     -15447.29       250.58013      111665.81      15.330451    
      8730   298.23246     -15605.543     -15447.682      185.52736      111702.44      15.328521    
      8740   299.5274      -15606.577     -15448.031      90.233547      111743.07      15.328249    
      8750   300.6324      -15607.479     -15448.349     -4.7177957      111785.65      15.330012    
      8760   300.83153     -15607.881     -15448.645     -88.996307      111828.14      15.333959    
      8770   300.71341     -15608.104     -15448.931     -176.63069      111868.61      15.339918    
      8780   300.69548     -15608.35      -15449.185     -261.20302      111905.16      15.347393    
      8790   300.74006     -15608.612     -15449.424     -333.403        111935.94      15.35571     
      8800   300.98704     -15608.97      -15449.651     -407.83829      111959.26      15.36419     
      8810   301.5578      -15609.491     -15449.871     -446.49122      111973.56      15.372279    
      8820   302.01075     -15609.945     -15450.085     -459.6346       111978         15.379528    
      8830   302.0853      -15610.209     -15450.309     -439.6018       111972.28      15.385551    
      8840   302.01134     -15610.387     -15450.526     -382.43783      111956.86      15.390115    
      8850   302.06213     -15610.644     -15450.756     -311.33795      111933         15.393215    
      8860   302.423       -15611.057     -15450.978     -250.36988      111902.2       15.395102    
      8870   303.05085     -15611.618     -15451.207     -168.8434       111865.92      15.396219    
      8880   303.13365     -15611.902     -15451.448     -100.40611      111825.88      15.397065    
      8890   302.26587     -15611.694     -15451.699     -19.502453      111783.62      15.398116    
      8900   300.8204      -15611.167     -15451.937      57.726825      111740.89      15.399824    
      8910   299.46338     -15610.669     -15452.157      129.93769      111699.39      15.402524    
      8920   299.07993     -15610.661     -15452.352      178.11568      111660.68      15.406467    
      8930   299.97907     -15611.299     -15452.514      191.15823      111625.79      15.411893    
      8940   301.56001     -15612.289     -15452.667      192.16252      111595.09      15.419127    
      8950   302.67105     -15613.027     -15452.817      160.74372      111568.53      15.428532    
      8960   302.66874     -15613.194     -15452.986      169.3034       111545.63      15.440272    
      8970   301.72495     -15612.869     -15453.16       174.25785      111526.39      15.45395     
      8980   300.59031     -15612.444     -15453.336      176.16059      111510.94      15.468715    
      8990   300.24889     -15612.429     -15453.501      159.32798      111499.31      15.483588    
      9000   300.76924     -15612.861     -15453.658      141.94494      111491.19      15.497731    
      9010   301.21221     -15613.245     -15453.807      144.57782      111486.24      15.510545    
      9020   300.6345      -15613.092     -15453.96       166.5949       111484.49      15.521814    
      9030   299.07125     -15612.407     -15454.103      231.19639      111486.52      15.531551    
      9040   297.39433     -15611.641     -15454.224      276.67764      111493.6       15.53986     
      9050   296.28774     -15611.153     -15454.322      306.88488      111506.76      15.546813    
      9060   295.95075     -15611.015     -15454.362      314.02119      111526.69      15.55257     
      9070   296.45931     -15611.293     -15454.371      294.88408      111553.56      15.557213    
      9080   297.66394     -15611.893     -15454.333      250.52433      111586.94      15.560865    
      9090   299.17093     -15612.64      -15454.282      194.61371      111625.93      15.563681    
      9100   300.43657     -15613.238     -15454.211      131.84544      111669.29      15.565846    
      9110   300.65528     -15613.297     -15454.154      72.923906      111715.66      15.567576    
      9120   299.75165     -15612.771     -15454.107      18.266126      111763.8       15.568964    
      9130   298.99914     -15612.317     -15454.051     -47.966211      111812.46      15.569997    
      9140   299.37281     -15612.453     -15453.989     -142.10997      111860.09      15.570773    
      9150   300.25875     -15612.847     -15453.914     -240.56253      111904.68      15.571736    
      9160   300.63646     -15612.983     -15453.85      -315.94844      111944.13      15.573499    
      9170   300.18518     -15612.681     -15453.787     -370.53602      111976.7       15.576547    
      9180   299.24111     -15612.125     -15453.731     -407.91093      112001.13      15.581042    
      9190   298.83468     -15611.846     -15453.666     -443.55635      112016.51      15.586736    
      9200   299.44643     -15612.095     -15453.592     -467.04814      112022.07      15.59319     
      9210   300.34533     -15612.497     -15453.518     -475.51087      112017.27      15.599813    
      9220   300.58235     -15612.546     -15453.442     -458.58026      112001.92      15.605952    
      9230   300.03775     -15612.185     -15453.368     -403.79083      111976.37      15.610986    
      9240   298.88121     -15611.49      -15453.286     -312.10128      111941.8       15.614367    
      9250   297.73613     -15610.772     -15453.175     -203.65082      111900.15      15.615701    
      9260   297.75427     -15610.63      -15453.023     -94.177287      111853.8       15.614731    
      9270   299.33643     -15611.241     -15452.796     -25.676338      111805.09      15.611311    
      9280   301.82274     -15612.27      -15452.509      22.216883      111755.61      15.605399    
      9290   303.8592      -15612.986     -15452.147      71.343303      111706.43      15.597189    
      9300   304.50822     -15612.891     -15451.708      140.42738      111658.65      15.58716     
      9310   304.01722     -15612.119     -15451.197      217.07137      111613.79      15.576109    
      9320   303.17341     -15611.088     -15450.612      288.78305      111573.51      15.56498     
      9330   302.70927     -15610.198     -15449.968      352.57614      111539.41      15.554565    
      9340   302.83004     -15609.569     -15449.275      384.98859      111512.86      15.545279    
      9350   303.2816      -15609.117     -15448.584      378.38613      111494.57      15.537266    
      9360   303.6294      -15608.65      -15447.933      372.4747       111484.55      15.530709    
      9370   303.73481     -15608.112     -15447.339      342.61383      111482.61      15.525891    
      9380   303.76792     -15607.62      -15446.83       307.92651      111488.17      15.522985    
      9390   303.73268     -15607.166     -15446.394      275.779        111500.5       15.522069    
      9400   303.80747     -15606.843     -15446.031      251.09099      111518.98      15.523075    
      9410   304.28008     -15606.803     -15445.741      217.05078      111543.05      15.525885    
      9420   304.96504     -15606.932     -15445.507      178.30623      111572.03      15.530321    
      9430   305.264       -15606.932     -15445.349      152.01222      111605.15      15.536128    
      9440   304.72743     -15606.545     -15445.247      134.54703      111641.82      15.542989    
      9450   303.50087     -15605.848     -15445.198      110.46095      111681.67      15.550592    
      9460   302.08269     -15605.094     -15445.195      85.838774      111724.25      15.558551    
      9470   301.43157     -15604.763     -15445.209      39.662833      111769.01      15.566327    
      9480   302.27665     -15605.237     -15445.236     -26.158432      111814.95      15.573336    
      9490   304.37733     -15606.396     -15445.283     -98.035806      111860.6       15.579151    
      9500   306.67114     -15607.713     -15445.386     -176.30114      111904.36      15.583501    
      9510   308.06788     -15608.633     -15445.566     -248.07883      111944.51      15.585989    
      9520   308.2178      -15608.972     -15445.826     -308.89699      111979.44      15.585964    
      9530   307.14838     -15608.767     -15446.187     -355.80758      112007.79      15.582667    
      9540   305.12966     -15608.149     -15446.638     -395.8743       112028.44      15.575397    
      9550   302.69994     -15607.377     -15447.152     -429.76023      112040.42      15.56368     
      9560   300.48152     -15606.726     -15447.675     -449.34861      112042.93      15.547332    
      9570   299.13819     -15606.535     -15448.195     -491.12479      112035.36      15.526343    
      9580   299.19777     -15607.053     -15448.681     -540.67255      112016.73      15.500901    
      9590   300.33669     -15608.111     -15449.137     -580.43614      111985.89      15.471698    
      9600   301.24208     -15608.999     -15449.545     -597.6529       111941.92      15.4399      
      9610   300.73089     -15609.111     -15449.928     -542.51817      111884.48      15.406958    
      9620   298.89889     -15608.49      -15450.277     -421.97501      111814.66      15.374331    
      9630   296.85862     -15607.693     -15450.56      -266.07593      111735.03      15.343301    
      9640   295.75392     -15607.314     -15450.766     -91.161181      111649.05      15.314894    
      9650   296.04259     -15607.602     -15450.9        74.43332       111560.57      15.289906    
      9660   297.2149      -15608.293     -15450.971      247.30133      111473.37      15.268904    
      9670   298.17893     -15608.828     -15450.996      422.11329      111391.27      15.252279    
      9680   298.24441     -15608.858     -15450.992      582.16781      111318.13      15.240149    
      9690   298.18994     -15608.805     -15450.967      727.41849      111257.5       15.232535    
      9700   299.00423     -15609.195     -15450.926      812.24845      111212.53      15.229342    
      9710   300.48739     -15609.947     -15450.893      849.20029      111185.13      15.230313    
      9720   301.90724     -15610.671     -15450.865      839.34773      111176.15      15.235028    
      9730   302.6578      -15611.082     -15450.879      807.47149      111185.5       15.242839    
      9740   302.44669     -15611.017     -15450.925      745.7103       111212.51      15.25297     
      9750   301.44509     -15610.554     -15450.993      660.74309      111255.89      15.264479    
      9760   300.03468     -15609.896     -15451.082      549.84372      111313.86      15.276342    
      9770   298.86843     -15609.358     -15451.161      423.93943      111384.16      15.287505    
      9780   298.46726     -15609.216     -15451.231      266.78788      111464.05      15.297113    
      9790   298.76534     -15609.416     -15451.273      93.151823      111550.08      15.304779    
      9800   299.35144     -15609.746     -15451.293     -84.074698      111638.47      15.310546    
      9810   299.97868     -15610.082     -15451.297     -261.07031      111725.23      15.314737    
      9820   300.25876     -15610.225     -15451.292     -412.73602      111806.46      15.317826    
      9830   299.99714     -15610.086     -15451.291     -512.8395       111878.81      15.320178    
      9840   299.21166     -15609.661     -15451.282     -590.79083      111939.93      15.321992    
      9850   298.44974     -15609.25      -15451.274     -627.77336      111988.13      15.323277    
      9860   298.17193     -15609.088     -15451.259     -642.87487      112022.49      15.324029    
      9870   298.40413     -15609.171     -15451.22      -648.80759      112042.61      15.324351    
      9880   299.01371     -15609.443     -15451.169     -632.50852      112048.39      15.324419    
      9890   299.90826     -15609.854     -15451.106     -596.4679       112040.18      15.324551    
      9900   300.9562      -15610.336     -15451.034     -543.21582      112018.7       15.325102    
      9910   302.09027     -15610.862     -15450.96      -482.94248      111985.14      15.326216    
      9920   303.25216     -15611.412     -15450.895     -423.46773      111940.82      15.327825    
      9930   303.88684     -15611.701     -15450.848     -367.8592       111886.99      15.329771    
      9940   303.47255     -15611.465     -15450.831     -310.00947      111824.9       15.331921    
      9950   302.07364     -15610.737     -15450.844     -223.46328      111755.91      15.334197    
      9960   300.62147     -15609.998     -15450.873     -108.89043      111681.96      15.336505    
      9970   300.01587     -15609.721     -15450.916     -6.2194759      111605.5       15.338845    
      9980   300.33481     -15609.935     -15450.961      91.973968      111528.86      15.341369    
      9990   300.81792     -15610.248     -15451.019      189.94072      111454.17      15.344362    
     10000   300.76768     -15610.295     -15451.092      313.59175      111383.68      15.348159    
Loop time of 13221.3 on 1 procs for 10000 steps with 4096 atoms

Performance: 0.033 ns/day, 734.514 hours/ns, 0.756 timesteps/s, 3.098 katom-step/s
97.4% CPU use with 1 MPI tasks x 1 OpenMP threads

MPI task timing breakdown:
Section |  min time  |  avg time  |  max time  |%varavg| %total
---------------------------------------------------------------
Pair    | 13172      | 13172      | 13172      |   0.0 | 99.63
Bond    | 0.064945   | 0.064945   | 0.064945   |   0.0 |  0.00
Neigh   | 6.1343     | 6.1343     | 6.1343     |   0.0 |  0.05
Comm    | 0.9196     | 0.9196     | 0.9196     |   0.0 |  0.01
Output  | 39.66      | 39.66      | 39.66      |   0.0 |  0.30
Modify  | 2.1442     | 2.1442     | 2.1442     |   0.0 |  0.02
Other   |            | 0.3241     |            |       |  0.00

Nlocal:           4096 ave        4096 max        4096 min
Histogram: 1 0 0 0 0 0 0 0 0 0
Nghost:           4513 ave        4513 max        4513 min
Histogram: 1 0 0 0 0 0 0 0 0 0
Neighs:              0 ave           0 max           0 min
Histogram: 1 0 0 0 0 0 0 0 0 0
FullNghs:       152820 ave      152820 max      152820 min
Histogram: 1 0 0 0 0 0 0 0 0 0

Total # of neighbors = 152820
Ave neighs/atom = 37.30957
Ave special neighs/atom = 0
Neighbor list builds = 965
Dangerous builds = 659
Setting up Verlet run ...
  Unit style    : metal
  Current step  : 10000
  Time step     : 0.0005
Per MPI rank memory allocation (min/avg/max) = 8.898 | 8.898 | 8.898 Mbytes
   Step          Temp          PotEng         TotEng         Press          Volume        c_msd[4]   
     10000   300.76768     -15610.29      -15451.088      313.58998      111383.68      15.348159    
     10010   300.52291     -15610.166     -15451.093      327.24446      111385.06      15.348315    
     10020   300.09179     -15609.936     -15451.091      334.39233      111389.35      15.350149    
     10030   299.96219     -15609.846     -15451.07       341.65183      111396.67      15.353676    
     10040   300.24875     -15609.965     -15451.037      336.99833      111407.03      15.358924    
     10050   300.99946     -15610.295     -15450.97       310.97308      111420.2       15.365885    
     10060   301.50377     -15610.467     -15450.875      282.25914      111435.83      15.374503    
     10070   300.80282     -15609.961     -15450.74       255.82391      111453.57      15.384663    
     10080   299.10202     -15608.875     -15450.554      239.46744      111473.08      15.396184    
     10090   297.7878      -15607.935     -15450.309      219.30511      111494.01      15.408768    
     10100   297.89474     -15607.671     -15449.989      182.48037      111515.88      15.422018    
     10110   299.14253     -15607.93      -15449.587      125.22032      111538.04      15.435408    
     10120   300.80403     -15608.363     -15449.142      77.635422      111559.69      15.448354    
     10130   302.43132     -15608.771     -15448.688      35.430954      111580.17      15.46033     
     10140   303.94452     -1560