LAMMPS (29 Sep 2021 - Update 3)
OMP_NUM_THREADS environment is not set. Defaulting to 1 thread. (src/comm.cpp:98)
  using 1 OpenMP thread(s) per MPI task
Reading data file ...
  orthogonal box = (0.0000000 0.0000000 0.0000000) to (14.934386 14.958024 69.402279)
  1 by 2 by 8 MPI processor grid
  reading atoms ...
  864 atoms
Finding 1-2 1-3 1-4 neighbors ...
  special bond factors lj:    0        0        0       
  special bond factors coul:  0        0        0       
     0 = max # of 1-2 neighbors
     0 = max # of 1-3 neighbors
     0 = max # of 1-4 neighbors
     1 = max # of special neighbors
  special bonds CPU = 0.001 seconds
  read_data CPU = 0.037 seconds
Neighbor list info ...
  update every 1 steps, delay 10 steps, check yes
  max neighbors/atom: 2000, page size: 100000
  master list distance cutoff = 6.22
  ghost atom cutoff = 6.22
  binsize = 3.11, bins = 5 5 23
  1 neighbor lists, perpetual/occasional/extra = 1 0 0
  (1) pair quip, perpetual
      attributes: full, newton on
      pair build: full/bin
      stencil: full/bin/3d
      bin: standard
Setting up Verlet run ...
  Unit style    : metal
  Current step  : 0
  Time step     : 0.001
Per MPI rank memory allocation (min/avg/max) = 8.899 | 8.909 | 8.915 Mbytes
Step Temp PotEng TotEng Press Volume c_msd[4] 
       0            0   -6172.5374   -6172.5374   -7082.6594    15503.698            0 
      10     119.0518   -6185.8373   -6172.5569    -9934.496    15503.698 0.0010071496 
      20    261.33204   -6201.7236   -6172.5716   -11295.094    15503.698  0.011565216 
      30    255.25791   -6201.0293   -6172.5549   -7123.0934    15503.698  0.034561857 
      40    264.42457   -6202.0531   -6172.5561   -5862.3924    15503.698  0.056650094 
      50    312.68329   -6207.4417   -6172.5614   -8677.8799    15503.698  0.070921244 
      60    325.67352   -6208.8908   -6172.5615   -10844.072    15503.698  0.082468217 
      70    295.31701      -6205.5    -6172.557   -10469.186    15503.698  0.097559999 
      80     271.8645   -6202.8841   -6172.5572   -9026.4225    15503.698   0.11664668 
      90    265.91321   -6202.2182   -6172.5552   -8317.7174    15503.698   0.13792772 
     100     287.1964   -6204.5961   -6172.5589   -8346.2512    15503.698   0.15949482 
     110    302.68865   -6206.3257   -6172.5603   -7330.7252    15503.698   0.18154576 
     120    297.65715   -6205.7608   -6172.5567   -6310.0558    15503.698   0.20233128 
     130     308.5729   -6206.9825   -6172.5607   -7014.1109    15503.698   0.21603749 
     140    308.49663   -6206.9739   -6172.5606   -8254.7053    15503.698   0.22639086 
     150    300.11731   -6206.0386   -6172.5601   -9257.3775    15503.698   0.23678646 
     160    287.85788   -6204.6691   -6172.5581   -9955.8958    15503.698   0.24792738 
     170    289.66466   -6204.8731   -6172.5606   -10583.255    15503.698   0.25945006 
     180    289.75654   -6204.8819   -6172.5591   -10712.363    15503.698    0.2718679 
     190    295.13609   -6205.4836   -6172.5607   -10488.456    15503.698   0.28444874 
     200    294.99607   -6205.4677   -6172.5604   -10129.942    15503.698   0.29609877 
     210    286.95916   -6204.5707     -6172.56   -9663.0674    15503.698   0.30649264 
     220    275.72988   -6203.3179   -6172.5599   -9177.9183    15503.698   0.31608118 
     230    270.50861   -6202.7358   -6172.5602   -8672.5656    15503.698   0.32607004 
     240     272.7294   -6202.9827   -6172.5593   -8853.0275    15503.698   0.33522232 
     250    279.60122   -6203.7491   -6172.5591   -10041.178    15503.698   0.34187187 
     260    292.08827   -6205.1435   -6172.5606   -11551.724    15503.698   0.34819423 
     270    296.23245   -6205.6053   -6172.5602   -12576.966    15503.698   0.35504368 
     280    290.59525   -6204.9758   -6172.5595   -13159.977    15503.698   0.36200476 
     290    286.39853   -6204.5075   -6172.5593   -12930.633    15503.698   0.36806237 
     300    285.16596    -6204.371   -6172.5603    -12383.94    15503.698   0.37260207 
     310     276.3618   -6203.3874   -6172.5589   -11854.298    15503.698   0.37624334 
     320    275.40717   -6203.2805   -6172.5584   -11896.916    15503.698   0.38034324 
     330    285.09748   -6204.3645   -6172.5614   -12353.811    15503.698   0.38651832 
     340      285.616    -6204.421   -6172.5601   -12511.793    15503.698   0.39499421 
     350    284.89791    -6204.341   -6172.5602   -12689.242    15503.698   0.40459174 
     360    282.95249   -6204.1225   -6172.5588   -13170.846    15503.698   0.41246598 
     370     288.0353   -6204.6912   -6172.5604   -13564.963    15503.698   0.41769002 
     380    287.28249    -6204.606   -6172.5592   -13378.283    15503.698   0.42278811 
     390    286.02871   -6204.4671   -6172.5602   -13125.251    15503.698   0.42882483 
     400    278.58412   -6203.6357   -6172.5592   -12733.019    15503.698   0.43546846 
     410    278.85156   -6203.6642   -6172.5579   -12725.177    15503.698   0.44118431 
     420    295.44173    -6205.519   -6172.5621   -12919.137    15503.698   0.44580202 
     430    288.38426     -6204.73   -6172.5603   -12292.067    15503.698   0.45184932 
     440     275.0948   -6203.2448   -6172.5576   -11576.148    15503.698    0.4597765 
     450    284.42439   -6204.2884   -6172.5604   -11635.475    15503.698   0.46872177 
     460    290.54397   -6204.9708   -6172.5602   -11458.018    15503.698   0.47890159 
     470    292.27935   -6205.1639   -6172.5597   -11047.279    15503.698   0.48981965 
     480    296.29192   -6205.6126   -6172.5608    -11053.89    15503.698   0.50144177 
     490    293.83397   -6205.3377   -6172.5601   -10910.875    15503.698   0.51477503 
     500    290.42176   -6204.9561   -6172.5592   -10882.616    15503.698   0.52864067 
     510    294.71216   -6205.4358   -6172.5602   -11048.423    15503.698   0.54096764 
     520    300.63857   -6206.0957    -6172.559   -11015.275    15503.698   0.55107936 
     530    313.42009   -6207.5237   -6172.5612   -10936.323    15503.698   0.55907812 
     540    312.92089   -6207.4677   -6172.5609   -10452.207    15503.698   0.56684223 
     550    300.99117   -6206.1344   -6172.5584   -9517.9446    15503.698   0.57402283 
     560    302.90044   -6206.3497   -6172.5607   -8993.9278    15503.698   0.57911723 
     570    299.50947   -6205.9709   -6172.5601   -8662.1184    15503.698   0.58313152 
     580    295.81191   -6205.5583     -6172.56   -8542.5542    15503.698   0.58726222 
     590    298.86152   -6205.8988   -6172.5604   -8965.8336    15503.698   0.59231809 
     600    300.33785   -6206.0635   -6172.5604   -9037.6184    15503.698   0.59853829 
     610    299.59534   -6205.9801   -6172.5598   -8371.2403    15503.698   0.60481665 
     620    303.65017   -6206.4328   -6172.5602   -7934.1068    15503.698   0.60844579 
     630     310.3803   -6207.1838   -6172.5604   -7992.0375    15503.698    0.6082619 
     640    314.29708   -6207.6215   -6172.5612   -8062.2161    15503.698   0.60580975 
     650    306.12162   -6206.7094   -6172.5611   -7405.6951    15503.698   0.60391606 
     660    291.75553   -6205.1049   -6172.5592   -6325.4283    15503.698    0.6045726 
     670    291.74021   -6205.1042   -6172.5602   -5867.2382    15503.698   0.60858321 
     680    296.82247   -6205.6718   -6172.5608   -6353.8899    15503.698   0.61618731 
     690    294.97725   -6205.4661   -6172.5609   -6662.3101    15503.698   0.62550238 
     700    286.97788    -6204.572   -6172.5592   -6616.0858    15503.698   0.63468815 
     710    286.63209   -6204.5347   -6172.5604   -6895.7828    15503.698   0.64319605 
     720    286.56031   -6204.5259   -6172.5596   -7285.3623    15503.698   0.65049549 
     730    293.20359   -6205.2674   -6172.5601   -7851.0094    15503.698   0.65568367 
     740    300.27034   -6206.0564   -6172.5608    -8274.995    15503.698   0.65946026 
     750    300.05685   -6206.0319   -6172.5601   -8184.0951    15503.698   0.66343273 
     760    299.10417   -6205.9256   -6172.5601   -8091.5591    15503.698   0.66885484 
     770    298.48137   -6205.8564   -6172.5604   -8384.8598    15503.698   0.67752626 
     780    296.34645   -6205.6175   -6172.5596   -8914.1283    15503.698   0.69090215 
     790     300.5212   -6206.0841   -6172.5605   -9695.9101    15503.698   0.70830553 
     800    302.31484   -6206.2847    -6172.561   -9986.7534    15503.698   0.72733815 
     810    294.97177   -6205.4649   -6172.5603   -9788.8775    15503.698   0.74437354 
     820     293.9212   -6205.3466   -6172.5592   -10145.009    15503.698   0.75557997 
     830    306.06744   -6206.7043    -6172.562   -11121.711    15503.698   0.76034898 
     840    304.44992   -6206.5222   -6172.5604   -11386.671    15503.698   0.76099165 
     850    301.98739    -6206.247   -6172.5598   -11215.463    15503.698   0.75927071 
     860    307.80247   -6206.8965   -6172.5607   -11228.553    15503.698   0.75750628 
     870    309.83215   -6207.1239   -6172.5617   -11151.874    15503.698   0.75886791 
     880    299.41573   -6205.9598   -6172.5595   -10730.834    15503.698   0.76520132 
     890    300.36042   -6206.0655   -6172.5598    -10683.96    15503.698   0.77522034 
     900    311.77593   -6207.3403   -6172.5613   -10758.155    15503.698   0.78644376 
     910    315.99675   -6207.8108   -6172.5609   -10638.959    15503.698   0.79743278 
     920    314.15059    -6207.605    -6172.561   -10767.654    15503.698   0.80852246 
     930    307.53752    -6206.867   -6172.5608    -10698.33    15503.698   0.82057803 
     940     303.9545   -6206.4657   -6172.5591   -10673.594    15503.698   0.83272237 
     950    315.55545   -6207.7625   -6172.5618   -10985.253    15503.698   0.84367931 
     960    314.10987   -6207.6014   -6172.5619   -10894.557    15503.698   0.85299466 
     970    301.16419   -6206.1543    -6172.559   -10416.525    15503.698   0.85903246 
     980     308.2504   -6206.9471   -6172.5613   -10639.037    15503.698   0.86167882 
     990    312.94011   -6207.4711   -6172.5622   -11165.921    15503.698    0.8636759 
    1000    301.96747   -6206.2445   -6172.5596   -11241.512    15503.698   0.86586818 
    1010    300.61614   -6206.0948   -6172.5606   -11044.825    15503.698   0.86653935 
    1020    302.77876   -6206.3368   -6172.5614   -10173.016    15503.698   0.86594544 
    1030    299.21901   -6205.9387   -6172.5604   -9568.0249    15503.698   0.86577348 
    1040    303.27626   -6206.3913   -6172.5604   -9668.3301    15503.698   0.86795209 
    1050    311.27436   -6207.2857   -6172.5626   -9746.7712    15503.698   0.87468285 
    1060    305.20995   -6206.6064   -6172.5598   -9153.5585    15503.698   0.88502989 
    1070    311.29573   -6207.2863   -6172.5608   -9189.6446    15503.698    0.8942313 
    1080    322.44853    -6208.532   -6172.5624   -9605.9463    15503.698   0.89934301 
    1090    319.52235   -6208.2053   -6172.5621   -9453.8625    15503.698   0.89981604 
    1100    306.22248   -6206.7208   -6172.5613   -8468.1547    15503.698   0.89715132 
    1110    296.30205    -6205.613   -6172.5601    -7650.171    15503.698   0.89433263 
    1120    300.99444   -6206.1381   -6172.5617   -7521.4311    15503.698   0.89425009 
    1130    303.00562   -6206.3625   -6172.5618   -7250.5408    15503.698   0.89988551 
    1140    301.43418   -6206.1853   -6172.5599    -7085.438    15503.698   0.91163073 
    1150    311.96544   -6207.3626   -6172.5623   -7736.7346    15503.698    0.9268416 
    1160     312.5856   -6207.4304    -6172.561   -7839.2347    15503.698   0.94242274 
    1170    312.06024   -6207.3717   -6172.5609   -7435.8113    15503.698   0.95568522 
    1180    313.23796   -6207.5041    -6172.562   -7597.0074    15503.698   0.96595677 
    1190    304.81245   -6206.5631   -6172.5608   -7511.6145    15503.698   0.97359152 
    1200     299.0979   -6205.9251   -6172.5603   -7251.8311    15503.698   0.97805041 
    1210    305.15455   -6206.6011   -6172.5607    -7450.478    15503.698   0.97875856 
    1220    315.76305   -6207.7851   -6172.5613   -7721.2495    15503.698   0.97613125 
    1230    323.52085   -6208.6506   -6172.5614   -8298.0615    15503.698   0.97208704 
    1240    323.92258   -6208.6961    -6172.562   -8905.0264    15503.698   0.96947127 
    1250    314.21066   -6207.6112   -6172.5605   -8803.1488    15503.698   0.96950769 
    1260    310.48588   -6207.1962   -6172.5611   -8633.2414    15503.698   0.97168554 
    1270    312.14219   -6207.3806   -6172.5607   -8954.9044    15503.698   0.97601337 
    1280    318.00741   -6208.0362    -6172.562   -9703.4995    15503.698   0.98273502 
    1290    313.40704   -6207.5223   -6172.5613   -9709.8303    15503.698   0.99069247 
    1300    308.27437   -6206.9483   -6172.5599   -9084.9158    15503.698   0.99712643 
    1310    318.66184   -6208.1092    -6172.562   -8966.3518    15503.698    1.0004123 
    1320    322.68718    -6208.559   -6172.5627     -9092.73    15503.698    1.0011762 
    1330    315.12259   -6207.7131   -6172.5607   -9357.7266    15503.698    1.0005657 
    1340    312.67589    -6207.441   -6172.5616   -9635.4368    15503.698    1.0005228 
    1350    310.17176   -6207.1606   -6172.5605   -9416.0855    15503.698    1.0028772 
    1360    314.49055   -6207.6425   -6172.5606   -9164.6541    15503.698    1.0079702 
    1370    323.50129    -6208.649   -6172.5619   -9193.9683    15503.698    1.0153714 
    1380    326.37912   -6208.9696   -6172.5616   -9039.2041    15503.698    1.0248913 
    1390    323.92279   -6208.6957   -6172.5616   -8869.5163    15503.698    1.0364229 
    1400    319.34103   -6208.1833   -6172.5603   -8983.1353    15503.698    1.0490487 
    1410    321.61238   -6208.4383   -6172.5619   -9724.0908    15503.698    1.0614227 
    1420    313.62116   -6207.5462   -6172.5613   -9953.0368    15503.698    1.0731437 
    1430    300.52334   -6206.0835   -6172.5597   -9720.0447    15503.698    1.0830064 
    1440    300.36192   -6206.0665   -6172.5607    -9614.744    15503.698      1.08962 
    1450    306.73861   -6206.7776   -6172.5605   -9656.3094    15503.698     1.093293 
    1460    316.85349   -6207.9069   -6172.5614   -10025.839    15503.698    1.0957017 
    1470    320.74713   -6208.3419   -6172.5621   -10258.291    15503.698    1.0988536 
    1480    312.81785   -6207.4563    -6172.561    -9699.673    15503.698    1.1032374 
    1490    307.07992    -6206.815   -6172.5597   -9345.4725    15503.698    1.1078283 
    1500    314.94947   -6207.6952   -6172.5621   -10109.293    15503.698      1.11197 
    1510    312.15384   -6207.3831   -6172.5618   -10499.296    15503.698    1.1158975 
    1520    300.86994   -6206.1223   -6172.5598   -10154.793    15503.698    1.1187148 
    1530    304.63017   -6206.5423   -6172.5604   -10286.491    15503.698     1.120074 
    1540     316.6053   -6207.8803   -6172.5625   -10577.908    15503.698    1.1224081 
    1550    314.19679   -6207.6105   -6172.5614   -10225.585    15503.698     1.127527 
    1560    307.50491   -6206.8633   -6172.5607   -9981.2278    15503.698    1.1335146 
    1570    307.92574   -6206.9114   -6172.5618   -9797.2276    15503.698    1.1386182 
    1580    304.47423   -6206.5253   -6172.5608   -9231.0918    15503.698    1.1428585 
    1590    304.75818    -6206.557   -6172.5608   -9046.6425    15503.698     1.146434 
    1600    309.29518   -6207.0641   -6172.5617   -9089.5807    15503.698    1.1506592 
    1610    312.11475   -6207.3779    -6172.561   -9064.6157    15503.698    1.1564872 
    1620    317.92765   -6208.0276   -6172.5623   -9093.4548    15503.698    1.1626775 
    1630    316.46787   -6207.8641   -6172.5616   -8992.9119    15503.698    1.1682704 
    1640    314.04151    -6207.593   -6172.5612   -8900.7429    15503.698    1.1726064 
    1650    318.50503   -6208.0919   -6172.5622    -8542.242    15503.698    1.1748846 
    1660    316.60134   -6207.8799   -6172.5626   -7886.4206    15503.698    1.1745515 
    1670    308.69714   -6206.9957   -6172.5601   -7568.5249    15503.698    1.1711308 
    1680    316.93876   -6207.9176   -6172.5626   -8340.0367    15503.698    1.1653881 
    1690    319.15454   -6208.1638   -6172.5616   -9190.5276    15503.698    1.1592781 
    1700    322.43619   -6208.5294   -6172.5612   -9889.3018    15503.698    1.1530101 
    1710    329.18953   -6209.2845   -6172.5629   -10150.234    15503.698    1.1474958 
    1720    325.77678   -6208.9015   -6172.5606   -9516.3401    15503.698    1.1452333 
    1730    331.29454   -6209.5188   -6172.5624   -9155.7339    15503.698    1.1475308 
    1740    330.35608   -6209.4144   -6172.5627   -8888.6931    15503.698    1.1546423 
    1750    317.78506   -6208.0107   -6172.5613   -7939.8954    15503.698    1.1652477 
    1760     313.1009   -6207.4877   -6172.5608   -7063.6644    15503.698    1.1772564 
    1770    321.67088   -6208.4454   -6172.5625   -7023.5784    15503.698    1.1893408 
    1780    324.29279   -6208.7378   -6172.5625   -7153.9414    15503.698    1.2002526 
    1790    317.86621     -6208.02   -6172.5616   -6704.4499    15503.698    1.2084419 
    1800    312.64233    -6207.437   -6172.5613   -6458.5525    15503.698    1.2133333 
    1810    313.63482   -6207.5476   -6172.5611   -6837.7233    15503.698    1.2153402 
    1820    320.76249   -6208.3436   -6172.5621   -7424.7523    15503.698    1.2163716 
    1830    323.69246   -6208.6704   -6172.5621   -7655.5418    15503.698    1.2199147 
    1840    320.70012   -6208.3358   -6172.5612   -7675.0009    15503.698    1.2273463 
    1850    320.85656   -6208.3534   -6172.5613    -7994.814    15503.698    1.2362593 
    1860    322.53929    -6208.542   -6172.5623   -8199.3485    15503.698    1.2440189 
    1870    318.16027   -6208.0522   -6172.5609   -7977.1631    15503.698    1.2495611 
    1880    318.87076   -6208.1326    -6172.562   -7862.9105    15503.698    1.2525522 
    1890    316.76722   -6207.8976   -6172.5617   -7681.9854    15503.698    1.2534537 
    1900    315.73302   -6207.7812   -6172.5607   -7756.5226    15503.698    1.2533187 
    1910     323.8924   -6208.6936   -6172.5629   -8279.2539    15503.698    1.2538785 
    1920     321.2693   -6208.4004   -6172.5623   -8195.6393    15503.698    1.2564932 
    1930    313.40197   -6207.5214   -6172.5609   -7832.1304    15503.698    1.2602449 
    1940    315.43195   -6207.7487   -6172.5618    -7837.936    15503.698    1.2639341 
    1950    316.02421    -6207.815    -6172.562   -7999.0172    15503.698    1.2669873 
    1960    312.57749   -6207.4298   -6172.5613   -8182.2094    15503.698    1.2689421 
    1970    312.49232   -6207.4211   -6172.5621   -7924.5303    15503.698    1.2699253 
    1980    311.31231   -6207.2889   -6172.5615   -7681.6797    15503.698    1.2706159 
    1990    315.97456   -6207.8084    -6172.561   -7981.4275    15503.698    1.2709612 
    2000    328.15449   -6209.1691    -6172.563   -8517.2812    15503.698    1.2709699 
Loop time of 1314.08 on 16 procs for 2000 steps with 864 atoms

Performance: 0.131 ns/day, 182.511 hours/ns, 1.522 timesteps/s
95.8% CPU use with 16 MPI tasks x 1 OpenMP threads

MPI task timing breakdown:
Section |  min time  |  avg time  |  max time  |%varavg| %total
---------------------------------------------------------------
Pair    | 707.6      | 1007.9     | 1313.2     | 492.3 | 76.70
Bond    | 0.0001328  | 0.00046127 | 0.001528   |   0.0 |  0.00
Neigh   | 0.025626   | 0.035457   | 0.048067   |   3.2 |  0.00
Comm    | 0.65979    | 279.55     | 606.3      | 926.6 | 21.27
Output  | 0.1312     | 17.664     | 46.124     | 398.9 |  1.34
Modify  | 0.007755   | 0.0092306  | 0.010542   |   0.7 |  0.00
Other   |            | 8.954      |            |       |  0.68

Nlocal:        54.0000 ave          72 max          38 min
Histogram: 1 1 4 1 3 2 0 2 0 2
Nghost:        591.625 ave         728 max         498 min
Histogram: 2 0 1 7 3 1 0 0 0 2
Neighs:         0.00000 ave           0 max           0 min
Histogram: 16 0 0 0 0 0 0 0 0 0
FullNghs:      3308.38 ave        5371 max        1872 min
Histogram: 1 5 3 1 0 0 2 2 0 2

Total # of neighbors = 52934
Ave neighs/atom = 61.266204
Ave special neighs/atom = 0.0000000
Neighbor list builds = 199
Dangerous builds = 198
Setting up Verlet run ...
  Unit style    : metal
  Current step  : 2000
  Time step     : 0.001
Per MPI rank memory allocation (min/avg/max) = 8.903 | 8.910 | 8.916 Mbytes
Step Temp PotEng TotEng Press Volume c_msd[4] 
    2000         1125   -6209.1691   -6083.6737    -2393.307    15503.698    1.2709699 
    2010    919.56291   -6186.1781   -6083.5995    6376.2945     15503.44    1.2891618 
    2020    694.23839   -6160.7152   -6083.2718    16289.969    15506.629    1.3175956 
    2030     726.0207   -6163.5291   -6082.5404    14303.754    15517.963     1.337067 
    2040    691.07529   -6158.4107   -6081.3202    14034.706    15537.147    1.3577118 
    2050    632.94731   -6150.7171   -6080.1109    15834.416    15564.042    1.3842419 
    2060    671.62715   -6153.9992   -6079.0782    14029.416    15599.379    1.4115137 
    2070    705.17963   -6156.7576   -6078.0937    10847.992     15642.33    1.4392973 
    2080    707.40342   -6155.9691   -6077.0572    7983.4449    15691.205    1.4687408 
    2090    728.35039   -6157.0777   -6075.8291    4988.2433    15744.316    1.4992287 
    2100    731.05621   -6155.8926   -6074.3421    2863.4407    15799.944    1.5304172 
    2110    721.76642   -6153.2087   -6072.6945      868.346    15856.661    1.5615812 
    2120    718.44967   -6151.0477   -6070.9036   -1393.8155    15913.144    1.5933455 
    2130    753.71132   -6153.0361   -6068.9584   -3912.3235     15967.93    1.6250527 
    2140    772.74088   -6153.0564    -6066.856   -5687.0313    16019.489    1.6572541 
    2150    768.24296   -6150.4097   -6064.7111   -6950.0747    16066.675    1.6910808 
    2160    756.34249   -6146.9301    -6062.559   -7473.3558     16108.75    1.7262895 
    2170     733.9985   -6142.3174   -6060.4387   -6697.9841    16145.458    1.7598018 
    2180    721.02577   -6138.7905    -6058.359   -4873.8761    16177.297    1.7866047 
    2190     724.6761   -6137.1257    -6056.287   -3121.5516     16205.35    1.8057526 
    2200    732.09448   -6135.8565   -6054.1903   -2463.8601    16230.663    1.8213333 
    2210     756.3942   -6136.4115   -6052.0346   -3130.8476    16253.668    1.8368853 
    2220     778.2929   -6136.6182   -6049.7985   -4624.8239     16274.04    1.8551241 
    2230    779.18631   -6134.4498   -6047.5304   -4828.4202    16291.115    1.8767655 
    2240     791.6283   -6133.5807   -6045.2734   -5439.8991    16304.773     1.900526 
    2250     815.6219    -6133.954   -6042.9702   -7411.3863    16314.705    1.9242957 
    2260    823.21116   -6132.4818   -6040.6514   -7816.3903    16320.051    1.9479043 
    2270     799.0435   -6127.5095    -6038.375   -5980.5903    16320.761    1.9716498 
    2280    784.80566   -6123.6996   -6036.1533   -4336.7756    16317.943    1.9915251 
    2290    813.22917   -6124.5939    -6033.877   -4553.5358    16312.588    2.0047781 
    2300    830.93693   -6124.2259   -6031.5336   -4919.9606    16304.758    2.0160454 
    2310    847.97775   -6123.7725   -6029.1793   -4693.2416    16294.361    2.0285694 
    2320    854.28253   -6122.0987   -6026.8022   -3359.3442    16281.642    2.0420188 
    2330    852.67545    -6119.546   -6024.4287   -1158.4002    16267.461    2.0528392 
    2340    870.39782   -6119.1167   -6022.0225    945.88148    16253.086    2.0608059 
    2350    889.06001   -6118.7606   -6019.5846    2465.4717    16239.739    2.0698799 
    2360     909.2033   -6118.5389   -6017.1159    2579.7468      16228.2    2.0839946 
    2370     916.1926   -6116.8578   -6014.6551    3324.5016    16218.593    2.1027108 
    2380    928.15465   -6115.7351    -6012.198    3894.6187    16211.193    2.1228457 
    2390    915.23266   -6111.8641   -6009.7685    4844.5145    16206.322     2.147671 
    2400    942.23183   -6112.4565   -6007.3491    3835.0128    16204.305    2.1792005 
    2410    983.51187   -6114.5773   -6004.8651    1854.6567    16204.522    2.2162036 
    2420    1009.3686   -6114.9907   -6002.3941    1113.9488    16205.867    2.2553574 
    2430        988.2   -6110.2384   -6000.0032    1715.6428    16207.912     2.298215 
    2440    987.46341    -6107.862    -5997.709    1297.4516    16210.839    2.3426086 
    2450      1002.74   -6107.2552    -5995.398    944.02891    16214.423    2.3888458 
    2460    971.30895   -6101.4799   -5993.1289    2861.7393    16218.591    2.4340858 
    2470    977.94266   -6099.9939   -5990.9029    3684.0239    16224.248    2.4709027 
    2480    1050.2592   -6105.7372   -5988.5792    3052.7854    16231.806    2.5014395 
    2490    1051.3955   -6103.5181   -5986.2333    4687.7107    16241.086    2.5361173 
    2500    1048.4242   -6100.9822   -5984.0289     6391.547    16252.854    2.5780416 
    2510    1055.7645   -6099.6678   -5981.8957    6221.3335    16267.946    2.6280138 
    2520    1064.5396   -6098.5659   -5979.8149    5262.3936    16286.253    2.6821486 
    2530    1074.4356   -6097.6327   -5977.7778    5240.1633    16307.249     2.734815 
    2540    1068.5107   -6094.9961   -5975.8021     5224.119      16330.8    2.7849608 
    2550    1081.1437   -6094.4902    -5973.887    4902.7521    16356.841    2.8319294 
    2560    1078.0638   -6092.2506   -5971.9909    4751.4348    16385.152    2.8744699 
    2570    1061.4091   -6088.5593   -5970.1575    4598.5007    16415.588    2.9107736 
    2580    1060.8553   -6086.6785   -5968.3385    4246.6773    16447.986    2.9431105 
    2590    1087.5189    -6087.817   -5966.5027    4021.6678    16482.115    2.9742711 
    2600    1140.5135   -6091.8667   -5964.6407    3489.8513    16517.759    3.0095988 
    2610    1127.4557   -6088.6502   -5962.8809    3787.8152    16554.626    3.0579652 
    2620    1087.2759   -6082.5659   -5961.2786    4001.3915    16592.806    3.1159852 
    2630    1087.0005   -6080.9859   -5959.7294     3194.902    16632.324    3.1726691 
    2640    1096.6857   -6080.4793   -5958.1423    2402.4936    16672.703     3.224629 
    2650    1090.1456   -6078.1501   -5956.5427    1715.2567    16713.406    3.2767983 
    2660     1071.835   -6074.4976   -5954.9328    654.29228    16753.953      3.32883 
    2670    1087.3613   -6074.5749   -5953.2781   -1007.0826     16793.65    3.3775272 
    2680     1100.763   -6074.3373   -5951.5456   -2685.0965    16831.514    3.4220792 
    2690    1130.9161   -6075.9535   -5949.7981   -3677.9102    16866.552    3.4657387 
    2700    1101.6418   -6071.0162   -5948.1264   -1924.7351    16898.375    3.5173199 
    2710    1094.2561   -6068.6242   -5946.5583   -1107.5794    16927.945    3.5758031 
    2720    1147.8065   -6073.0068   -5944.9672   -2565.5619     16955.78    3.6315633 
    2730    1163.1771   -6073.1543   -5943.4001   -3825.4952    16981.147    3.6867857 
    2740    1128.0115   -6067.8165   -5941.9851    -3798.862    17003.401    3.7496861 
    2750    1130.3282   -6066.7443   -5940.6545   -3730.7971    17022.586     3.819941 
    2760    1133.5026   -6065.8105   -5939.3666   -3319.8751    17038.852    3.8950447 
    2770    1143.1164   -6065.6562   -5938.1398   -2833.5642    17052.551    3.9735624 
    2780    1154.6638   -6065.7686   -5936.9641   -2651.5298    17064.043    4.0529332 
    2790    1173.4514   -6066.7861   -5935.8858   -3233.3363    17073.463    4.1331901 
    2800    1174.6668   -6065.9451   -5934.9093    -4101.159    17080.552    4.2158125 
    2810    1169.0492   -6064.4732    -5934.064   -4611.3457    17084.848    4.2968267 
    2820    1161.7651   -6062.9453   -5933.3487   -3968.7308     17086.13    4.3734286 
    2830    1122.5116   -6057.9256   -5932.7077    -2129.864     17084.92    4.4456635 
    2840    1128.6347   -6058.0037   -5932.1028   -1589.3536     17082.28    4.5104254 
    2850    1152.0701    -6060.012   -5931.4968   -1967.4958    17078.636    4.5669033 
    2860    1201.3838   -6064.9717   -5930.9555   -3564.1522    17073.718    4.6207393 
    2870    1194.3486   -6063.7922   -5930.5608    -3802.369    17066.693    4.6860795 
    2880    1171.8648   -6061.0638   -5930.3406   -2572.8927     17057.45    4.7653002 
    2890    1179.7314   -6061.8348    -5930.234   -1601.0444    17046.727    4.8447006 
    2900    1178.7357   -6061.7377   -5930.2479   -1019.1212    17035.166    4.9148519 
    2910    1158.6406   -6059.6214   -5930.3733   -130.57788    17023.212     4.975376 
    2920    1158.4528   -6059.8068   -5930.5796    -180.7976    17011.346     5.025066 
    2930    1167.0969   -6061.0669   -5930.8755   -313.99206    16999.568    5.0664611 
    2940    1153.3507   -6059.9154   -5931.2574    596.67242    16987.878    5.1065286 
    2950    1153.5602   -6060.3814      -5931.7     709.8347    16976.722    5.1409346 
    2960    1155.0354   -6061.0562   -5932.2102    573.80039    16966.197     5.171508 
    2970    1189.1819   -6065.4688   -5932.8138    164.58195    16956.201    5.2065055 
    2980    1198.2314   -6067.2377   -5933.5731     730.5724    16946.543    5.2522298 
    2990    1170.2255   -6065.0148   -5934.4744    1716.7336     16937.52    5.3075389 
    3000    1152.4338   -6064.0132   -5935.4574    1582.4905    16929.653    5.3653878 
    3010     1149.425   -6064.7023   -5936.4822    904.80641    16922.902    5.4174024 
    3020     1152.741   -6066.1485   -5937.5585   -582.14501    16916.765    5.4676382 
    3030    1153.2241   -6067.3289    -5938.685   -1805.7158     16910.37    5.5256542 
    3040    1165.1391   -6069.8349   -5939.8619   -3115.9638    16902.897    5.5899594 
    3050    1183.8428   -6073.1984   -5941.1389   -4068.8302    16893.552    5.6588393 
    3060    1160.1841   -6071.9264   -5942.5062   -2766.0278      16881.9    5.7307531 
    3070    1128.2944   -6069.7342   -5943.8713   -875.20577    16868.679    5.8029033 
    3080    1105.6168   -6068.4891   -5945.1558     178.2035    16855.028    5.8726766 
    3090    1105.6197   -6069.6854   -5946.3519    299.63069     16841.61    5.9385871 
    3100    1102.0385   -6070.3992   -5947.4652    102.85514    16828.521    5.9953529 
    3110    1091.6623   -6070.2731   -5948.4965    567.49735    16815.696    6.0325976 
    3120    1072.2371   -6069.0185   -5949.4088    959.35682    16803.373    6.0523783 
    3130    1081.5974   -6070.8511   -5950.1973    1210.9085    16791.806    6.0724067 
    3140     1083.186   -6071.7174   -5950.8864    1565.4148    16781.156    6.1032173 
    3150    1069.4933   -6070.7735   -5951.4699    1335.3856    16771.586    6.1424443 
    3160     1080.213   -6072.4398   -5951.9404     296.8534    16762.911    6.1803589 
    3170    1099.4742   -6074.9788   -5952.3308   -169.61885    16754.551    6.2139033 
    3180    1108.7109   -6076.3574   -5952.6791   -66.044678    16746.197    6.2464881 
    3190     1090.692   -6074.6514   -5952.9831    1069.2336    16737.946    6.2801376 
    3200    1077.1034   -6073.3574   -5953.2049    2086.5024    16730.451    6.3150037 
    3210     1089.863   -6074.9115   -5953.3356      1435.65    16724.235     6.348316 
    3220    1094.8504   -6075.5231   -5953.3909    620.17697    16718.977     6.375148 
    3230    1069.7275   -6072.6936   -5953.3639    950.06333    16714.223    6.3995315 
    3240     1071.453   -6072.7462    -5953.224    1537.0979    16710.119    6.4329047 
    3250    1092.7136   -6074.8665   -5952.9726     1925.571        16707    6.4790082 
    3260    1092.6635   -6074.5245   -5952.6362    3345.6519    16705.174    6.5383272 
    3270    1093.4173   -6074.2099   -5952.2375    4159.6995    16705.409    6.6074562 
    3280    1112.0051   -6075.8294   -5951.7836    3616.4124    16708.163    6.6744353 
    3290    1117.9353   -6076.0041   -5951.2968    2706.0606     16713.13     6.724965 
    3300    1105.0532   -6074.0585   -5950.7882    2501.9173    16719.806    6.7504688 
    3310    1090.8697   -6071.9308   -5950.2427     2300.276    16727.998     6.760417 
    3320    1096.8467   -6071.9906   -5949.6357    2170.7996    16737.581    6.7733836 
    3330    1114.8039   -6073.3201   -5948.9621    2277.7735    16748.494    6.8007283 
    3340    1113.9151   -6072.5102   -5948.2513    1701.7875    16760.729    6.8519804 
    3350    1125.4514   -6073.0645   -5947.5187      279.778    16773.916    6.9229474 
    3360    1133.6141   -6073.2273   -5946.7709   -393.97505    16787.264    6.9926978 
    3370     1115.423   -6070.4778   -5946.0507    200.73919    16800.356    7.0441913 
    3380    1113.5854   -6069.5639   -5945.3418    1391.4872    16813.562     7.077722 
    3390    1139.4811   -6071.7321   -5944.6213    1429.7479     16827.52    7.1059398 
    3400    1131.3638   -6070.1188   -5943.9135    1750.2519    16842.342    7.1483157 
    3410    1109.2264   -6066.9738   -5943.2379    2517.9176    16858.225    7.2076075 
    3420    1135.1443   -6069.1838   -5942.5567    1909.1399    16875.556    7.2761534 
    3430    1171.1222   -6072.5062   -5941.8658   -257.09327    16893.926    7.3519409 
    3440    1141.8611   -6068.6129   -5941.2366    -1070.715    16912.152    7.4320044 
    3450     1117.781   -6065.3592   -5940.6691   -1952.0887    16929.606    7.5025441 
    3460    1127.7271   -6065.8946    -5940.095   -2605.0136    16945.748    7.5471093 
    3470    1114.8039   -6063.8739   -5939.5158   -1832.4574    16960.237    7.5679969 
    3480    1109.7767   -6062.7269   -5938.9297   -1116.0201    16973.483    7.5791008 
    3490    1141.5136   -6065.6579   -5938.3204   -1245.3953    16985.889    7.5871936 
    3500    1144.3561    -6065.377   -5937.7224   -829.16969    16997.469    7.5941471 
    3510    1137.0708   -6064.0238   -5937.1818   -164.89121    17008.472    7.6083138 
    3520    1144.8557    -6064.386   -5936.6757   -211.14616    17019.309    7.6417315 
    3530    1179.9491   -6067.8371    -5936.212   -1354.3703    17029.898    7.6901104 
    3540    1189.1912   -6068.5046   -5935.8485    -1642.221    17039.641    7.7365528 
    3550    1191.8828   -6068.6009   -5935.6446   -1507.4887    17048.295    7.7719732 
    3560    1167.4333   -6065.8199    -5935.591   -673.68972     17055.99    7.7967379 
    3570    1137.7166   -6062.5493   -5935.6353    478.61422    17063.237    7.8189533 
    3580    1122.1919    -6060.904   -5935.7218    1773.5038    17070.781    7.8382492 
    3590     1141.566   -6063.1598   -5935.8164      1806.99    17079.375    7.8521516 
    3600    1151.8151   -6064.4292   -5935.9425    1054.3559    17089.084     7.874214 
    3610    1137.8521   -6063.0556   -5936.1265    491.05368    17099.484    7.9121827 
    3620    1119.8661   -6061.2567   -5936.3339    522.36065    17110.237    7.9721755 
    3630    1107.6156   -6060.0855   -5936.5293    314.42191    17121.303    8.0461754 
    3640    1112.3338   -6060.7845    -5936.702   -532.19248    17132.511    8.1131186 
    3650    1095.1241   -6058.9756   -5936.8129   -1203.8601    17143.384    8.1718768 
    3660    1148.6098   -6065.0115   -5936.8823   -2940.3063     17153.37    8.2157741 
    3670    1184.9136   -6069.1724   -5936.9935   -3977.5059    17161.452    8.2414286 
    3680    1187.4786   -6069.7182   -5937.2532   -3651.7681    17166.982    8.2581522 
    3690    1151.5449    -6066.097   -5937.6404   -2325.8761    17170.169    8.2787108 
    3700    1140.3833   -6065.3131   -5938.1016   -1681.2673    17171.773    8.3079756 
    3710    1133.1575    -6064.997   -5938.5916   -1652.6974    17172.255    8.3432994 
    3720    1144.8579   -6066.8311   -5939.1205   -2428.2176    17171.606    8.3753724 
    3730    1134.6285   -6066.2628   -5939.6933    -2703.919    17169.397    8.3967612 
    3740    1115.7884   -6064.7431   -5940.2752   -2498.6798    17165.449    8.4092474 
    3750    1101.1755   -6063.6655   -5940.8277   -2420.6337    17159.867    8.4177439 
    3760    1092.0054   -6063.1293   -5941.3144   -2884.6546    17152.668    8.4287724 
    3770    1106.6624   -6065.1958    -5941.746   -3675.6245    17143.578    8.4421533 
    3780    1122.6693   -6067.4005    -5942.165   -4460.3496    17132.071    8.4485212 
    3790    1115.3835   -6066.9928   -5942.5701   -4399.7257     17117.72    8.4520609 
    3800    1133.3116   -6069.4059   -5942.9833   -4521.6447    17100.498    8.4621636 
    3810    1137.7862   -6070.3319   -5943.4102    -3681.306     17080.44    8.4789243 
    3820     1146.714   -6071.7977     -5943.88   -2821.7486    17058.022    8.4984638 
    3830    1120.0432    -6069.306   -5944.3635   -1244.1076    17033.887    8.5180559 
    3840    1113.5144   -6069.0373   -5944.8231    -754.2948    17008.942    8.5449465 
    3850    1130.1616   -6071.3408   -5945.2696    -1148.256     16983.55    8.5890401 
    3860    1141.8043   -6073.1097   -5945.7397   -1013.6063    16957.545    8.6466097 
    3870    1132.2017   -6072.5232   -5946.2244    332.52197    16931.083    8.7099744 
    3880     1112.959    -6070.847   -5946.6948    1993.6424    16904.974    8.7698709 
    3890    1084.9378   -6068.1197   -5947.0933    3573.9574    16880.282    8.8132711 
    3900    1116.6647   -6071.9879   -5947.4222    3360.4328    16857.899    8.8343392 
    3910    1146.9827   -6075.7019   -5947.7542    2531.9323    16837.747    8.8436742 
    3920    1151.0735   -6076.5516   -5948.1476    2090.3976    16819.332    8.8554944 
    3930    1131.8746    -6074.854   -5948.5917    2385.6116    16802.391    8.8681622 
    3940    1122.4763   -6074.2694   -5949.0555      2238.73    16787.016    8.8766947 
    3950    1112.2253   -6073.5796   -5949.5092    2156.2745    16773.145    8.8892697 
    3960    1101.7094   -6072.8344    -5949.937    2046.5142      16760.7    8.9072931 
    3970    1110.5802   -6074.2085   -5950.3216    1918.6272    16749.625    8.9193501 
    3980    1147.8226   -6078.7456   -5950.7042    1322.8344    16739.767    8.9191043 
    3990    1134.2293   -6077.6386   -5951.1136    1899.6895    16730.865    8.9162681 
    4000    1120.5942   -6076.5409    -5951.537    3136.4447    16723.235    8.9239492 
    4010     1109.743   -6075.7452   -5951.9517    4111.3177    16717.593    8.9438731 
    4020     1080.583   -6072.8593   -5952.3187    3840.0113    16714.485    8.9733667 
    4030     1094.973   -6074.7634   -5952.6175      2287.15    16713.705    9.0032267 
    4040    1110.8707   -6076.7792   -5952.8599    1261.0323    16714.379    9.0266159 
    4050    1086.0431   -6074.2031   -5953.0534    1508.4314     16715.91    9.0444159 
    4060    1073.1768   -6072.8776   -5953.1631    1767.2443    16718.374    9.0524286 
    4070    1098.5695   -6075.7193   -5953.1722    990.22949    16721.869    9.0515561 
    4080    1134.9438   -6079.7363   -5953.1316   -519.72011     16725.93     9.053049 
    4090     1128.581   -6078.9766   -5953.0817   -1377.9674    16729.722    9.0658901 
    4100     1153.262    -6081.716   -5953.0679   -2576.6699    16732.614    9.0906119 
    4110    1138.2597   -6080.0684   -5953.0938   -2203.7513    16733.999    9.1231224 
    4120    1107.3996   -6076.6868   -5953.1547   -1507.2324    16734.018    9.1451798 
    4130     1093.609   -6075.1765   -5953.1828   -1521.2717    16733.078    9.1486055 
    4140    1106.6079    -6076.597   -5953.1532   -2352.2986    16731.142    9.1491305 
    4150    1110.0392   -6076.9107   -5953.0841    -1958.147    16727.819    9.1727488 
    4160    1095.9271   -6075.2255   -5952.9732    233.92132    16723.387    9.2228996 
    4170    1088.1935   -6074.1866    -5952.797    1786.1312    16719.075    9.2798191 
    4180    1097.2495    -6074.944   -5952.5442    1128.0848    16715.762    9.3252896 
    4190    1113.7278   -6076.4621   -5952.2241   -208.49973    16713.132    9.3564426 
    4200    1146.1149   -6079.7358   -5951.8849   -1458.0729    16710.376    9.3900782 
    4210    1149.8463    -6079.834   -5951.5669   -1521.3135    16706.788    9.4384583 
    4220    1156.4717     -6080.32   -5951.3138   -470.03767     16702.31     9.491983 
    4230    1122.2209   -6076.2897   -5951.1042     1925.969    16697.641     9.538083 
    4240    1108.8758   -6074.5895   -5950.8928    3037.7485    16694.089    9.5655418 
    4250    1131.2095   -6076.8484   -5950.6603    2376.3839    16692.327    9.5728914 
    4260    1134.5683    -6076.988   -5950.4252    1823.4043    16692.058    9.5745398 
    4270      1142.26   -6077.6443   -5950.2235     2043.211    16692.953    9.5882425 
    4280    1134.2183   -6076.5814   -5950.0576    3521.3094      16695.2    9.6174541 
    4290    1093.4565   -6071.8874   -5949.9107     4930.731    16699.649    9.6563138 
    4300    1092.8416   -6071.6243   -5949.7161    4393.5537    16707.081    9.6935997 
    4310    1111.3694   -6073.4292   -5949.4543    2794.5732    16717.224     9.727654 
    4320    1117.7781   -6073.8263   -5949.1364    1288.5771     16729.16    9.7608036 
    4330    1116.7289   -6073.3573   -5948.7845   -266.12578    16741.956    9.7908576 
    4340    1118.9628    -6073.227    -5948.405   -1438.9556    16754.646     9.815106 
    4350    1116.7572   -6072.5758   -5947.9999   -955.10904    16766.583    9.8379124 
    4360    1131.7447   -6073.8399    -5947.592    -525.1345    16777.957    9.8654447 
    4370    1107.7945   -6070.7523   -5947.1762     142.4519     16789.08    9.8929741 
    4380    1107.7473   -6070.3101   -5946.7393    411.95455    16800.314    9.9118363 
    4390    1149.5471   -6074.5075   -5946.2738   -13.022542    16811.816    9.9222017 
    4400    1159.9567   -6075.2327   -5945.8378   -82.984156    16823.384    9.9298291 
    4410    1133.6538   -6071.9249   -5945.4641    367.28789    16834.997    9.9304836 
    4420    1140.6582    -6072.374   -5945.1318   -314.26737    16846.822    9.9288957 
    4430    1140.1594    -6072.007   -5944.8205   -933.06784    16858.534    9.9352603 
    4440    1105.5118   -6067.8564   -5944.5349   -1301.3516    16869.717    9.9517941 
    4450    1079.6384   -6064.6545   -5944.2193   -953.46045    16880.166    9.9855129 
    4460      1078.92   -6064.1695   -5943.8144   -622.81806    16890.062    10.037503 
    4470    1109.8748    -6067.118   -5943.3098   -511.13267    16899.611    10.091166 
    4480    1129.5575   -6068.7574   -5942.7536   -544.21876    16908.881    10.137812 
    4490    1156.0162   -6071.1603    -5942.205   -998.59519    16917.827    10.183765 
    4500    1167.3506   -6071.9297     -5941.71   -973.66735    16926.222    10.239513 
    4510    1155.3334   -6070.1882    -5941.309    -699.6205    16934.039    10.307037 
    4520    1113.3518   -6065.1679   -5940.9718    279.77624    16941.487    10.376004 
    4530    1107.4945   -6064.1749   -5940.6323    269.55131    16949.086    10.431763 
    4540     1133.915    -6066.743   -5940.2531   -55.790396    16956.893    10.466419 
    4550    1128.5708   -6065.7773   -5939.8836    437.30596    16964.762    10.492622 
    4560     1126.749   -6065.2008   -5939.5102   -234.94299    16972.893    10.522016 
    4570    1190.0127   -6071.8997   -5939.1519   -1916.5804    16980.852    10.561355 
    4580    1176.7038   -6070.1515   -5938.8884    -1506.354    16987.755    10.619143 
    4590    1127.8987   -6064.5532   -5938.7344   -375.88394    16993.762    10.695809 
    4600    1135.1384   -6065.2619   -5938.6355   -963.18748    16999.433    10.783481 
    4610    1148.2416   -6066.6227   -5938.5346   -1932.0633    17004.514    10.872626 
    4620    1138.7466   -6065.4943   -5938.4654   -2142.5326    17008.399    10.946704 
    4630    1126.8821    -6064.137   -5938.4316   -831.02865    17011.012    10.989856 
    4640    1151.3083   -6066.8486   -5938.4184    187.27244    17013.085    11.000117 
    4650    1147.4324   -6066.4596   -5938.4618    1165.7227    17015.291    11.001998 
    4660     1120.311   -6063.5305   -5938.5582    1854.1588    17018.258    11.022918 
    4670    1111.5277   -6062.6446    -5938.652    1673.8927    17022.382    11.067787 
    4680      1078.36   -6058.9875   -5938.6948    1766.5023    17027.634    11.122649 
    4690    1091.2468   -6060.4038   -5938.6736    923.27163    17034.015    11.175965 
    4700    1108.7389   -6062.2608   -5938.5794   -257.78166    17041.005    11.225585 
    4710    1104.5897   -6061.6413   -5938.4227   -634.91755    17047.905     11.27621 
    4720    1140.8931   -6065.4964    -5938.228   -1507.5259    17054.376    11.328725 
    4730    1130.0576    -6064.077   -5938.0174    -1254.545    17059.973     11.38302 
    4740    1128.3821   -6063.6981   -5937.8253   -1160.7484    17064.762    11.424513 
    4750    1132.4986    -6063.974   -5937.6421   -1415.8237      17068.8    11.451683 
    4760    1127.7991   -6063.2733   -5937.4656   -894.83793    17071.994    11.477115 
    4770    1144.6764   -6065.0074   -5937.3171   -557.77717    17074.607    11.492301 
    4780    1149.3884   -6065.4178   -5937.2018   -831.53616    17076.839    11.496119 
    4790    1156.5953   -6066.1441   -5937.1242   -1782.0774    17078.491    11.503507 
    4800    1165.1109    -6067.081   -5937.1111   -1898.2228    17079.034     11.52501 
    4810     1162.597   -6066.8837   -5937.1942    -1144.923    17078.394    11.570726 
    4820    1166.4646   -6067.5028   -5937.3819   -925.55132    17076.988    11.636635 
    4830    1146.5938   -6065.5557   -5937.6514   -1292.7125    17074.937    11.714104 
    4840    1138.7166   -6065.0098   -5937.9843   -1535.4737    17072.046    11.783963 
    4850    1147.7405   -6066.4022     -5938.37    -1944.666    17068.131    11.832154 
    4860    1180.8997   -6070.5865   -5938.8553   -2780.3135    17062.904    11.868912 
    4870    1187.4017   -6071.9569   -5939.5005   -3283.6946     17055.88    11.907385 
    4880    1166.2332   -6070.3975   -5940.3024    -3742.383    17046.701    11.939404 
    4890    1159.8211   -6070.6015   -5941.2217   -4033.7753    17035.069    11.957606 
    4900    1143.8744    -6069.805   -5942.2041   -3307.6738    17020.851    11.973584 
    4910    1105.5452   -6066.4896   -5943.1644   -1595.2493    17004.518    11.999559 
    4920      1068.93   -6063.2276   -5943.9869   -156.19764     16987.11    12.030387 
    4930    1087.7938   -6065.9958   -5944.6508   -527.38725    16969.457    12.057436 
    4940    1088.6658   -6066.6408   -5945.1984   -189.53132    16951.488    12.083943 
    4950    1067.3926   -6064.6686   -5945.5993    1033.5971     16933.43    12.116594 
    4960    1092.3074   -6067.7206   -5945.8721    591.68256    16915.896    12.159703 
    4970    1091.7879   -6067.8411   -5946.0505     338.3872    16898.745    12.211305 
    4980    1096.9817   -6068.5307   -5946.1607    530.06754    16881.798    12.251184 
    4990    1095.8707   -6068.4418   -5946.1958    1537.0892    16865.212    12.278764 
    5000    1108.6969   -6069.8386   -5946.1618     2249.363    16849.563    12.300921 
Loop time of 2098.06 on 16 procs for 3000 steps with 864 atoms

Performance: 0.124 ns/day, 194.265 hours/ns, 1.430 timesteps/s
94.9% CPU use with 16 MPI tasks x 1 OpenMP threads

MPI task timing breakdown:
Section |  min time  |  avg time  |  max time  |%varavg| %total
---------------------------------------------------------------
Pair    | 1541.9     | 1827.4     | 2076.6     | 313.8 | 87.10
Bond    | 0.0002141  | 0.00069945 | 0.0024524  |   0.0 |  0.00
Neigh   | 0.042243   | 0.047003   | 0.057091   |   2.0 |  0.00
Comm    | 15.28      | 224.87     | 452.32     | 848.8 | 10.72
Output  | 0.19189    | 0.1953     | 0.24332    |   2.8 |  0.01
Modify  | 1.8754     | 45.52      | 103.57     | 583.1 |  2.17
Other   |            | 0.01323    |            |       |  0.00

Nlocal:        54.0000 ave          63 max          45 min
Histogram: 1 0 2 2 3 4 1 1 0 2
Nghost:        545.750 ave         598 max         519 min
Histogram: 4 2 3 2 1 2 0 0 1 1
Neighs:         0.00000 ave           0 max           0 min
Histogram: 16 0 0 0 0 0 0 0 0 0
FullNghs:      2809.00 ave        3749 max        2109 min
Histogram: 1 2 3 3 1 2 2 0 0 2

Total # of neighbors = 44944
Ave neighs/atom = 52.018519
Ave special neighs/atom = 0.0000000
Neighbor list builds = 300
Dangerous builds = 300
Setting up Verlet run ...
  Unit style    : metal
  Current step  : 5000
  Time step     : 0.001
Per MPI rank memory allocation (min/avg/max) = 8.909 | 8.912 | 8.918 Mbytes
Step Temp PotEng TotEng Press Volume c_msd[4] 
    5000    1108.6969   -6069.8386   -5946.1618     2249.363    16849.563    12.300921 
    5010    1122.3489   -6071.3537    -5946.154    2233.7183     16850.26    12.319767 
    5020    1123.2451   -6071.4334   -5946.1337     1911.684     16852.36    12.350229 
    5030    1137.1018   -6072.9627   -5946.1173    842.72553    16855.624    12.394272 
    5040     1133.312   -6072.5434   -5946.1207    696.73202    16859.497    12.447848 
    5050    1124.4136   -6071.5697   -5946.1397    674.35751    16863.828    12.510189 
    5060    1144.5778   -6073.8462   -5946.1668   -75.722936    16868.576    12.579648 
    5070    1172.8899   -6077.0859   -5946.2483   -1136.5326    16873.271    12.644545 
    5080    1130.5797    -6072.543   -5946.4251   -175.70718    16877.384    12.688815 
    5090    1084.0544    -6067.553   -5946.6251     1260.629    16881.445    12.707247 
    5100    1103.9606   -6069.9317   -5946.7833     979.0773    16886.212    12.713322 
    5110    1122.9069   -6072.1669   -5946.9049    300.49744    16891.595    12.718703 
    5120    1131.7914    -6073.282    -5947.029   -820.53695    16897.168    12.717644 
    5130    1149.2122   -6075.3956   -5947.1993   -1633.7457     16902.26    12.704362 
    5140    1126.4518   -6073.0977   -5947.4403   -768.36061    16906.439    12.688706 
    5150     1118.785   -6072.5484   -5947.7462   -31.173681    16910.138    12.681601 
    5160    1119.5995   -6072.9922   -5948.0992   -192.57193    16913.765    12.694723 
    5170    1085.4746   -6069.5853   -5948.4989    519.20017    16917.343    12.725916 
    5180    1040.2152   -6064.8977   -5948.8601    985.66831    16921.265     12.77079 
    5190     1050.882   -6066.3356   -5949.1082   -286.36712    16925.734    12.827188 
    5200    1091.1823   -6070.9696   -5949.2466   -1998.7254    16930.031    12.879025 
    5210    1083.3618   -6070.1564   -5949.3058   -2359.7416    16933.161    12.921593 
    5220    1066.5463    -6068.255   -5949.2801   -2413.1932    16934.802    12.963155 
    5230    1067.7028   -6068.2275   -5949.1236   -3076.1585    16934.868    13.013463 
    5240    1072.1604   -6068.4263   -5948.8252   -3403.1947    16932.972     13.07085 
    5250    1061.3822   -6066.7636   -5948.3649    -2517.238    16928.956    13.120259 
    5260    1084.0102   -6068.6631   -5947.7401   -2010.0193    16923.258    13.152394 
    5270    1082.8382   -6067.7287   -5946.9364   -1600.1639    16916.237    13.173505 
    5280    1096.9892   -6068.3857   -5946.0149   -1470.1157    16908.119    13.183719 
    5290     1121.845   -6070.1419   -5944.9984   -1923.7641    16898.975     13.18309 
    5300     1136.732    -6070.783   -5943.9789   -2078.0512    16888.564    13.184217 
    5310    1115.1575   -6067.4109   -5943.0134   -588.24061    16876.864    13.201296 
    5320    1124.3409   -6067.5283   -5942.1064   -130.92607    16864.661    13.231116 
    5330    1149.6729   -6069.5143   -5941.2666   -908.89372    16852.244    13.259219 
    5340     1160.873    -6070.047   -5940.5499   -1048.9308    16839.209    13.276029 
    5350    1150.1135   -6068.2568   -5939.9599    405.72369    16825.543    13.286599 
    5360    1159.5479   -6068.8374    -5939.488    1230.1556    16812.015    13.298654 
    5370     1144.133   -6066.7209   -5939.0912    1985.0089     16799.21    13.315686 
    5380     1137.952   -6065.7199   -5938.7796    2098.5741    16787.553    13.325185 
    5390    1149.5944   -6066.7567   -5938.5177    1462.1127     16777.13    13.305119 
    5400    1157.6116   -6067.4625   -5938.3292    1130.2027    16767.584    13.269087 
    5410    1124.4999    -6063.625   -5938.1854    2469.3329    16758.795    13.248322 
    5420    1121.0906   -6063.1184   -5938.0591    3442.6564    16751.487    13.256147 
    5430    1135.0707   -6064.5456   -5937.9268     2593.549    16746.196    13.274105 
    5440    1136.7195   -6064.6256   -5937.8229    2290.7464    16742.557    13.273961 
    5450    1127.8645   -6063.5561   -5937.7411    2380.9736    16740.356    13.254454 
    5460    1164.2641   -6067.5682   -5937.6928    1755.9084    16739.597    13.237917 
    5470    1187.0718   -6070.1514   -5937.7318    1869.1356    16739.978    13.246622 
    5480    1157.0532   -6066.9645   -5937.8934    3394.2345     16741.62    13.289525 
    5490    1156.2894    -6067.149   -5938.1632    3795.5396    16745.342    13.352556 
    5500    1152.8688   -6067.1283   -5938.5241    3739.2888    16751.471    13.423468 
    5510    1121.3251    -6064.053   -5938.9675    3903.0479    16760.019    13.495147 
    5520    1124.8474   -6064.9268   -5939.4484    3636.4145    16771.085    13.554997 
    5530    1148.8127     -6068.12   -5939.9683    2292.9112     16784.48    13.605083 
    5540    1158.9663   -6069.8557   -5940.5713    989.10058    16799.443    13.658664 
    5550    1117.7149   -6065.9356   -5941.2528    803.07851    16815.231    13.734492 
    5560    1075.8265   -6061.9266   -5941.9166    576.22351    16831.676     13.81792 
    5570    1110.9762   -6066.4781   -5942.5471   -1748.4422     16848.49    13.888624 
    5580    1104.5982   -6066.3603   -5943.1407   -2915.2693     16864.43    13.953515 
    5590    1107.6075   -6067.2851   -5943.7298   -2855.3107    16878.711    14.015417 
    5600    1106.5052   -6067.7352   -5944.3029    -2449.038    16891.308    14.072871 
    5610    1118.2759   -6069.6194   -5944.8741   -2008.6564    16902.451    14.118009 
    5620    1118.1724   -6070.2063   -5945.4724   -1246.9881    16912.425    14.151137 
    5630    1089.9044   -6067.6449   -5946.0645   -651.20573    16921.699    14.175548 
    5640    1094.0742   -6068.6531   -5946.6075   -1797.5418    16930.543     14.18132 
    5650    1120.0852   -6072.0567   -5947.1095   -3046.4612    16938.308    14.167269 
    5660    1142.5634   -6075.0971   -5947.6424   -3529.9054    16944.235    14.159595 
    5670    1109.4647   -6071.9855    -5948.223   -3765.6301    16947.976    14.180302 
    5680    1068.6889   -6067.9916   -5948.7777   -4246.0559    16949.327    14.224666 
    5690    1083.5666   -6070.1396   -5949.2662   -5619.0714    16947.897    14.279082 
    5700     1092.869   -6071.6145   -5949.7033   -6513.1937    16942.865    14.334067 
    5710     1074.435   -6069.9611   -5950.1062   -5646.0783    16933.681    14.385266 
    5720     1085.371   -6071.5248     -5950.45    -4593.987    16920.771    14.429285 
    5730    1117.8459   -6075.4574     -5950.76   -4256.8088    16904.745    14.461753 
    5740    1122.8559    -6076.343   -5951.0867   -3744.0943    16885.851    14.477314 
    5750    1107.7562   -6075.0338   -5951.4619   -2728.6861    16864.404    14.480602 
    5760    1072.3022   -6071.4499    -5951.833   -861.27213    16841.079    14.488086 
    5770    1056.4904   -6069.9965   -5952.1434    945.78178    16817.016    14.511368 
    5780    1061.9915   -6070.8263   -5952.3596    1844.8201    16793.291    14.551549 
    5790    1066.6887   -6071.4725   -5952.4818     2529.917    16770.535    14.595949 
    5800    1074.3511   -6072.3526   -5952.5071    3008.8171    16749.182     14.64064 
    5810    1081.2413    -6073.051    -5952.437     3282.425    16729.534    14.679082 
    5820    1085.7231   -6073.3623   -5952.2483    3425.2423    16711.787     14.69928 
    5830    1110.5298   -6075.8435   -5951.9623    3220.0301    16696.013    14.706123 
    5840    1102.0501    -6074.519   -5951.5837    3983.9889    16682.179    14.705034 
    5850    1107.4557   -6074.6489   -5951.1105    4591.9986    16670.709    14.686983 
    5860    1125.4508   -6076.0964   -5950.5507    3876.0948    16661.923    14.657054 
    5870    1134.4717   -6076.4965   -5949.9445    2579.7023    16655.457    14.618486 
    5880    1133.2779   -6075.7351   -5949.3163    1810.5337    16650.572    14.577298 
    5890    1142.1616   -6076.0964   -5948.6866    2321.6794    16646.857    14.556652 
    5900     1157.646    -6077.214   -5948.0769    2794.9249    16644.555    14.568424 
    5910     1146.364   -6075.4006    -5947.522     3824.056    16644.014    14.598216 
    5920    1124.3302   -6072.4205   -5946.9998    4469.3157    16645.829    14.640013 
    5930    1105.3208   -6069.7933   -5946.4931    4220.3264     16650.39    14.683104 
    5940    1092.4334   -6067.8134   -5945.9508    3957.8522    16657.625    14.715453 
    5950    1083.2355   -6066.1606    -5945.324    4300.8736    16667.425     14.74325 
    5960    1109.5344   -6068.4052    -5944.635    3414.9109    16679.912    14.772956 
    5970    1131.1817   -6070.0676   -5943.8826    2336.3025    16694.659    14.806452 
    5980    1146.3521     -6071.02   -5943.1427    1534.6886    16711.004    14.834855 
    5990    1166.6677   -6072.6086   -5942.4651    1057.8735    16728.468    14.858192 
    6000    1166.8676   -6072.0625   -5941.8967    1267.3166    16746.785    14.882816 
    6010    1141.4241     -6068.78   -5941.4524    2023.5649    16766.086     14.90759 
    6020    1136.4987   -6067.8627   -5941.0846     2067.369    16786.772    14.933191 
    6030    1154.2353   -6069.5099   -5940.7532    543.09902    16808.825     14.94431 
    6040    1159.7574   -6069.8387    -5940.466   -621.02319    16831.404    14.936157 
    6050    1127.0962   -6065.9754   -5940.2461    49.984137    16853.869     14.93432 
    6060    1114.7733   -6064.4065   -5940.0519    783.36723    16876.517    14.948887 
    6070    1115.4356   -6064.2672   -5939.8387    610.45202    16899.763    14.968781 
    6080     1138.496   -6066.6009      -5939.6   -845.25052    16923.456    15.000297 
    6090    1121.2597   -6064.4294   -5939.3512   -1623.8197    16946.817    15.051966 
    6100    1136.1481   -6065.8342   -5939.0952   -3125.3065    16969.212    15.109614 
    6110    1150.0267   -6067.1233   -5938.8361   -3924.2723    16989.744    15.157074 
    6120    1116.9111   -6063.2028   -5938.6096   -2880.2619     17007.96    15.189675 
    6130    1101.8921   -6061.2974   -5938.3797   -2046.5066    17024.381     15.20365 
    6140    1146.4116   -6066.0005   -5938.1166   -2375.5867     17039.47    15.203796 
    6150    1129.1646   -6063.8078   -5937.8478   -1945.7456    17053.149    15.202047 
    6160    1110.3975   -6061.4524   -5937.5859   -1822.4747    17065.612    15.206698 
    6170    1138.7513   -6064.3096   -5937.2802   -2965.3056    17076.876    15.211761 
    6180    1147.9884   -6065.0104   -5936.9506   -3888.1427    17086.279    15.216076 
    6190    1154.0479   -6065.3846   -5936.6488   -4085.2065    17093.231    15.221649 
    6200    1147.2278   -6064.3609   -5936.3859   -3738.7912    17097.575    15.237551 
    6210    1114.2747   -6060.4368   -5936.1378   -2876.8492    17099.551    15.274805 
    6220    1109.0442   -6059.5632   -5935.8477   -2378.0386    17099.635    15.325906 
    6230    1123.7808   -6060.8442   -5935.4848    -2005.853    17098.157    15.372133 
    6240    1135.4444   -6061.7112   -5935.0507   -978.06987    17095.411    15.410389 
    6250    1129.4699   -6060.5519   -5934.5578    740.10973    17092.049    15.444554 
    6260    1103.7112   -6057.1161   -5933.9954    1874.4187    17089.126    15.486758 
    6270    1101.5571   -6056.1996   -5933.3193    1565.6656    17087.356    15.545902 
    6280    1119.2222   -6057.3442   -5932.4932    133.66851    17086.538    15.610918 
    6290    1148.9973   -6059.7344    -5931.562   -1155.4408    17085.807    15.660485 
    6300    1148.1892   -6058.6811   -5930.5988   -765.02034    17084.437    15.682944 
    6310    1159.1164   -6058.9592    -5929.658   -7.8443075    17082.585    15.682515 
    6320    1195.4615   -6062.1327   -5928.7772    338.49954     17080.68     15.68333 
    6330    1184.9652   -6060.2168   -5928.0321    2035.0783    17079.087    15.710396 
    6340    1188.0098     -6059.98   -5927.4557    3452.9837    17078.801    15.769998 
    6350    1193.0466   -6060.1221    -5927.036    4218.5709    17080.742     15.84798 
    6360    1194.5533   -6060.0464   -5926.7921    4575.4563    17085.428    15.922816 
    6370    1160.7972   -6056.1866    -5926.698    4487.4268    17093.158    15.982515 
    6380    1190.5858   -6059.5384   -5926.7268    2260.9298     17103.75     16.02927 
    6390      1207.31   -6061.5613   -5926.8841    890.43153    17115.994    16.077146 
    6400    1175.1128   -6058.3081   -5927.2225    898.11315     17129.03    16.134343 
    6410    1138.6847   -6054.7203   -5927.6983    1528.9161     17142.82    16.197015 
    6420    1101.5787   -6051.0774   -5928.1947    2263.9948    17157.806    16.243792 
    6430    1128.3426   -6054.5578   -5928.6895    1219.9908    17174.339    16.263539 
    6440    1133.4893   -6055.6261   -5929.1836    215.02155    17191.886    16.267128 
    6450    1160.2713    -6059.167    -5929.737   -590.91429    17209.782    16.261943 
    6460    1169.8577   -6060.8912   -5930.3918    -919.7053    17227.524    16.255392 
    6470    1172.9469   -6062.0197   -5931.1757    -1187.279    17244.878    16.270645 
    6480    1168.4446     -6062.45   -5932.1083   -1549.2354    17261.636      16.3284 
    6490    1101.2446   -6055.9332   -5933.0877   -1140.7074    17277.613    16.404474 
    6500    1096.7215   -6056.3266   -5933.9856   -1759.3691    17292.959    16.469569 
    6510    1127.7891   -6060.6064   -5934.7998   -2716.7385    17307.297    16.519731 
    6520    1132.3954   -6061.8637   -5935.5433   -3537.7989    17319.986    16.552974 
    6530    1140.2198    -6063.427   -5936.2338   -4894.8772    17330.417    16.570089 
    6540    1135.3785   -6063.5214   -5936.8682   -5523.7376    17337.726    16.582535 
    6550    1143.4572   -6064.9925   -5937.4381   -5517.2046    17341.441    16.608582 
    6560    1164.5933   -6067.8974   -5937.9853   -5780.9046    17341.446    16.660405 
    6570    1120.7299   -6063.5094   -5938.4903   -4788.6523    17337.635    16.724427 
    6580    1106.4853   -6062.3417   -5938.9116   -4447.4758    17330.485    16.767082 
    6590    1100.5652   -6061.9914   -5939.2217   -4093.8416    17320.251    16.775808 
    6600    1103.0764   -6062.4794   -5939.4296   -4067.8959     17307.11    16.765763 
    6610    1151.8163   -6068.0887   -5939.6019   -4963.4298    17290.987    16.754798 
    6620    1142.9126   -6067.2913   -5939.7977   -4270.7521    17271.428    16.753647 
    6630    1121.3666   -6065.0963   -5940.0062   -2842.7746    17248.782    16.759684 
    6640    1132.0611   -6066.4712   -5940.1881    -1897.502    17223.908    16.759466 
    6650    1130.7606   -6066.5001    -5940.362   -1213.3262    17197.448    16.747811 
    6660    1122.0204   -6065.6972   -5940.5341    -984.6447    17169.844    16.727119 
    6670    1116.2333   -6065.1955    -5940.678   -1240.5501    17141.263    16.701029 
    6680    1146.9723   -6068.7716   -5940.8251   -1725.6195    17111.542    16.661745 
    6690    1139.0087   -6068.0487   -5940.9906    -965.6539    17080.494    16.614432 
    6700    1137.4401    -6068.067   -5941.1839   -439.97082    17048.527    16.573185 
    6710    1134.9105   -6067.9842   -5941.3832   -696.82737    17015.983    16.548812 
    6720    1134.4817   -6068.1637   -5941.6105   -1402.8352     16982.75    16.546905 
    6730      1146.93    -6069.827   -5941.8852   -1722.5847    16948.452    16.562098 
    6740    1132.8155   -6068.5646   -5942.1973   -190.54803    16913.019    16.586097 
    6750    1120.8574    -6067.524   -5942.4907    1467.4663    16877.386    16.613196 
    6760    1166.1736   -6072.8943   -5942.8059    1495.8246    16842.536    16.635572 
    6770    1165.1422   -6073.1904    -5943.217    1686.0574    16808.638    16.643564 
    6780    1114.7855   -6068.0284   -5943.6724    3609.3174    16775.963    16.636263 
    6790     1102.894   -6067.1127   -5944.0832    5023.6578    16745.607    16.618035 
    6800    1131.1142   -6070.6421   -5944.4646    4610.0207    16718.388    16.597104 
    6810    1144.0099   -6072.5093   -5944.8933    4266.8513    16694.159    16.584531 
    6820    1128.6685   -6071.2885   -5945.3839    4906.6778    16672.759    16.584059 
    6830    1131.1641   -6072.0939   -5945.9108    5169.9884    16654.487    16.598568 
    6840    1139.6855   -6073.6172   -5946.4836    5003.6063     16639.48    16.630285 
    6850    1138.9511   -6074.1607    -5947.109    4722.0472    16627.637    16.667699 
    6860    1144.3861   -6075.4593   -5947.8013    3714.9239     16618.72    16.713321 
    6870    1133.4303   -6074.9781   -5948.5422    3073.5862    16612.168    16.758552 
    6880    1141.0327   -6076.5903   -5949.3064    2463.3738    16607.539    16.782153 
    6890    1143.1607   -6077.6271   -5950.1058    2891.2136    16604.511    16.787155 
    6900    1132.1677   -6077.1892   -5950.8942    4178.9824    16603.344    16.794674 
    6910    1133.2971   -6078.0886   -5951.6676     4800.139     16604.71    16.809664 
    6920      1110.49   -6076.2573   -5952.3804    5435.5111    16609.033    16.825302 
    6930    1107.0415   -6076.4964   -5953.0043    5700.1287    16616.657    16.846666 
    6940    1115.5003   -6077.9582   -5953.5224    5001.0051    16627.678    16.877804 
    6950    1115.5153    -6078.383   -5953.9455    3821.2244    16641.691    16.917729 
    6960    1133.8409   -6080.7831   -5954.3014    2128.2586    16657.939    16.971371 
    6970    1131.2324   -6080.7942   -5954.6035    1435.4184    16675.474    17.031866 
    6980    1100.5402   -6077.6295   -5954.8626    1411.4451    16693.804    17.079268 
    6990    1099.8576   -6077.7294   -5955.0386    431.29437    16712.831    17.118723 
    7000    1131.2728   -6081.3348   -5955.1396   -1478.9448     16731.92    17.158816 
    7010     1110.864   -6079.1248   -5955.2062     -1504.94    16750.049    17.200993 
    7020    1080.1392   -6075.7301    -5955.239   -1306.4232    16767.091    17.238826 
    7030    1062.5028   -6073.6951   -5955.1713   -1318.8734    16783.165    17.271598 
    7040     1081.919   -6075.6951   -5955.0055   -1513.1288    16798.259    17.315489 
    7050    1064.0639   -6073.4438   -5954.7458   -947.79237    16812.328    17.379863 
    7060    1063.8743   -6073.0877   -5954.4109   -1292.5967    16825.607    17.452055 
    7070    1082.5672   -6074.7469   -5953.9849   -2573.1805    16837.885    17.524112 
    7080    1075.6729    -6073.481   -5953.4881   -3148.4903     16848.47    17.605051 
    7090     1082.629   -6073.7067   -5952.9378    -3446.207    16856.967    17.690175 
    7100    1081.0775   -6072.9392   -5952.3434   -2961.8895    16863.239    17.775132 
    7110    1066.6046   -6070.6993   -5951.7179   -1534.4716    16867.647     17.85946 
    7120     1069.412   -6070.3473   -5951.0527   -823.86831    16871.008    17.930017 
    7130    1087.2336   -6071.6184   -5950.3358   -322.69924     16873.82    17.991391 
    7140    1132.8739   -6075.9899   -5949.6161   -543.17523    16876.348    18.050601 
    7150    1124.5608   -6074.3987   -5948.9523   -123.56727    16878.552    18.102176 
    7160    1106.3063   -6071.7849   -5948.3748     1036.314    16880.715    18.142897 
    7170    1128.2702   -6073.7029   -5947.8427    753.69602    16883.418    18.179645 
    7180    1120.1329   -6072.3056   -5947.3531    64.492984     16886.56    18.218067 
    7190    1108.0757   -6070.5256   -5946.9181   -736.21929    16889.698    18.258089 
    7200    1091.5117   -6068.2501   -5946.4904   -785.12059     16892.39     18.30169 
    7210    1086.2022   -6067.2078   -5946.0403   -1054.8181     16894.55    18.341864 
    7220    1109.7632   -6069.3543   -5945.5585   -2227.4546    16895.964     18.37911 
    7230    1106.0308   -6068.4546   -5945.0752   -1861.1992    16896.042    18.418366 
    7240     1093.229   -6066.5417   -5944.5904   -430.54835    16895.006    18.455105 
    7250     1111.665   -6068.0963   -5944.0884    -54.16653    16893.641    18.488321 
    7260    1120.4785   -6068.5724   -5943.5813   -37.391664    16892.256    18.516957 
    7270    1125.7903   -6068.6838   -5943.1002   -360.64948    16890.855    18.529355 
    7280    1142.7771   -6070.1325    -5942.654   -984.77486    16889.227     18.52781 
    7290    1146.9085   -6070.2115   -5942.2721   -502.16127    16887.068    18.521917 
    7300    1115.4413   -6066.3733   -5941.9441    1039.0705    16884.678     18.52519 
    7310    1112.2716   -6065.7023   -5941.6267    2166.7199    16882.955    18.551932 
    7320     1146.368   -6069.1869   -5941.3079    2085.2581    16882.545    18.606603 
    7330    1148.2272   -6069.1178   -5941.0313    2464.7524    16883.507      18.6864 
    7340    1133.7233   -6067.2922   -5940.8237    2696.4399    16886.029    18.779406 
    7350    1145.4111   -6068.4397   -5940.6673    2192.9544    16890.187    18.863685 
    7360    1133.4772   -6066.9825   -5940.5414    1328.7881    16895.667    18.924256 
    7370    1127.4017   -6066.2023   -5940.4389    891.44038    16901.966    18.956204 
    7380    1147.1777   -6068.3247   -5940.3553    518.80945    16908.756    18.963778 
    7390    1166.0617   -6070.4025   -5940.3266    453.36606    16915.817    18.964471 
    7400    1142.1822   -6067.7913   -5940.3791    1592.9997     16923.17    18.993556 
    7410    1148.2122   -6068.5765   -5940.4917    1738.2025    16931.394    19.053384 
    7420     1184.197   -6072.7628   -5940.6639    576.23091    16940.557    19.109424 
    7430    1188.4446   -6073.5361   -5940.9633   -60.814022    16950.017    19.135317 
    7440    1172.7799   -6072.2708   -5941.4455   -126.31544    16959.333     19.14226 
    7450    1121.0388   -6067.0938   -5942.0402    887.32197    16968.513    19.149445 
    7460    1116.6013   -6067.2444   -5942.6859    588.30365    16978.059    19.170143 
    7470    1139.6914   -6070.4982   -5943.3639   -1255.6529    16987.762    19.212541 
    7480    1139.6298   -6071.2646   -5944.1372    -2281.152    16996.568    19.274429 
    7490    1120.8397   -6070.0333    -5945.002   -1699.0904    17003.866    19.341339 
    7500    1093.3252   -6067.8554   -5945.8933    231.20451    17010.053    19.398598 
    7510    1101.3813   -6069.6357    -5946.775    732.07204    17016.204    19.446725 
    7520    1103.0294   -6070.6808   -5947.6362    27.249321     17022.66     19.50246 
    7530    1086.9519   -6069.7021    -5948.451   -1179.3821    17028.995    19.575019 
    7540    1095.1542   -6071.3561     -5949.19   -3256.4977    17034.388    19.654603 
    7550    1098.4202   -6072.3877   -5949.8573    -4377.853    17037.657    19.728008 
    7560     1082.144    -6071.155   -5950.4402   -4690.1009    17038.108    19.789807 
    7570    1059.5199   -6069.0838   -5950.8928   -4085.3374    17035.609    19.841753 
    7580    1107.6571   -6074.8031   -5951.2423   -4203.6111    17030.497    19.881518 
    7590    1106.5533   -6074.9779   -5951.5403   -2898.3195    17022.898    19.917417 
    7600    1044.8111   -6068.2892   -5951.7389   -732.08172    17013.669    19.963527 
    7610     1071.722   -6071.3571   -5951.8049   -869.38489    17004.023      20.0237 
    7620    1067.9614   -6070.8508   -5951.7181   -938.93384    16994.046    20.089733 
    7630     1076.015   -6071.5708   -5951.5397   -1072.2379    16983.675    20.153387 
    7640    1086.8695   -6072.5108   -5951.2689   -1134.6532    16972.863    20.207364 
    7650    1087.9579   -6072.2972   -5950.9339   -1051.4835    16961.571    20.243003 
    7660    1075.2495   -6070.4848   -5950.5391   -1052.8863    16949.854    20.255412 
    7670    1088.1115   -6071.4744   -5950.0939   -1523.9982     16937.71    20.246265 
    7680    1109.0265   -6073.3279   -5949.6144    -1350.222     16924.92    20.230179 
    7690    1134.3749   -6075.6951   -5949.1539   -750.35468    16911.588    20.222196 
    7700    1153.6791   -6077.4712   -5948.7766    379.68261    16898.116    20.226526 
    7710    1119.7528   -6073.4143   -5948.5042    1433.4926    16885.181    20.234724 
    7720    1114.2044   -6072.5858   -5948.2947    1187.4502    16873.364     20.25036 
    7730    1138.5705    -6075.134   -5948.1248    825.42945    16862.548    20.295774 
    7740     1115.354   -6072.4098   -5947.9904    1311.2487    16852.541    20.363297 
    7750    1125.5673   -6073.4334   -5947.8747    957.30238    16843.534    20.428084 
    7760    1160.7789   -6077.2869   -5947.8003   -92.065511    16835.272    20.483957 
    7770    1147.8165   -6075.8379   -5947.7972    519.82162    16827.237    20.542619 
    7780    1129.0606   -6073.7954    -5947.847    2270.6351    16819.758    20.611118 
    7790    1103.6508   -6070.9965   -5947.8826    4689.9364    16813.918    20.690073 
    7800    1099.6029   -6070.5397   -5947.8773    5257.2761    16811.023    20.764342 
    7810    1122.4555   -6073.0465   -5947.8349     4524.648    16811.401    20.824976 
    7820    1135.1298    -6074.418   -5947.7926    3517.7789    16814.595    20.870703 
    7830    1114.6934   -6072.1095   -5947.7638    3091.4343    16819.958    20.905798 
    7840    1091.4628   -6069.4741   -5947.7198    3644.7894    16827.209    20.935973 
    7850    1104.6627     -6070.85   -5947.6232    3404.6207    16836.564    20.967864 
    7860    1142.9211   -6074.9813   -5947.4867    2309.3582     16847.84    21.015136 
    7870    1150.4027   -6075.6872   -5947.3581    1410.9327    16860.375    21.090852 
    7880    1146.5196   -6075.1853   -5947.2893    1427.5944    16873.622    21.187627 
    7890    1139.3387   -6074.3641   -5947.2691    1393.7867    16887.514    21.271616 
    7900    1148.2095   -6075.3673   -5947.2828    263.28163    16901.978    21.317867 
    7910    1181.7765   -6079.1824   -5947.3535   -1080.3843    16916.329    21.332996 
    7920    1178.0741   -6078.9607   -5947.5448   -1309.6342    16929.796    21.352937 
    7930    1130.5234    -6073.965   -5947.8534   -816.29062    16942.242    21.400834 
    7940    1108.6496   -6071.8644   -5948.1929   -1226.5012    16953.902    21.465188 
    7950    1121.9402   -6073.6736   -5948.5195   -2434.7022    16964.535    21.522245 
    7960    1116.9956   -6073.4487   -5948.8462   -3448.3788    16973.439    21.563264 
    7970    1105.9443   -6072.5326   -5949.1628   -3716.4661    16980.042    21.603543 
    7980    1107.9901   -6073.0642   -5949.4662   -4077.6749    16984.147     21.66123 
    7990    1096.1514   -6072.0315   -5949.7542   -3993.2195    16985.606    21.735832 
    8000    1081.7945   -6070.6825   -5950.0067   -3129.7517    16984.526    21.808618 
    8010    1042.1123   -6066.4153   -5950.1661   -1197.7747    16981.541    21.876937 
    8020    1048.9242   -6067.1844   -5950.1753   -101.10563    16977.796     21.94592 
    8030    1083.2896   -6070.8666    -5950.024   -69.389118    16973.993    21.998963 
    8040    1092.1853   -6071.5848   -5949.7499    166.09026     16970.23    22.029447 
    8050    1070.8048   -6068.8135   -5949.3636    522.03285     16966.65    22.047604 
    8060    1068.1791   -6067.9751   -5948.8181    87.173833    16963.423    22.054286 
    8070    1109.9097   -6071.9056   -5948.0935   -673.22508    16960.285    22.059744 
    8080     1121.008   -6072.2798   -5947.2296   -313.30767    16956.826    22.080014 
    8090    1119.8801   -6071.2215   -5946.2972     550.9037     16953.26     22.11932 
    8100    1149.6634   -6073.5702   -5945.3235    599.30912     16950.04    22.165093 
    8110    1145.6212   -6072.1554   -5944.3596    756.74731    16947.283    22.203195 
    8120    1155.7263   -6072.3912   -5943.4682   -373.93832    16944.983    22.225455 
    8130    1174.1298    -6073.655    -5942.679   -2254.6777    16942.436    22.241161 
    8140    1156.4057   -6071.0365   -5942.0377   -3059.6632    16938.552    22.263334 
    8150    1142.5137   -6068.9719   -5941.5228   -2511.9539     16932.85    22.290933 
    8160    1131.8636   -6067.3414   -5941.0803   -880.68741     16925.67    22.310616 
    8170    1119.0571   -6065.4952   -5940.6627    1077.4296    16918.055    22.306942 
    8180    1165.8027    -6070.318   -5940.2709    1151.1662    16911.113    22.280712 
    8190    1167.5477   -6070.2131   -5939.9714    1443.8227     16905.02    22.250123 
    8200    1148.0449   -6067.8554   -5939.7893    1818.6278    16899.922     22.23189 
    8210    1149.8941   -6067.9457   -5939.6733    1899.2864    16896.021    22.235725 
    8220    1176.1989   -6070.8327   -5939.6259    1363.9918    16893.339    22.262175 
    8230     1187.341    -6072.148   -5939.6983    1041.0675    16891.576    22.304414 
    8240    1166.5727   -6070.0251   -5939.8922    1332.0768    16890.536    22.346642 
    8250    1161.9658   -6069.8012   -5940.1821    993.77683    16890.321    22.388221 
    8260    1182.1945   -6072.4271   -5940.5515   -286.22841    16890.672    22.431137 
    8270    1186.2818   -6073.3705    -5941.039    -213.5852    16890.928       22.475 
    8280    1165.9789   -6071.6947    -5941.628    191.32551    16891.071    22.502563 
    8290    1137.9521   -6069.1973    -5942.257    795.17852    16891.374    22.520893 
    8300    1138.7385   -6069.8991   -5942.8711    342.93171    16892.114    22.546834 
    8310     1149.975   -6071.7585    -5943.477   -671.24767    16893.043    22.588594 
    8320    1131.1698   -6070.2459   -5944.0623   -523.18124    16893.614    22.646193 
    8330    1111.4188   -6068.5572   -5944.5767   0.66631914    16893.871    22.697657 
    8340    1135.5108   -6071.6815   -5945.0136   -23.371488     16894.09    22.709631 
    8350    1145.8328   -6073.2251   -5945.4057     421.2661     16894.33     22.67448 
    8360    1144.7943   -6073.4809   -5945.7774    858.48321    16894.845    22.624255 
    8370    1144.9057   -6073.8395   -5946.1235    198.36737    16895.842    22.594935 
    8380     1156.836   -6075.5101   -5946.4633   -1029.3034    16896.929    22.601251 
    8390    1133.4203   -6073.2175   -5946.7827   -1205.7274    16897.425    22.634596 
    8400     1144.687   -6074.7798   -5947.0883   -1726.3955     16897.11    22.673301 
    8410    1127.2441   -6073.1124   -5947.3666   -1027.6374    16895.797    22.714618 
    8420    1108.0947   -6071.2107    -5947.601   -227.52175     16893.83    22.750232 
    8430    1121.9798   -6072.9386   -5947.7801   -316.74267    16891.693    22.768312 
    8440    1135.0712   -6074.5521   -5947.9332   -871.11531    16889.343    22.781402 
    8450    1127.6867   -6073.8798   -5948.0847   -300.15366    16886.534    22.812061 
    8460    1117.4849   -6072.8792   -5948.2221   -20.106005    16883.533    22.870137 
    8470    1148.0218   -6076.4272   -5948.3636   -1123.0878     16880.45    22.941608 
    8480    1108.0846   -6072.1165    -5948.508   -1081.8667    16876.748    23.003346 
    8490    1095.4982   -6070.8269   -5948.6224   -1286.5203    16872.361    23.025654 
    8500     1133.516   -6075.1353   -5948.6899   -1660.1872    16867.178    23.015457 
    8510    1126.9465   -6074.4667   -5948.7541   -635.79709    16861.049    22.999864 
    8520    1106.8217   -6072.2805   -5948.8129   -234.18381    16854.506    22.984686 
    8530    1120.3595   -6073.8256   -5948.8478   -964.99403    16847.783    22.963982 
    8540    1109.4285   -6072.6233   -5948.8649   -1287.0342    16840.504     22.93785 
    8550    1091.5751   -6070.6112   -5948.8444    -1246.976     16832.45    22.914029 
    8560    1105.2864   -6072.0621   -5948.7657   -1063.0244    16823.637    22.906767 
    8570     1109.892   -6072.4402   -5948.6301    -454.2361      16814.2    22.912997 
[...]
   22890    1198.5064   -6095.1269   -5961.4317   -237.92116    16498.608    46.816793 
   22900    1209.3858   -6096.2017   -5961.2929   -515.33884     16494.28    46.754499 
   22910    1183.7304   -6093.3842   -5961.3373    728.48237    16489.742    46.714907 
   22920    1151.3808   -6089.9371   -5961.4988    1699.4481    16485.647    46.689791 
   22930    1146.6607   -6089.6289   -5961.7172    1481.9733    16482.533     46.68625 
   22940    1145.0047   -6089.6935   -5961.9665    1889.7401    16480.376     46.71693 
   22950    1138.3565   -6089.2318   -5962.2464    3076.5671    16479.435    46.774861 
   22960    1155.0354   -6091.4174   -5962.5715    2842.4292    16480.272    46.840151 
   22970    1168.7161   -6093.3303   -5962.9582    2561.3306    16482.862    46.901214 
   22980     1151.031   -6091.8159   -5963.4166    2261.8156    16486.996    46.943739 
   22990    1131.6617   -6090.1693   -5963.9307    1742.3197    16492.486    46.959155 
   23000    1110.9257   -6088.3757   -5964.4503    1594.1431    16499.059    46.960233 
   23010    1087.0065   -6086.1793    -5964.922    1285.3536    16506.603    46.946752 
   23020      1090.37   -6086.9443   -5965.3119   -43.340648     16514.86    46.914155 
   23030    1097.6423    -6088.041   -5965.5974   -729.40112    16523.128    46.876748 
   23040    1117.9846   -6090.5443   -5965.8314   -1328.1496    16530.943    46.861488 
   23050    1109.2354   -6089.7789    -5966.042   -1271.3612    16537.981    46.886334 
   23060    1088.8146   -6087.6764   -5966.2174   -1311.8653    16544.227    46.925321 
   23070    1099.8115   -6089.0074   -5966.3218   -2038.5918    16549.645    46.964963 
   23080    1145.0001   -6094.1026   -5966.3761   -3222.5865    16553.782    47.006111 
   23090    1145.2089   -6094.2179   -5966.4681    -2904.265    16556.034    47.027874 
   23100    1102.0666   -6089.5318   -5966.5946   -1769.3772    16556.561    47.010843 
   23110    1113.2167   -6090.8901   -5966.7091   -1744.7509    16555.941    46.961241 
   23120    1111.3599   -6090.7674   -5966.7935   -1433.6156    16554.274    46.916207 
   23130    1090.9718   -6088.5637   -5966.8641   -395.77255    16551.772    46.883691 
   23140    1087.3166   -6088.1532   -5966.8614     197.6554    16549.014    46.837728 
   23150    1114.8262   -6091.1417   -5966.7812    8.0930451    16546.339    46.764372 
   23160    1119.1445   -6091.4775   -5966.6352    301.26577    16543.724    46.679982 
   23170    1128.4728   -6092.3301   -5966.4473   -662.83967    16541.234    46.594124 
   23180    1144.7282    -6093.906   -5966.2098   -2496.0901    16538.306    46.511803 
   23190    1128.4356   -6091.8203   -5965.9416   -2967.7705    16533.955    46.458122 
   23200    1113.6169   -6089.8535   -5965.6279   -2639.1679    16527.849    46.448651 
   23210    1132.8554   -6091.5818   -5965.2101   -2237.7722    16520.162    46.472907 
   23220    1153.4857   -6093.3879   -5964.7149   -2145.6705    16511.128    46.495616 
   23230     1132.147   -6090.4798   -5964.1871   -1358.5468    16500.858    46.494233 
   23240    1120.2344   -6088.5803   -5963.6165   -755.34513    16489.788    46.458066 
   23250    1141.0194   -6090.2598   -5962.9774   -720.94808    16478.266    46.395283 
   23260    1152.6515   -6090.8837   -5962.3037    147.77141    16466.408    46.329855 
   23270    1161.5709   -6091.2116   -5961.6366    1288.0645    16454.723    46.265747 
   23280    1171.2339   -6091.6678   -5961.0149    1786.4202    16443.832    46.214662 
   23290    1173.3918   -6091.3645   -5960.4709    2470.4979    16434.085    46.194635 
   23300    1157.3913   -6089.1147    -5960.006    3611.9648    16425.921    46.215947 
   23310    1168.0169   -6089.9009   -5959.6069    3793.9255    16419.918     46.25815 
   23320    1190.0513   -6092.0509   -5959.2989    3362.1636    16416.199    46.276798 
   23330    1201.8133   -6093.1913   -5959.1272    3574.5464    16414.565    46.236876 
   23340    1172.2321   -6089.9039   -5959.1396    5153.9795    16415.178    46.166709 
   23350    1151.4615   -6087.7303    -5959.283    5420.2706    16418.812    46.128758 
   23360    1176.4247   -6090.7563   -5959.5244    3693.6985    16425.573    46.133415 
   23370    1199.9995   -6093.7656   -5959.9039    1976.7855    16434.528    46.143774 
   23380    1183.1362   -6092.4399   -5960.4592    1420.1704    16444.711     46.15115 
   23390    1153.1008    -6089.793   -5961.1629    1355.8378    16455.733     46.15823 
   23400    1138.2085   -6088.9135   -5961.9447    1208.2054    16467.517    46.158357 
   23410    1133.9002   -6089.2474   -5962.7591     845.5203    16479.969    46.155983 
   23420    1113.0543   -6087.7349    -5963.572    870.83213    16492.917    46.155097 
   23430    1120.7096   -6089.3699    -5964.353    359.97742    16506.314    46.154904 
   23440    1132.5502   -6091.4337    -5965.096   -181.59846    16519.871    46.164953 
   23450    1162.6832   -6095.5477   -5965.8487   -833.92509     16533.26    46.212019 
   23460    1165.7502   -6096.6859   -5966.6447   -799.46332    16546.145    46.281363 
   23470    1144.9745   -6095.1925   -5967.4688    146.52143    16558.545    46.321509 
   23480    1110.6135   -6092.1442   -5968.2536    985.93794    16570.987    46.331593 
   23490    1107.0669   -6092.4165   -5968.9215    172.41021      16583.9    46.337656 
   23500    1148.2173    -6097.593   -5969.5077   -1989.6843    16596.783    46.350799 
   23510    1135.1394   -6096.6774   -5970.0509   -2146.9104    16608.525     46.37904 
   23520     1131.541   -6096.7925   -5970.5674   -1528.2957    16618.938     46.41254 
   23530    1108.5586   -6094.7072   -5971.0458   -213.80004    16628.405     46.44208 
   23540     1056.711   -6089.2914   -5971.4137    1529.5298    16637.746    46.479633 
   23550     1078.926   -6091.9939    -5971.638    106.37065    16647.806    46.524471 
   23560      1081.35    -6092.346   -5971.7198    -1759.149    16657.893    46.558202 
   23570    1091.6001   -6093.4693   -5971.6996   -3280.7202    16666.865    46.580358 
   23580    1114.7852   -6095.9816   -5971.6257   -4417.2687    16673.795    46.599278 
   23590    1093.6673   -6093.5059   -5971.5056   -4496.9374    16678.044    46.617459 
   23600    1106.2063   -6094.7529   -5971.3539   -4316.9128    16679.495    46.649803 
   23610    1105.7689   -6094.5204   -5971.1702    -3819.482    16678.278    46.693863 
   23620    1104.3325   -6094.1475   -5970.9576   -3110.8337    16674.704    46.720315 
   23630    1096.7857   -6093.0499   -5970.7018   -2216.3156    16669.228     46.71068 
   23640    1101.9744   -6093.3278   -5970.4009   -2286.1349    16662.339    46.659691 
   23650    1112.3661   -6094.1367   -5970.0505   -2442.1002    16654.075    46.558906 
   23660    1142.3676   -6097.1123   -5969.6795   -3039.6998    16644.312    46.432945 
   23670    1155.4883   -6098.2427   -5969.3462   -3740.5358    16632.701    46.324067 
   23680    1134.2725   -6095.6074   -5969.0776   -3337.8782    16618.901    46.263087 
   23690    1097.3128   -6091.2344   -5968.8275   -2417.7832    16603.141    46.261827 
   23700    1104.5566   -6091.7385   -5968.5236   -2793.6697    16585.905    46.312739 
   23710    1144.8563   -6095.8967   -5968.1862   -3516.8787    16567.024    46.382794 
   23720     1153.413   -6096.5254   -5967.8605   -3299.7692    16546.161    46.421525 
   23730    1198.4834   -6101.3173   -5967.6247   -3586.3004     16523.37     46.40164 
   23740    1194.9394   -6100.8244   -5967.5271    -2219.461    16498.616    46.353254 
   23750    1114.5699   -6091.8519   -5967.5199      843.311    16472.784    46.334016 
   23760    1113.8284   -6091.7354   -5967.4862    1869.3681    16447.545      46.3801 
   23770     1136.396   -6094.1804   -5967.4137    2001.3778    16423.592    46.478058 
   23780    1126.7349   -6093.0323   -5967.3433     3022.427    16401.107    46.578284 
   23790    1138.0242   -6094.2238   -5967.2755    3563.5572    16380.627    46.638218 
   23800    1167.2368   -6097.4459   -5967.2389    3262.7765    16362.428    46.636206 
   23810    1175.6281   -6098.4473   -5967.3042    3500.4361    16346.375    46.591857 
   23820    1155.0694   -6096.3614   -5967.5117    4728.9997    16332.622    46.542706 
   23830    1133.4545   -6094.2985     -5967.86    5412.5799    16321.787    46.511902 
   23840    1146.0726   -6096.2175   -5968.3714    4346.1416    16314.153    46.508959 
   23850    1140.2368   -6096.2771    -5969.082    4479.0545    16309.242    46.528816 
   23860    1131.7986   -6096.2184   -5969.9646    4588.5007    16307.025    46.570334 
   23870     1142.256   -6098.4322   -5971.0118    4347.7435    16307.522    46.625178 
   23880    1139.3195   -6099.2744   -5972.1816    4808.1445     16310.65    46.663323 
   23890     1132.423   -6099.7561   -5973.4326     4881.138    16316.578    46.672112 
   23900    1110.2551   -6098.4949   -5974.6442    4837.8194    16325.351    46.669488 
   23910    1132.6382   -6102.1333   -5975.7858     3407.995    16336.838    46.675548 
   23920    1126.1247   -6102.4475   -5976.8266    2207.2678    16350.285    46.709232 
   23930    1119.1278   -6102.5991   -5977.7587     1607.498    16364.971    46.783991 
   23940    1114.4797     -6102.91   -5978.5881    819.29207    16380.497     46.88032 
   23950    1101.6671   -6102.1815   -5979.2889    -210.7283    16396.386    46.967575 
   23960    1120.2495   -6104.8348   -5979.8693   -1324.7165    16411.996    47.036034 
   23970    1118.6625   -6105.1549   -5980.3664   -993.30998    16426.758    47.101322 
   23980    1075.1074   -6100.7329   -5980.8031   -33.742347    16440.819     47.17531 
   23990    1028.6003   -6095.8374   -5981.0955   -12.902728    16454.674    47.253327 
   24000    1015.3103   -6094.4381   -5981.1787   -713.33533    16468.352    47.331183 
   24010    1029.1671   -6095.8482    -5981.043    -1410.439    16481.471    47.402197 
   24020    1049.6275   -6097.8024   -5980.7149   -2727.2577    16493.561    47.458556 
   24030     1047.232   -6097.0469   -5980.2266   -3407.5432    16503.893    47.509055 
   24040    1048.8261   -6096.5974   -5979.5993   -2783.4073    16512.118    47.559829 
   24050    1079.8657    -6099.286   -5978.8254    -2309.755    16518.551    47.597654 
   24060    1098.8874   -6100.5347   -5977.9521   -1822.9591    16523.518    47.619875 
   24070    1095.5367   -6099.2606   -5977.0518   -1387.7294    16527.324    47.632922 
   24080    1100.9373   -6098.9745   -5976.1633   -1518.9108    16530.216    47.644711 
   24090    1103.6988   -6098.4163    -5975.297   -2556.8264    16532.113    47.655465 
   24100    1136.7217   -6101.2867   -5974.4836   -4329.1128    16532.391      47.6762 
   24110    1150.3608   -6102.0711   -5973.7466   -4746.0417    16530.123    47.723296 
   24120    1146.4342    -6101.029   -5973.1426   -3629.7926    16525.085    47.785756 
   24130    1114.7076   -6097.0099   -5972.6626   -2210.6185    16517.941    47.840851 
   24140    1095.8016   -6094.4711   -5972.2328   -1811.6102    16509.533     47.87551 
   24150    1117.6383    -6096.476   -5971.8017   -2566.1948      16500.1    47.897583 
   24160    1123.0987   -6096.6627   -5971.3794   -2390.7404    16489.328    47.948437 
   24170    1116.6635   -6095.5446   -5970.9791   -1239.0304    16477.362    48.036855 
   24180    1120.3727   -6095.5521   -5970.5729   -472.97774     16464.84    48.125713 
   24190     1130.511   -6096.2794   -5970.1692   -219.84345    16452.236    48.184232 
   24200    1114.4617   -6094.1058   -5969.7859    14.786277    16439.723    48.195882 
   24210    1109.0183     -6093.12   -5969.4073    371.47938    16427.446    48.157908 
   24220    1136.1718   -6095.7491   -5969.0074   -23.115148    16415.571    48.084672 
   24230    1174.1498   -6099.6297   -5968.6515   -657.89511    16403.878     47.99588 
   24240    1152.9515   -6096.9991   -5968.3856    631.45052    16392.098    47.902535 
   24250    1148.1456   -6096.2785   -5968.2011    2073.1897    16380.895    47.832088 
   24260    1166.3824   -6098.1897   -5968.0779    2209.2315     16371.05    47.814922 
   24270    1154.1349   -6096.7777   -5968.0322     2989.416    16362.727    47.843973 
   24280    1131.2703   -6094.2358   -5968.0409     4036.095    16356.346     47.87626 
   24290    1150.2152   -6096.3927   -5968.0845     3461.125    16352.365    47.890566 
   24300    1168.0877   -6098.5038   -5968.2018    2606.0074    16350.482    47.903171 
   24310    1153.1243   -6097.0542   -5968.4214     2170.492    16350.197    47.924103 
   24320    1144.0555   -6096.3443   -5968.7232    2533.3988    16351.265    47.963785 
   24330    1139.7544   -6096.2201   -5969.0787    2710.0645    16353.799    48.031071 
   24340    1137.3934   -6096.3806   -5969.5026    2412.8694    16357.867    48.103187 
   24350    1119.4961   -6094.8625    -5969.981    2310.6863    16363.335    48.148728 
   24360    1109.4283   -6094.2509   -5970.4925    2356.7363    16370.118    48.145563 
   24370    1103.4321   -6094.1053   -5971.0158    2107.2718    16378.195    48.098288 
   24380    1110.2226   -6095.3846   -5971.5376     1703.362    16387.415    48.042318 
   24390    1134.2725   -6098.6262   -5972.0964    1622.0316    16397.553    47.997936 
   24400    1119.6003   -6097.6007   -5972.7076    1537.3444    16408.554    47.971519 
   24410     1131.819   -6099.6488   -5973.3927   -168.03574    16420.248    47.963042 
   24420    1130.2459   -6100.2325   -5974.1519   -1213.6981    16431.754     47.95661 
   24430    1096.2429   -6097.2546    -5974.967   -592.46575    16442.493    47.959119 
   24440     1072.179   -6095.3975   -5975.7943   -227.78695    16452.719    47.990189 
   24450    1050.5057   -6093.7218   -5976.5364   -449.95787    16462.688    48.038883 
   24460    1073.6451    -6096.951   -5977.1842   -1301.7945    16472.255     48.07481 
   24470    1081.6521   -6098.4176   -5977.7577   -1547.4015    16480.991    48.094737 
   24480    1057.5092   -6096.2181   -5978.2514   -1470.2043    16488.712    48.119079 
   24490    1034.5371   -6094.0248   -5978.6206   -1788.4445    16495.441    48.152375 
   24500    1062.8404   -6097.4069   -5978.8455   -2876.3857    16500.985    48.168074 
   24510    1069.5756   -6098.2527     -5978.94   -3642.5059    16504.746     48.16432 
   24520    1061.8722   -6097.3836   -5978.9301   -3529.3605    16506.323    48.157823 
   24530    1057.3642   -6096.7321   -5978.7815   -3676.2154    16505.737    48.154126 
   24540     1069.809   -6097.8048    -5978.466   -4295.9286    16502.906    48.147955 
   24550    1074.0236    -6097.768    -5977.959   -4553.7283    16497.517    48.138777 
   24560    1081.6632   -6097.8911     -5977.23   -4464.5082    16489.448    48.115825 
   24570    1102.3381   -6099.2295    -5976.262   -4405.2042    16478.761     48.07618 
   24580    1101.9273    -6097.979   -5975.0574   -3967.2003    16465.547     48.03118 
   24590    1122.7221   -6098.9263   -5973.6849   -2993.9515    16450.102    47.989135 
   24600    1145.9343   -6100.0587    -5972.228   -1435.1149    16433.042    47.943896 
   24610    1157.4265   -6099.9687    -5970.856    252.01508    16415.298    47.899893 
   24620     1172.061   -6100.4408   -5969.6957    528.75052    16397.783    47.870851 
   24630    1184.5323   -6100.9354   -5968.7991    336.78759    16380.744    47.857848 
   24640    1186.8064   -6100.5739   -5968.1838   -666.93255    16364.032    47.868513 
   24650    1179.9036   -6099.4321   -5967.8121   -1313.9763    16347.112    47.907126 
   24660    1156.3932   -6096.6118   -5967.6144   -489.97667     16329.65    47.970331 
   24670    1143.5689   -6095.0703   -5967.5035    1132.0423     16312.11    48.034352 
   24680    1128.1383    -6093.268   -5967.4225    3086.1736    16295.442    48.070065 
   24690    1131.7695   -6093.6093   -5967.3587    3687.7486    16280.682    48.082521 
   24700    1125.3952   -6092.8401   -5967.3006    3904.9883    16268.225    48.094408 
   24710     1130.492   -6093.3676   -5967.2595    3884.0165    16258.151    48.100032 
   24720    1146.9023   -6095.1892   -5967.2505    3772.0361    16250.438    48.094537 
   24730    1148.0462   -6095.3492   -5967.2829    4127.5003    16245.044      48.0865 
   24740    1168.2068   -6097.6878   -5967.3725    3636.0794     16242.06    48.073706 
   24750    1191.2546   -6100.4649   -5967.5787    2589.7961    16241.201    48.043556 
   24760    1193.3269   -6101.0625    -5967.945    1830.2727    16241.878    48.003765 
   24770     1164.134   -6098.3093   -5968.4484    2421.1613    16243.702    47.985273 
   24780    1145.9366     -6096.86   -5969.0291    3229.8126    16246.947    48.011679 
   24790    1155.9247   -6098.6066   -5969.6615    3286.5043    16252.057    48.059077 
   24800     1169.683   -6100.8208   -5970.3409    2097.8493    16259.012    48.114094 
   24810    1169.0697   -6101.5327   -5971.1212    1361.9439    16267.179    48.179587 
   24820    1140.2885   -6099.1389    -5971.938    1246.5287    16276.145    48.244181 
   24830     1162.765   -6102.4841   -5972.7759   -427.45415    16285.694    48.302718 
   24840    1153.4809   -6102.2981   -5973.6256   -909.99584    16295.025    48.387289 
   24850    1120.3289   -6099.4077   -5974.4333    72.976893    16303.864    48.513843 
   24860    1124.6413   -6100.6111   -5975.1557   -4.2416304     16312.65    48.660493 
   24870    1133.0192   -6102.1861   -5975.7961   -424.46822    16321.386    48.815247 
   24880    1096.4887   -6098.6643   -5976.3493    308.26314    16329.906    48.958858 
   24890    1090.0894   -6098.3775   -5976.7764    738.11521    16338.554     49.06138 
   24900    1118.2284   -6101.8247   -5977.0847     148.4114    16347.559    49.122949 
   24910    1135.6129   -6104.0224   -5977.3431   -1399.2652    16356.575    49.168016 
   24920    1119.7419    -6102.487   -5977.5781   -2143.2039    16364.768    49.199236 
   24930    1081.5432   -6098.4164   -5977.7686   -1479.7603    16371.723    49.210303 
   24940    1082.1057   -6098.5748   -5977.8643   -1211.2383    16377.758     49.20482 
   24950    1109.8158   -6101.6707   -5977.8691   -1591.0458    16383.024    49.190339 
   24960    1105.8593   -6101.1919   -5977.8317   -1855.3448    16387.343    49.171653 
   24970    1085.6219   -6098.8561   -5977.7533   -2407.6363    16390.526    49.152462 
   24980    1067.7758   -6096.7064   -5977.5945   -3183.3165    16392.262    49.131564 
   24990    1115.1134    -6101.748   -5977.3554   -5077.3365    16392.011    49.103053 
   25000     1149.789   -6105.3483   -5977.0876    -6230.332    16388.761    49.076184 
Loop time of 14028.1 on 16 procs for 20000 steps with 864 atoms

Performance: 0.123 ns/day, 194.834 hours/ns, 1.426 timesteps/s
93.7% CPU use with 16 MPI tasks x 1 OpenMP threads

MPI task timing breakdown:
Section |  min time  |  avg time  |  max time  |%varavg| %total
---------------------------------------------------------------
Pair    | 8973.4     | 12370      | 13593      | 983.1 | 88.18
Bond    | 0.0016544  | 0.0050027  | 0.015559   |   5.0 |  0.00
Neigh   | 0.28399    | 0.31007    | 0.33513    |   3.0 |  0.00
Comm    | 392.92     | 1428.1     | 4564.3     |2657.0 | 10.18
Output  | 1.2725     | 1.3085     | 1.8271     |  11.7 |  0.01
Modify  | 40.305     | 227.93     | 500.96     |1105.6 |  1.62
Other   |            | 0.0874     |            |       |  0.00

Nlocal:        54.0000 ave          58 max          48 min
Histogram: 1 0 0 0 0 2 10 0 2 1
Nghost:        544.375 ave         587 max         509 min
Histogram: 2 3 1 3 0 2 0 2 1 2
Neighs:         0.00000 ave           0 max           0 min
Histogram: 16 0 0 0 0 0 0 0 0 0
FullNghs:      2913.50 ave        3153 max        2387 min
Histogram: 1 0 0 1 2 0 2 4 2 4

Total # of neighbors = 46616
Ave neighs/atom = 53.953704
Ave special neighs/atom = 0.0000000
Neighbor list builds = 2000
Dangerous builds = 2000
Total wall time: 4:50:48
