LAMMPS (2 Aug 2023)
OMP_NUM_THREADS environment is not set. Defaulting to 1 thread. (src/comm.cpp:98)
  using 1 OpenMP thread(s) per MPI task
units          metal
atom_style     full

read_data      initial-solid.data
Reading data file ...
  orthogonal box = (0 0 0) to (22.735975 22.735975 68.207924)
  1 by 1 by 1 MPI processor grid
  reading atoms ...
  1536 atoms
Finding 1-2 1-3 1-4 neighbors ...
  special bond factors lj:    0        0        0       
  special bond factors coul:  0        0        0       
     0 = max # of 1-2 neighbors
     0 = max # of 1-3 neighbors
     0 = max # of 1-4 neighbors
     1 = max # of special neighbors
  special bonds CPU = 0.000 seconds
  read_data CPU = 0.025 seconds
velocity       all create 300.0 1312343 dist gaussian

pair_style     chgnet/gpu /ocean/projects/cts180021p/wuziqi/clease/lammps-ASC/potentials/CHGNET
pair_coeff     * * /ocean/projects/cts180021p/wuziqi/chgnet/fine-tunning2/04-12-2024/epoch999_e52_f152_s406_mNA.pth.tar Cl K Li

variable myZlo equal zlo
variable myZhi equal zhi
variable myMid equal (${myZlo}+${myZhi})/2
variable myMid equal (0+${myZhi})/2
variable myMid equal (0+68.2079236686237)/2

region   solid block INF INF INF INF ${myZlo} ${myMid}
region   solid block INF INF INF INF 0 ${myMid}
region   solid block INF INF INF INF 0 34.1039618343119
region   liquid block INF INF INF INF ${myMid} ${myZhi}
region   liquid block INF INF INF INF 34.1039618343119 ${myZhi}
region   liquid block INF INF INF INF 34.1039618343119 68.2079236686237
group    gSolid region solid
768 atoms in group gSolid
group    gLiquid region liquid
768 atoms in group gLiquid

neighbor        0.3 bin
neigh_modify    delay 10

timestep        0.0005
compute msd all msd
thermo_style    custom step temp pe etotal press vol c_msd[4]
thermo          10
dump            1 all custom 10 xyz-npt.dump type id x y z
#dump           2 all custom 10 force-npt.dump type id fx fy fz

fix             1 all npt temp 300.0 300.0 $(100.0*dt) aniso 1.01325 1.01325 $(1000.0*dt)
fix             1 all npt temp 300.0 300.0 0.050000000000000002776 aniso 1.01325 1.01325 $(1000.0*dt)
fix             1 all npt temp 300.0 300.0 0.050000000000000002776 aniso 1.01325 1.01325 0.5
run             10000
Neighbor list info ...
  update: every = 1 steps, delay = 10 steps, check = yes
  max neighbors/atom: 2000, page size: 100000
  master list distance cutoff = 6.3
  ghost atom cutoff = 6.3
  binsize = 3.15, bins = 8 8 22
  1 neighbor lists, perpetual/occasional/extra = 1 0 0
  (1) pair chgnet/gpu, perpetual
      attributes: full, newton on
      pair build: full/bin
      stencil: full/bin/3d
      bin: standard
Per MPI rank memory allocation (min/avg/max) = 6.514 | 6.514 | 6.514 Mbytes
   Step          Temp          PotEng         TotEng         Press          Volume        c_msd[4]   
         0   300           -5614.2133     -5554.689       40017.493      35258.349      0            
        10   300.72886     -5617.2729     -5557.604       39113.986      35375.738      0.0016622453 
        20   301.40298     -5625.4006     -5565.598       35217.384      35720.737      0.013398793  
        30   302.82701     -5636.5573     -5576.472       30337.497      36252.757      0.051390159  
        40   307.47263     -5648.4042     -5587.3972      25393.961      36879.41       0.12711844   
        50   317.44162     -5659.2799     -5596.2949      20980.47       37489.131      0.23367146   
        60   333.85543     -5669.1339     -5602.8922      17522.514      38023.893      0.3552875    
        70   356.42864     -5678.7297     -5608.0092      14920.749      38492.201      0.48492008   
        80   383.38069     -5688.538      -5612.4697      12889.456      38922.948      0.62411462   
        90   412.33253     -5698.5806     -5616.7679      11324.666      39334.647      0.77550586   
       100   441.42894     -5708.6016     -5621.0157      10194.517      39732.951      0.93946998   
       110   470.06364     -5718.323      -5625.0556      9409.8792      40116.835      1.1142856    
       120   496.8484      -5727.5592     -5628.9774      8987.6342      40483.726      1.297309     
       130   518.98565     -5736.085      -5633.1108      8787.3123      40832.683      1.4863632    
       140   534.79849     -5743.7219     -5637.6102      8685.3303      41164.792      1.6802959    
       150   544.04354     -5750.332      -5642.386       8593.461       41482.419      1.8789845    
       160   546.56292     -5755.76       -5647.3141      8422.1235      41788.255      2.0830315    
       170   542.88108     -5760.0311     -5652.3157      8155.547       42084.411      2.2932383    
       180   534.19787     -5763.312      -5657.3195      7748.0455      42372.086      2.5103322    
       190   522.29602     -5765.8788     -5662.2478      7182.8519      42651.345      2.7345576    
       200   508.70394     -5767.9614     -5667.0273      6506.0473      42921.06       2.9654279    
       210   494.16207     -5769.6654     -5671.6166      5743.4349      43179.37       3.2016687    
       220   480.04365     -5771.2269     -5675.9794      4918.774       43424.071      3.4411987    
       230   468.40782     -5773.0455     -5680.1067      4037.973       43652.789      3.6812424    
       240   458.97801     -5775.0703     -5684.0025      3154.2444      43863.092      3.9185359    
       250   449.47428     -5776.8662     -5687.6841      2345.5859      44052.911      4.1499088    
       260   438.12908     -5778.082      -5691.1509      1630.8112      44220.975      4.3725648    
       270   426.44893     -5779.014      -5694.4005      1041.3661      44366.906      4.5840652    
       280   418.03811     -5780.3914     -5697.4466      525.04961      44491.163      4.7823726    
       290   414.62957     -5782.5989     -5700.3304      56.004159      44594.493      4.9656388    
       300   413.68764     -5785.184      -5703.1024     -337.97133      44677.707      5.1324012    
       310   411.38167     -5787.4109     -5705.7869     -643.14783      44741.846      5.2818878    
       320   405.7875      -5788.8951     -5708.3811     -794.18055      44788.408      5.4140397    
       330   397.37191     -5789.7136     -5710.8693     -848.94428      44819.596      5.5297825    
       340   387.13558     -5790.0417     -5713.2285     -825.845        44837.901      5.6306001    
       350   376.77103     -5790.204      -5715.4472     -721.10932      44845.938      5.718149     
       360   368.90457     -5790.7211     -5717.5251     -609.44715      44846.369      5.79417      
       370   365.05332     -5791.934      -5719.5022     -545.16678      44841.415      5.8604483    
       380   363.05953     -5793.4471     -5721.4109     -492.67648      44832.537      5.9186918    
       390   360.44479     -5794.7842     -5723.2668     -396.11185      44820.831      5.9706633    
       400   356.47842     -5795.8055     -5725.0751     -287.05433      44807.496      6.0181406    
       410   351.36129     -5796.5409     -5726.8258     -147.93743      44793.722      6.0628614    
       420   345.60142     -5797.0833     -5728.511       2.7323757      44780.694      6.1065103    
       430   340.04914     -5797.5916     -5730.1209      140.22534      44769.546      6.1502787    
       440   334.70047     -5798.0676     -5731.6583      275.10549      44761.229      6.1947426    
       450   329.28241     -5798.4554     -5733.1211      381.85308      44756.485      6.2399457    
       460   323.794       -5798.7561     -5734.5107      485.49758      44755.772      6.285739     
       470   317.96196     -5798.9121     -5735.8239      562.84419      44759.428      6.3318996    
       480   311.55617     -5798.8704     -5737.0532      605.59249      44767.591      6.3781789    
       490   305.4314      -5798.7953     -5738.1933      605.32747      44780.072      6.4241979    
       500   300.39371     -5798.848      -5739.2456      589.80662      44796.387      6.4696773    
       510   296.21393     -5798.9835     -5740.2104      513.40112      44815.906      6.5144864    
       520   292.56433     -5799.1395     -5741.0906      395.79863      44837.654      6.5581924    
       530   288.70025     -5799.1707     -5741.8884      266.64875      44860.415      6.6001274    
       540   284.33327     -5799.0135     -5742.5978      143.8489       44882.97       6.6395123    
       550   280.12941     -5798.7982     -5743.2165      24.743633      44904.278      6.6756143    
       560   277.44825     -5798.7902     -5743.7405     -117.85493      44923.429      6.7078997    
       570   276.24885     -5798.9839     -5744.1722     -281.78135      44939.401      6.7359737    
       580   276.04605     -5799.2849     -5744.5134     -456.32348      44951.07       6.7596683    
       590   276.39797     -5799.6108     -5744.7695     -589.24696      44957.385      6.7791351    
       600   276.37137     -5799.7756     -5744.9396     -664.84018      44957.751      6.795056     
       610   274.9541      -5799.5815     -5745.0267     -695.97951      44952.12       6.8085637    
       620   271.91185     -5798.9784     -5745.0272     -638.8715       44940.888      6.8210239    
       630   268.7142      -5798.2456     -5744.9289     -540.59362      44925.069      6.8338936    
       640   267.23592     -5797.7476     -5744.7241     -418.89591      44906.029      6.8485219    
       650   267.79327     -5797.5381     -5744.4041     -307.83037      44885.169      6.8660335    
       660   269.3086      -5797.4081     -5743.9734     -208.45336      44863.607      6.8871834    
       670   271.32278     -5797.2722     -5743.4379     -112.76994      44842.337      6.9124615    
       680   275.06327     -5797.3887     -5742.8122     -43.26171       44822.22       6.9420357    
       690   280.3069      -5797.7311     -5742.1142     -0.088769268    44803.705      6.9756582    
       700   284.54888     -5797.8201     -5741.3615      44.668229      44786.997      7.0127396    
       710   286.69796     -5797.4641     -5740.5791      145.2001       44772.373      7.0524332    
       720   288.29046     -5796.9785     -5739.7776      230.38037      44760.461      7.093864     
       730   291.82792     -5796.8687     -5738.9658      276.69056      44751.775      7.1358457    
       740   297.90388     -5797.2557     -5738.1473      275.55803      44746.394      7.1769611    
       750   304.87943     -5797.834      -5737.3415      194.80775      44743.929      7.2156447    
       760   310.77313     -5798.2361     -5736.5742      99.538177      44743.445      7.2502542    
       770   314.37291     -5798.243      -5735.867       30.799262      44743.925      7.2793743    
       780   316.02375     -5797.9358     -5735.2322     -3.5132356      44744.672      7.3021673    
       790   317.69654     -5797.7131     -5734.6776     -77.559369      44745.269      7.3183659    
       800   320.06787     -5797.7087     -5734.2027     -166.9033       44745.113      7.3280177    
       810   321.96693     -5797.7018     -5733.8189     -251.49227      44743.465      7.3312614    
       820   322.33772     -5797.4846     -5733.5282     -342.00628      44739.688      7.3283524    
       830   322.25376     -5797.2766     -5733.3368     -443.71443      44733.164      7.3195177    
       840   321.82575     -5797.0979     -5733.2431     -556.98897      44723.205      7.3050412    
       850   319.7438      -5796.6907     -5733.2489     -686.24775      44709.025      7.2851306    
       860   315.82931     -5796.0081     -5733.343      -781.32926      44689.861      7.259856     
       870   312.05309     -5795.4225     -5733.5067     -869.81162      44665.28       7.2296524    
       880   309.79524     -5795.1903     -5733.7225     -951.70642      44634.939      7.1952268    
       890   308.97387     -5795.2881     -5733.9832     -1036.1055      44598.545      7.1573552    
       900   309.28023     -5795.6492     -5734.2835     -1083.8867      44555.883      7.1167509    
       910   310.25522     -5796.1868     -5734.6277     -1111.2783      44507.027      7.0741084    
       920   310.89187     -5796.6987     -5735.0133     -1082.0636      44452.32       7.030096     
       930   310.74284     -5797.0983     -5735.4424     -1039.804       44392.486      6.985375     
       940   309.88126     -5797.3967     -5735.9118     -998.67372      44328.33       6.9402703    
       950   308.63279     -5797.6523     -5736.4152     -968.23669      44260.604      6.894832     
       960   307.74488     -5798.0061     -5736.9451     -900.91383      44189.994      6.8487241    
       970   307.30773     -5798.4716     -5737.4973     -815.43512      44117.369      6.8017889    
       980   306.78475     -5798.9396     -5738.0691     -735.37556      44043.67       6.7542167    
       990   306.74662     -5799.5204     -5738.6575     -634.4182       43969.785      6.706629     
      1000   307.83361     -5800.3425     -5739.2639     -532.22745      43896.647      6.6600959    
      1010   309.45816     -5801.295      -5739.8941     -423.90554      43825.156      6.615916     
      1020   310.69465     -5802.2018     -5740.5555     -317.8403       43756.129      6.5753767    
      1030   311.49415     -5803.0496     -5741.2447     -197.48402      43690.36       6.5397215    
      1040   311.95254     -5803.8607     -5741.9649     -82.193953      43628.635      6.5101373    
      1050   311.83516     -5804.5811     -5742.7085      16.353855      43571.609      6.4876067    
      1060   310.88049     -5805.1582     -5743.4751      124.29286      43519.781      6.4726781    
      1070   308.97556     -5805.557      -5744.2518      222.8318       43473.623      6.4654975    
      1080   306.41037     -5805.8236     -5745.0274      319.97975      43433.506      6.4658221    
      1090   304.3767      -5806.1836     -5745.7909      391.56775      43399.7        6.4731653    
      1100   303.47503     -5806.7534     -5746.5396      428.09593      43372.246      6.4868129    
      1110   303.05818     -5807.406      -5747.2749      440.24042      43350.903      6.5059382    
      1120   302.29884     -5807.9751     -5747.9947      422.93191      43335.218      6.5297124    
      1130   300.77125     -5808.3743     -5748.6969      420.33587      43324.566      6.5571119    
      1140   298.27103     -5808.5479     -5749.3666      440.90858      43318.462      6.5872391    
      1150   295.25025     -5808.5823     -5750.0004      468.53785      43316.651      6.6193148    
      1160   292.84147     -5808.6903     -5750.5864      473.58932      43318.925      6.6524789    
      1170   291.60953     -5808.9814     -5751.1219      463.34005      43324.941      6.685816     
      1180   290.89251     -5809.325      -5751.6077      452.81145      43334.288      6.7185719    
      1190   290.20843     -5809.6267     -5752.0452      435.66046      43346.571      6.7502029    
      1200   289.47916     -5809.8702     -5752.4334      412.8562       43361.381      6.7803459    
      1210   288.79559     -5810.0731     -5752.7719      394.54993      43378.306      6.8088945    
      1220   288.26503     -5810.2599     -5753.064       386.89354      43397.011      6.8359371    
      1230   288.45319     -5810.5426     -5753.3094      338.76176      43417.243      6.8618345    
      1240   289.78294     -5811.0044     -5753.5073      249.79075      43438.469      6.8869194    
      1250   291.80543     -5811.5665     -5753.6682      145.41867      43459.882      6.9111525    
      1260   293.14084     -5811.9609     -5753.7976      72.714547      43480.657      6.9342455    
      1270   292.6668      -5811.9701     -5753.9008      32.36305       43500.252      6.9559802    
      1280   290.54458     -5811.6222     -5753.974       43.782592      43518.454      6.9762976    
      1290   287.79294     -5811.115      -5754.0127      73.831859      43535.473      6.9953367    
      1300   285.58469     -5810.6708     -5754.0067      105.43449      43551.662      7.0130562    
      1310   284.85687     -5810.469      -5753.9493      149.11719      43567.403      7.029205     
      1320   285.98636     -5810.5818     -5753.838       171.27808      43583.087      7.0436348    
      1330   288.61848     -5810.9407     -5753.6746      178.33519      43598.921      7.0562552    
      1340   292.10744     -5811.4255     -5753.4672      182.65521      43614.997      7.0671961    
      1350   295.2319      -5811.8075     -5753.2293      157.54048      43631.302      7.0765976    
      1360   296.7448      -5811.85       -5752.9716      157.27756      43647.663      7.084478     
      1370   296.3308      -5811.4958     -5752.6996      165.91132      43664.068      7.0909969    
      1380   294.73925     -5810.8956     -5752.4151      208.79263      43680.657      7.0965284    
      1390   293.22292     -5810.2936     -5752.114       239.0232       43697.747      7.1015977    
      1400   292.37097     -5809.8007     -5751.7901      238.40386      43715.556      7.1067424    
      1410   292.45852     -5809.4667     -5751.4387      222.13729      43734.059      7.112429     
      1420   293.95491     -5809.3846     -5751.0598      199.71015      43753.081      7.1191265    
      1430   296.80768     -5809.5502     -5750.6593      145.23195      43772.35       7.127394     
      1440   299.66674     -5809.7018     -5750.2436      90.318151      43791.433      7.1377003    
      1450   300.74447     -5809.5011     -5749.8291      58.593342      43809.868      7.1503306    
      1460   298.96501     -5808.7383     -5749.4193      67.120301      43827.447      7.1654912    
      1470   295.32761     -5807.6111     -5749.0139      126.16685      43844.355      7.1834481    
      1480   292.962       -5806.7296     -5748.6018      160.66108      43861.096      7.2043914    
      1490   294.47481     -5806.5981     -5748.1701      148.01123      43877.987      7.2281139    
      1500   299.23835     -5807.0951     -5747.7219      90.242388      43894.925      7.253866     
      1510   304.83675     -5807.7521     -5747.2681      11.408357      43911.435      7.2804842    
      1520   309.50396     -5808.2461     -5746.8361     -33.754101      43926.915      7.3066452    
      1530   312.54805     -5808.4578     -5746.4438     -68.01719       43941.014      7.3313376    
      1540   313.75261     -5808.36       -5746.107      -93.715561      43953.558      7.3539158    
      1550   313.35479     -5808.0051     -5745.831      -101.32368      43964.434      7.3739901    
      1560   311.91216     -5807.5042     -5745.6163     -117.63069      43973.663      7.3914351    
      1570   310.04183     -5806.9724     -5745.4557     -141.5888       43981.219      7.4062916    
      1580   308.29204     -5806.5077     -5745.3381     -164.58941      43987.009      7.4187254    
      1590   307.15129     -5806.1982     -5745.255      -185.14715      43990.961      7.428942     
      1600   306.78787     -5806.0719     -5745.2008     -228.74944      43992.982      7.4372225    
      1610   307.07036     -5806.1019     -5745.1748     -262.99811      43992.851      7.4437739    
      1620   307.76958     -5806.2389     -5745.173      -285.19961      43990.415      7.4489587    
      1630   308.56415     -5806.429      -5745.2054     -277.77006      43985.686      7.4533939    
      1640   308.958       -5806.574      -5745.2723     -252.6169       43978.859      7.4577355    
      1650   308.23573     -5806.5311     -5745.3727     -221.80176      43970.262      7.4625595    
      1660   306.47341     -5806.3143     -5745.5056     -146.12062      43960.333      7.4682795    
      1670   304.52644     -5806.0862     -5745.6638     -55.592102      43949.806      7.4755232    
      1680   302.98066     -5805.9514     -5745.8357      38.166477      43939.504      7.4848873    
      1690   302.03429     -5805.9478     -5746.0198      103.19458      43930.196      7.496919     
      1700   302.08473     -5806.1492     -5746.2112      133.54292      43922.388      7.5120127    
      1710   303.09702     -5806.5498     -5746.411       136.78568      43916.255      7.5303484    
      1720   304.00126     -5806.9409     -5746.6227      134.85189      43911.725      7.5518254    
      1730   303.59263     -5807.0878     -5746.8506      151.53621      43908.689      7.5762101    
      1740   302.06245     -5807.0259     -5747.0924      195.35545      43907.213      7.6033071    
      1750   301.01406     -5807.0658     -5747.3403      200.59308      43907.512      7.6328214    
      1760   301.25051     -5807.3624     -5747.59        194.04652      43909.548      7.6641708    
      1770   301.59898     -5807.6851     -5747.8435      159.47103      43913.107      7.6966484    
      1780   301.46598     -5807.9176     -5748.1024      149.97152      43917.857      7.729346     
      1790   301.38491     -5808.163      -5748.3639      162.18162      43923.659      7.7615576    
      1800   301.30804     -5808.4131     -5748.6293      163.71127      43930.523      7.7929208    
      1810   300.43789     -5808.509      -5748.8979      136.86163      43938.355      7.8232486    
      1820   298.62289     -5808.4164     -5749.1653      131.26517      43946.915      7.8523665    
      1830   296.84683     -5808.3263     -5749.4276      113.9003       43956.085      7.8800983    
      1840   296.49507     -5808.5032     -5749.6743      88.30449       43965.687      7.9062884    
      1850   298.13593     -5809.0631     -5749.9087      20.697841      43975.423      7.9309364    
      1860   300.75328     -5809.8109     -5750.1372     -48.017173      43984.764      7.9540743    
      1870   302.86982     -5810.4646     -5750.3709     -109.17857      43993.125      7.9758524    
      1880   303.44561     -5810.826      -5750.6181     -123.8151       44000.06       7.9965577    
      1890   302.17438     -5810.8334     -5750.8776     -101.56993      44005.53       8.0165821    
      1900   299.26771     -5810.521      -5751.142      -69.823409      44009.789      8.0362307    
      1910   295.57388     -5810.0446     -5751.3985     -22.932073      44013.194      8.0557668    
      1920   291.95667     -5809.5648     -5751.6364      10.639847      44016.174      8.0755195    
      1930   289.0687      -5809.1927     -5751.8374      28.125134      44019.048      8.0955744    
      1940   287.61437     -5809.0635     -5751.9967      41.211622      44022.004      8.1157565    
      1950   288.31477     -5809.3129     -5752.1071      35.739361      44025.163      8.1359919    
      1960   291.33182     -5809.9794     -5752.175      -8.4209009      44028.43       8.1560509    
      1970   295.62984     -5810.866      -5752.2088     -65.666781      44031.425      8.1755455    
      1980   299.44966     -5811.639      -5752.2239     -135.5473       44033.64       8.1939384    
      1990   301.12413     -5811.9822     -5752.2348     -162.42457      44034.566      8.2104778    
      2000   300.36969     -5811.8456     -5752.2479     -171.78103      44033.996      8.2245376    
      2010   298.78631     -5811.5453     -5752.2618     -127.82688      44032.011      8.2358411    
      2020   298.58018     -5811.5149     -5752.2723     -113.55864      44028.98       8.2447605    
      2030   300.45604     -5811.8936     -5752.2788     -113.10912      44025.109      8.251896     
      2040   303.25098     -5812.4575     -5752.2882     -134.87844      44020.423      8.2578117    
      2050   305.71369     -5812.968      -5752.31       -176.52811      44014.761      8.2628391    
      2060   307.1485      -5813.3002     -5752.3575     -214.47003      44007.861      8.2672028    
      2070   307.03727     -5813.3555     -5752.4349     -274.00079      43999.422      8.2710757    
      2080   305.25953     -5813.1079     -5752.54       -316.05411      43989.026      8.2746665    
      2090   302.33        -5812.6531     -5752.6665     -323.64734      43976.438      8.278405     
      2100   298.78946     -5812.0876     -5752.8035     -331.88312      43961.653      8.2825185    
      2110   294.94104     -5811.4534     -5752.9328     -315.5153       43944.734      8.2867834    
      2120   292.07196     -5810.9949     -5753.0436     -305.07325      43925.91       8.2909473    
      2130   291.06567     -5810.8766     -5753.125      -290.26316      43905.374      8.2948218    
      2140   290.95978     -5810.9022     -5753.1716     -250.53108      43883.364      8.2983264    
      2150   290.63256     -5810.8499     -5753.1842     -182.44914      43860.316      8.301622     
      2160   290.04572     -5810.7067     -5753.1574     -102.37786      43836.862      8.3050014    
      2170   289.48104     -5810.5302     -5753.093       2.0546826      43813.752      8.3087908    
      2180   289.14474     -5810.3555     -5752.985       96.757553      43791.838      8.3133981    
      2190   289.51895     -5810.2793     -5752.8346      143.52632      43771.861      8.3191566    
      2200   291.1361      -5810.4071     -5752.6415      157.14487      43754.143      8.3261315    
      2210   293.8552      -5810.7206     -5752.4155      135.95821      43738.675      8.3340635    
      2220   296.91363     -5811.0732     -5752.1613      110.1563       43725.186      8.3423255    
      2230   299.79985     -5811.3794     -5751.8948      65.864218      43713.315      8.3502733    
      2240   302.50221     -5811.6478     -5751.6271      34.024804      43702.621      8.3575559    
      2250   304.29605     -5811.7441     -5751.3674      2.9344527      43692.747      8.3643057    
      2260   304.55365     -5811.5544     -5751.1266     -17.928218      43683.386      8.3708639    
      2270   303.53193     -5811.1282     -5750.9031     -9.2280321      43674.35       8.3775932    
      2280   301.86928     -5810.5902     -5750.695       36.894663      43665.696      8.3848244    
      2290   300.66784     -5810.1544     -5750.4976      91.534159      43657.777      8.3928973    
      2300   300.84571     -5809.9969     -5750.3049      123.70288      43651.016      8.402303     
      2310   302.29183     -5810.0911     -5750.112       154.78425      43645.668      8.413426     
      2320   303.95184     -5810.2405     -5749.9321      191.39784      43641.933      8.4265926    
      2330   304.90303     -5810.2614     -5749.7642      202.30678      43640.006      8.4420929    
      2340   305.13005     -5810.1603     -5749.6181      231.55643      43639.956      8.4598466    
      2350   305.3561      -5810.0779     -5749.4909      220.67626      43641.889      8.4795123    
      2360   305.83517     -5810.068      -5749.3859      184.68679      43645.664      8.5003876    
      2370   306.68438     -5810.1519     -5749.3013      141.74724      43650.91       8.5215674    
      2380   308.29951     -5810.4159     -5749.2449      87.582377      43657.169      8.5420066    
      2390   310.44504     -5810.8202     -5749.2234      8.8206664      43663.909      8.5607159    
      2400   312.37826     -5811.2234     -5749.2431     -48.54363       43670.482      8.5767522    
      2410   313.60377     -5811.5376     -5749.3141     -89.162597      43676.362      8.5894042    
      2420   313.85509     -5811.7174     -5749.4441     -92.053094      43681.248      8.5982158    
      2430   312.77587     -5811.6896     -5749.6304     -77.883564      43685.116      8.6032179    
      2440   310.684       -5811.5134     -5749.8693     -50.869533      43688.123      8.6049857    
      2450   308.06845     -5811.275      -5750.1498     -17.54027       43690.567      8.6044733    
      2460   305.11257     -5810.996      -5750.4573      4.839887       43692.753      8.6029332    
      2470   302.31668     -5810.7656     -5750.7817      34.617815      43694.924      8.6017363    
      2480   300.6663      -5810.7642     -5751.1077      34.569369      43697.291      8.6018996    
      2490   300.04744     -5810.9659     -5751.4322      3.5634427      43699.851      8.6037857    
      2500   298.94959     -5811.0681     -5751.7522     -41.231138      43702.33       8.6070266    
      2510   296.59623     -5810.9106     -5752.0617     -54.020154      43704.368      8.610941     
      2520   293.705       -5810.6257     -5752.3505     -52.971017      43705.838      8.6149014    
      2530   290.92289     -5810.3324     -5752.6091     -30.142238      43706.799      8.6183656    
      2540   288.74459     -5810.1222     -5752.8311     -29.68403       43707.431      8.620746     
      2550   287.73697     -5810.0984     -5753.0073     -37.674639      43707.762      8.6213452    
      2560   288.23442     -5810.3276     -5753.1378     -44.899316      43707.73       8.6196713    
      2570   290.10308     -5810.7854     -5753.2248     -52.345018      43707.302      8.6154795    
      2580   292.78464     -5811.3669     -5753.2743     -57.90797       43706.438      8.6087876    
      2590   296.15752     -5812.0624     -5753.3005     -100.47307      43705.058      8.5995644    
      2600   300.19765     -5812.8746     -5753.3111     -133.22632      43702.869      8.5876781    
      2610   303.82246     -5813.6089     -5753.3262     -199.27571      43699.539      8.5730022    
      2620   305.72731     -5814.0135     -5753.3529     -232.05641      43694.623      8.5553875    
      2630   305.54154     -5814.0289     -5753.4051     -218.29794      43687.896      8.5349652    
      2640   303.5977      -5813.7188     -5753.4806     -177.88445      43679.503      8.5124599    
      2650   300.86343     -5813.2657     -5753.5701     -115.57264      43669.865      8.4889987    
      2660   298.65022     -5812.916      -5753.6595     -31.528513      43659.589      8.4658104    
      2670   297.7393      -5812.8197     -5753.744       61.607497      43649.42       8.4440155    
      2680   297.83021     -5812.9127     -5753.8189      147.91849      43640.148      8.4245214    
      2690   298.22348     -5813.0581     -5753.8863      208.61996      43632.495      8.4078923    
      2700   298.33877     -5813.1423     -5753.9476      251.03386      43626.933      8.3943891    
      2710   298.26633     -5813.1826     -5754.0023      270.35564      43623.744      8.3839276    
      2720   298.55823     -5813.2892     -5754.051       265.12259      43623.025      8.3761393    
      2730   299.44255     -5813.5078     -5754.0941      229.07995      43624.626      8.3706431    
      2740   300.33066     -5813.7257     -5754.1358      195.91616      43628.208      8.3670363    
      2750   300.51358     -5813.803      -5754.1768      178.13921      43633.424      8.3650337    
      2760   299.85746     -5813.7166     -5754.2205      155.68751      43640.02       8.3644484    
      2770   298.57825     -5813.5023     -5754.2601      123.10398      43647.73       8.3651717    
      2780   296.70231     -5813.1647     -5754.2947      122.41488      43656.285      8.3671507    
      2790   294.60808     -5812.7695     -5754.3151      119.46537      43665.618      8.3704514    
      2800   293.19925     -5812.4919     -5754.317       116.57721      43675.691      8.374936     
      2810   293.18765     -5812.4652     -5754.2926      94.993392      43686.437      8.3802464    
      2820   294.4009      -5812.6534     -5754.2401      36.164843      43697.636      8.3858999    
      2830   296.04        -5812.9061     -5754.1676     -16.828499      43708.824      8.3914003    
      2840   297.55356     -5813.1152     -5754.0763     -69.991447      43719.506      8.3962593    
      2850   298.8276      -5813.2679     -5753.9763     -131.07136      43729.206      8.3999728    
      2860   299.78092     -5813.3496     -5753.8688     -165.76729      43737.459      8.4020735    
      2870   299.94504     -5813.2738     -5753.7604     -189.97869      43743.961      8.4023931    
      2880   299.50536     -5813.0786     -5753.6525     -185.72157      43748.593      8.4009161    
      2890   299.02469     -5812.8728     -5753.542      -171.00352      43751.439      8.3977908    
      2900   298.25078     -5812.6055     -5753.4282     -147.77035      43752.681      8.3933396    
      2910   296.60548     -5812.1583     -5753.3075     -115.3888       43752.567      8.3880475    
      2920   294.63526     -5811.6324     -5753.1726     -52.183942      43751.459      8.3825021    
      2930   293.58758     -5811.2717     -5753.0197      18.107344      43749.931      8.3775368    
      2940   293.94872     -5811.1641     -5752.8404      74.107826      43748.606      8.3741608    
      2950   295.2107      -5811.212      -5752.638       110.17753      43747.976      8.3734708    
      2960   296.43558     -5811.234      -5752.4169      157.71612      43748.37       8.3765164    
      2970   297.09712     -5811.1304     -5752.182       226.25918      43750.175      8.3841007    
      2980   297.7936      -5811.0231     -5751.9366      310.89437      43753.978      8.3968014    
      2990   298.80444     -5810.9729     -5751.6858      371.9655       43760.428      8.4150264    
      3000   299.79869     -5810.9128     -5751.4285      449.22962      43770.021      8.4390621    
      3010   300.65358     -5810.8301     -5751.1761      493.59963      43783.3        8.4693213    
      3020   301.71609     -5810.7949     -5750.9301      510.40165      43800.6        8.5059556    
      3030   302.80762     -5810.7733     -5750.6919      504.5835       43821.979      8.5487211    
      3040   303.50302     -5810.6865     -5750.4672      468.51637      43847.265      8.5970866    
      3050   303.47825     -5810.4734     -5750.259       389.73742      43876.006      8.6503178    
      3060   302.91793     -5810.1672     -5750.064       303.89489      43907.457      8.7074662    
      3070   302.69297     -5809.938      -5749.8794      210.42088      43940.777      8.7677063    
      3080   303.98178     -5810.0211     -5749.7068      66.731082      43975.02       8.8302342    
      3090   306.77911     -5810.4144     -5749.5451     -106.82083      44008.915      8.8939589    
      3100   309.90112     -5810.8953     -5749.4064     -258.64461      44040.944      8.9575895    
      3110   311.97931     -5811.2054     -5749.3043     -412.98724      44069.727      9.0197272    
      3120   312.14025     -5811.1813     -5749.2482     -539.27501      44093.97       9.0789628    
      3130   310.13859     -5810.7751     -5749.2392     -589.84117      44112.698      9.1340598    
      3140   306.13116     -5810.0145     -5749.2737     -588.45635      44125.587      9.1842099    
      3150   300.66405     -5808.9873     -5749.3313     -551.76613      44132.816      9.2287072    
      3160   295.27966     -5807.978      -5749.3903     -489.19787      44134.859      9.2668729    
      3170   292.00718     -5807.369      -5749.4306     -429.82657      44132.412      9.2984193    
      3180   291.60432     -5807.3005     -5749.4421     -390.47498      44126.157      9.3234147    
      3190   292.83844     -5807.5243     -5749.421      -348.25574      44116.572      9.34208      
      3200   294.22612     -5807.751      -5749.3723     -289.57526      44104.145      9.3546421    
      3210   295.8252      -5807.9963     -5749.3004     -250.58417      44089.431      9.3615964    
      3220   298.35059     -5808.4098     -5749.2128     -226.78025      44072.87       9.3634561    
      3230   301.529       -5808.9459     -5749.1183     -217.09166      44054.738      9.3607133    
      3240   303.94044     -5809.3356     -5749.0294     -197.98261      44035.168      9.3538715    
      3250   304.63663     -5809.3993     -5748.955      -179.15184      44014.38       9.3434617    
      3260   304.23989     -5809.2645     -5748.899      -154.29948      43992.594      9.3298943    
      3270   303.90364     -5809.1598     -5748.861      -153.55877      43970.016      9.3134771    
      3280   303.95195     -5809.147      -5748.8386     -154.24612      43946.678      9.2943152    
      3290   303.98714     -5809.1481     -5748.8327     -126.71621      43922.611      9.2724349    
      3300   304.24619     -5809.2078     -5748.841      -66.017104      43898.099      9.2482477    
      3310   305.39906     -5809.4626     -5748.8671      27.777486      43873.719      9.222628     
      3320   307.53318     -5809.9332     -5748.9142      131.18697      43850.264      9.1969229    
      3330   309.78512     -5810.4576     -5748.9918      244.15358      43828.618      9.1726038    
      3340   311.2299      -5810.8597     -5749.1073      384.62482      43809.774      9.1511691    
      3350   311.79964     -5811.1362     -5749.2707      536.07542      43794.886      9.1339738    
      3360   311.86497     -5811.3604     -5749.4819      646.409        43785.147      9.1222796    
      3370   311.80631     -5811.609      -5749.7422      699.2413       43781.37       9.1168788    
      3380   311.1852      -5811.7969     -5750.0533      703.61719      43783.875      9.1180371    
      3390   309.36396     -5811.787      -5750.4047      658.92411      43792.569      9.1256282    
      3400   306.89117     -5811.6808     -5750.7892      587.04107      43806.925      9.1390339    
      3410   304.9768      -5811.7013     -5751.1895      464.62084      43826.133      9.1574048    
      3420   304.01015     -5811.9188     -5751.5989      315.06825      43849.008      9.1794018    
      3430   303.35108     -5812.2004     -5752.0112      147.33844      43874.133      9.2031771    
      3440   302.21509     -5812.3843     -5752.4205     -27.305095      43899.977      9.226553     
      3450   300.59855     -5812.4623     -5752.8192     -195.23265      43924.964      9.2473128    
      3460   298.78396     -5812.4905     -5753.2075     -332.99879      43947.633      9.2634662    
      3470   296.81392     -5812.4659     -5753.5738     -437.41217      43966.797      9.2734666    
      3480   295.0235      -5812.4531     -5753.9162     -521.87849      43981.585      9.2762878    
      3490   293.72264     -5812.5095     -5754.2307     -590.61011      43991.345      9.271397     
      3500   292.95652     -5812.6447     -5754.5179     -622.51688      43995.586      9.2584768    
      3510   292.71546     -5812.8538     -5754.7748     -630.2841       43994.114      9.2374231    
      3520   293.37348     -5813.213      -5755.0035     -616.4111       43986.986      9.2082976    
      3530   294.45011     -5813.6334     -5755.2103     -564.35587      43974.493      9.1713072    
      3540   294.79363     -5813.8883     -5755.397      -478.16565      43957.221      9.1270024    
      3550   293.71157     -5813.8389     -5755.5623     -329.24266      43936.09       9.0764708    
      3560   291.85231     -5813.6078     -5755.7001     -147.42545      43912.503      9.0215081    
      3570   290.17035     -5813.3771     -5755.8031      22.259465      43888.112      8.9643544    
      3580   289.37669     -5813.2808     -5755.8643      159.49654      43864.43       8.9073708    
      3590   289.35113     -5813.2958     -5755.8844      281.83423      43842.697      8.8525867    
      3600   289.59462     -5813.3196     -5755.8599      382.92617      43823.949      8.8018043    
      3610   289.7277      -5813.28       -5755.7939      443.1712       43809.019      8.7567745    
      3620   289.62855     -5813.1537     -5755.6872      476.98955      43798.375      8.7190692    
      3630   289.19009     -5812.9204     -5755.541       494.36171      43792.222      8.6898188    
      3640   288.76147     -5812.649      -5755.3546      484.53893      43790.61       8.6696347    
      3650   289.3546      -5812.5406     -5755.1286      429.25482      43793.318      8.6584207    
      3660   291.54297     -5812.7084     -5754.8621      333.5217       43799.762      8.6552587    
      3670   294.91469     -5813.0812     -5754.5659      221.96532      43809.05       8.6588608    
      3680   298.74108     -5813.5269     -5754.2523      108.42305      43820.121      8.6677735    
      3690   302.37127     -5813.9279     -5753.9331      11.670034      43831.956      8.6805345    
      3700   305.07992     -5814.1575     -5753.6252     -45.096792      43843.694      8.6957363    
      3710   306.46274     -5814.1483     -5753.3417     -66.142918      43854.815      8.7121907    
      3720   306.80411     -5813.9623     -5753.0879     -50.4471        43865.15       8.7288979    
      3730   306.82545     -5813.7444     -5752.8658     -13.172009      43874.841      8.7450407    
      3740   307.00084     -5813.5869     -5752.6736      32.022004      43884.232      8.7601302    
      3750   307.16653     -5813.4606     -5752.5143      78.598291      43893.732      8.774071     
      3760   306.89649     -5813.2775     -5752.3848      107.34245      43903.746      8.7870429    
      3770   306.11299     -5813.0171     -5752.2799      143.28377      43914.564      8.7992593    
      3780   304.87365     -5812.6937     -5752.2024      170.82765      43926.483      8.8108288    
      3790   303.35211     -5812.3323     -5752.1429      200.03525      43939.745      8.8214371    
      3800   302.05642     -5812.0258     -5752.0934      204.27212      43954.548      8.8307299    
      3810   301.01314     -5811.7771     -5752.0518      201.13641      43970.921      8.8386603    
      3820   299.95266     -5811.5255     -5752.0106      187.56983      43988.803      8.8457302    
      3830   298.63929     -5811.2212     -5751.9669      159.24325      44008.042      8.8528464    
      3840   296.99661     -5810.8458     -5751.9174      128.11495      44028.366      8.8608617    
      3850   295.61758     -5810.5118     -5751.8571      90.57415       44049.48       8.8703241    
      3860   295.32805     -5810.3752     -5751.7779      23.264844      44071.016      8.8812283    
      3870   296.53701     -5810.5166     -5751.6794     -71.310181      44092.35       8.8929999    
      3880   299.15233     -5810.9216     -5751.5655     -152.64721      44112.661      8.9048243    
      3890   302.52053     -5811.4739     -5751.4495     -225.57678      44131.24       8.9159607    
      3900   305.59346     -5811.973      -5751.3389     -302.0825       44147.439      8.9256584    
      3910   307.0853      -5812.1803     -5751.2502     -342.4404       44160.634      8.933137     
      3920   306.48332     -5812.0016     -5751.1909     -334.88189      44170.512      8.9377615    
      3930   304.64534     -5811.6024     -5751.1564     -315.51244      44177.158      8.9391075    
      3940   302.79679     -5811.2194     -5751.1401     -296.05428      44180.824      8.9369218    
      3950   301.37351     -5810.9366     -5751.1398     -309.87408      44181.701      8.9311148    
      3960   300.37769     -5810.7437     -5751.1444     -313.62378      44179.75       8.9214898    
      3970   300.19962     -5810.7202     -5751.1563     -311.35686      44174.962      8.9078463    
      3980   300.64051     -5810.822      -5751.1706     -317.15197      44167.377      8.890186     
      3990   300.95633     -5810.9022     -5751.1882     -316.89611      44157.008      8.86873      
      4000   300.64517     -5810.8641     -5751.2118     -308.15388      44143.919      8.844085     
      4010   299.67882     -5810.7004     -5751.2399     -286.21337      44128.245      8.8171438    
      4020   298.11823     -5810.4148     -5751.2639     -234.28881      44110.235      8.7889024    
      4030   296.47601     -5810.1061     -5751.281      -177.45246      44090.404      8.7605966    
      4040   295.68387     -5809.9519     -5751.284      -93.628843      44069.329      8.7335105    
      4050   296.22763     -5810.0449     -5751.2691     -21.243223      44047.743      8.7090976    
      4060   298.06668     -5810.3778     -5751.2371      51.376842      44026.342      8.688566     
      4070   300.83251     -5810.8843     -5751.1948      101.05012      44005.753      8.6727065    
      4080   303.85632     -5811.4431     -5751.1537      134.81563      43986.41       8.6618624    
      4090   306.20463     -5811.8789     -5751.1235      196.25493      43968.662      8.6560477    
      4100   307.78558     -5812.1829     -5751.1138      266.48147      43953.015      8.6553599    
      4110   309.71059     -5812.5835     -5751.1325      313.40167      43940.037      8.6598797    
      4120   312.49696     -5813.1969     -5751.193       314.64929      43930.077      8.669353     
      4130   314.71002     -5813.7484     -5751.3054      277.80703      43923.107      8.6831202    
      4140   315.15756     -5814.0121     -5751.4803      210.63058      43918.747      8.7001111    
      4150   313.50645     -5813.9224     -5751.7182      142.62232      43916.344      8.7191093    
      4160   310.09304     -5813.5378     -5752.0109      82.362222      43915.273      8.7390125    
      4170   305.95513     -5813.0431     -5752.3372      18.514189      43914.954      8.7588282    
      4180   302.37899     -5812.6718     -5752.6754     -28.402919      43914.828      8.777537     
      4190   299.98799     -5812.5315     -5753.0096     -67.529681      43914.461      8.79425      
      4200   298.41277     -5812.5403     -5753.3309     -118.9068       43913.472      8.8082742    
      4210   296.82869     -5812.5304     -5753.6353     -152.34547      43911.442      8.8189736    
      4220   294.60844     -5812.3693     -5753.9147     -157.98592      43908.086      8.826161     
      4230   291.77691     -5812.0565     -5754.1638     -136.92629      43903.388      8.8299799    
      4240   289.2805      -5811.7734     -5754.376      -105.66652      43897.543      8.8308581    
      4250   288.1336      -5811.7141     -5754.5443     -88.826711      43890.818      8.8295035    
      4260   288.71845     -5811.95       -5754.6641     -89.194934      43883.377      8.8267639    
      4270   290.5164      -5812.3857     -5754.7431     -80.776889      43875.258      8.8234177    
      4280   293.01417     -5812.9259     -5754.7877     -70.442527      43866.547      8.820046     
      4290   295.87487     -5813.5085     -5754.8027     -49.826038      43857.352      8.8168945    
      4300   298.75533     -5814.0791     -5754.8018     -13.82158       43847.858      8.814035     
      4310   301.43404     -5814.601      -5754.7921      10.161292      43838.367      8.8115134    
      4320   303.31718     -5814.9716     -5754.7891      48.727917      43829.137      8.8094998    
      4330   303.78869     -5815.0734     -5754.7973      103.22923      43820.508      8.8085069    
      4340   303.09742     -5814.9606     -5754.8217      168.22996      43812.94       8.8092145    
      4350   302.01977     -5814.7815     -5754.8564      215.86369      43806.964      8.8122561    
      4360   301.12908     -5814.6504     -5754.9021      223.91828      43802.962      8.818001     
      4370   300.35116     -5814.5464     -5754.9524      208.17861      43800.998      8.8263613    
      4380   299.66556     -5814.4625     -5755.0046      169.19755      43800.916      8.8369573    
      4390   299.0351      -5814.3904     -5755.0575      120.9913       43802.356      8.8491043    
      4400   298.14608     -5814.2637     -5755.1072      98.597302      43804.897      8.8620457    
      4410   297.08457     -5814.0959     -5755.1501      91.424981      43808.296      8.8753272    
      4420   296.11627     -5813.937      -5755.1833      95.70474       43812.471      8.8888704    
      4430   295.18535     -5813.7719     -5755.2028      103.61647      43817.444      8.903043     
      4440   294.1536      -5813.5657     -5755.2014      147.73562      43823.315      8.9184757    
      4450   293.3306      -5813.3804     -5755.1794      201.77467      43830.449      8.9358799    
      4460   293.3746      -5813.3434     -5755.1337      249.48753      43839.302      8.9560111    
      4470   294.70706     -5813.5334     -5755.0593      268.46517      43850.265      8.9794641    
      4480   296.77181     -5813.8477     -5754.9639      288.6243       43863.518      9.0065622    
      4490   298.73341     -5814.1249     -5754.8519      273.03893      43879.169      9.0374574    
      4500   299.47319     -5814.1531     -5754.7333      247.84571      43897.078      9.0720511    
      4510   297.86733     -5813.7078     -5754.6066      241.58074      43917.032      9.1102252    
      4520   293.61147     -5812.7289     -5754.4722      264.65445      43938.978      9.1520494    
      4530   288.33705     -5811.5222     -5754.312       257.0435       43963.035      9.1979543    
      4540   285.16825     -5810.6927     -5754.1113      212.57689      43989.114      9.2481372    
      4550   285.78101     -5810.5587     -5753.8557      97.157905      44016.755      9.3023491    
      4560   289.38204     -5810.9656     -5753.548      -82.360016      44044.894      9.359575     
      4570   293.85999     -5811.5079     -5753.2019     -278.24756      44071.943      9.4180276    
      4580   297.93796     -5811.9565     -5752.8414     -458.49023      44096.15       9.4754808    
      4590   301.0539      -5812.2231     -5752.4897     -598.77826      44115.907      9.5297062    
      4600   302.83357     -5812.2491     -5752.1626     -674.56667      44130.009      9.5786435    
      4610   303.93223     -5812.1741     -5751.8696     -673.82234      44137.852      9.6204789    
      4620   305.24992     -5812.1766     -5751.6107     -625.53258      44139.492      9.6540417    
      4630   306.96612     -5812.2982     -5751.3917     -553.7792       44135.415      9.6786542    
      4640   308.40755     -5812.4026     -5751.2101     -466.9804       44126.335      9.6940591    
      4650   308.92897     -5812.3667     -5751.0708     -331.02758      44113.135      9.7006551    
      4660   308.29544     -5812.1444     -5750.9742     -175.01349      44097.091      9.699483     
      4670   306.75004     -5811.7767     -5750.9131     -37.528086      44079.617      9.6919514    
      4680   304.72505     -5811.3413     -5750.8795      62.671448      44061.968      9.679678     
      4690   303.16905     -5811.0187     -5750.8656      128.87382      44045.063      9.664381     
      4700   302.56078     -5810.8971     -5750.8647      152.65564      44029.486      9.6474429    
      4710   302.63189     -5810.9198     -5750.8733      145.99466      44015.448      9.6298129    
      4720   302.69284     -5810.9509     -5750.8923      138.031        44002.892      9.6118783    
      4730   301.96072     -5810.8326     -5750.9193      153.51406      43991.745      9.5934414    
      4740   300.20361     -5810.5199     -5750.9552      208.15184      43982.128      9.5741349    
      4750   298.39295     -5810.1984     -5750.9929      259.57678      43974.472      9.5539571    
      4760   298.03513     -5810.1606     -5751.0262      304.80108      43969.255      9.5330465    
      4770   299.76546     -5810.5353     -5751.0575      308.00696      43966.827      9.5114582    
      4780   302.83704     -5811.1798     -5751.0926      278.54209      43967.195      9.4890387    
      4790   305.83882     -5811.8251     -5751.1423      230.50888      43970.075      9.4653696    
      4800   307.84993     -5812.303      -5751.2211      201.63573      43975.052      9.4400314    
      4810   308.1566      -5812.4821     -5751.3394      204.17253      43981.85       9.4130655    
      4820   306.70542     -5812.3502     -5751.4955      192.35632      43990.418      9.3851281    
      4830   304.08365     -5812.0214     -5751.6868      186.44717      44000.676      9.3570297    
      4840   301.17157     -5811.6588     -5751.9021      182.89886      44012.568      9.3296306    
      4850   298.76975     -5811.4091     -5752.1289      154.34184      44025.995      9.3037402    
      4860   297.28765     -5811.3398     -5752.3537      115.61103      44040.693      9.2799682    
      4870   297.05428     -5811.5087     -5752.5688      39.552024      44056.28       9.2587453    
      4880   298.47876     -5812.0009     -5752.7784     -66.134074      44072.061      9.2399731    
      4890   301.22305     -5812.7516     -5752.9846     -210.70161      44087.051      9.2230818    
      4900   303.68141     -5813.4521     -5753.1974     -342.4332       44099.997      9.2072431    
      4910   304.30009     -5813.8041     -5753.4266     -416.6754       44109.761      9.1916444    
      4920   303.05414     -5813.8022     -5753.672      -472.1541       44115.642      9.1757604    
      4930   301.03842     -5813.6576     -5753.9273     -514.86587      44117.178      9.1591908    
      4940   298.75923     -5813.458      -5754.1799     -526.48893      44114.034      9.1415823    
      4950   296.26198     -5813.2006     -5754.4179     -498.95307      44106.127      9.1229362    
      4960   294.02997     -5812.9709     -5754.6312     -436.50096      44093.759      9.103642     
      4970   292.44682     -5812.8369     -5754.8113     -380.05902      44077.504      9.0841104    
      4980   291.67076     -5812.8248     -5754.9532     -312.78954      44057.932      9.0645448    
      4990   291.4859      -5812.8922     -5755.0572     -257.30951      44035.632      9.0451735    
      5000   291.22021     -5812.905      -5755.1228     -180.25551      44011.161      9.0260998    
      5010   290.41885     -5812.7728     -5755.1496     -79.043157      43985.241      9.007486     
      5020   289.16674     -5812.5135     -5755.1387      43.581574      43958.8        8.9896708    
      5030   288.0509      -5812.2382     -5755.0847      158.53961      43932.944      8.9733065    
      5040   288.13208     -5812.158      -5754.9884      234.85885      43908.689      8.9590351    
      5050   290.22641     -5812.4323     -5754.8472      260.93062      43886.685      8.9471903    
      5060   293.69219     -5812.9457     -5754.6729      299.58139      43867.218      8.9380722    
      5070   297.20948     -5813.447      -5754.4764      317.17477      43850.558      8.9321909    
      5080   300.53617     -5813.903      -5754.2723      328.90856      43836.861      8.9299683    
      5090   303.48771     -5814.2922     -5754.0759      326.30597      43826.187      8.9317725    
      5100   305.42493     -5814.5032     -5753.9025      340.03995      43818.519      8.9379432    
      5110   305.85474     -5814.4427     -5753.7568      380.91565      43813.999      8.94895      
      5120   305.0306      -5814.1659     -5753.6435      409.43302      43812.928      8.9651676    
      5130   303.61875     -5813.8008     -5753.5585      421.90883      43815.544      8.9865769    
      5140   302.15236     -5813.4445     -5753.4931      404.67178      43821.925      9.0128502    
      5150   300.9721      -5813.1599     -5753.4427      362.06244      43831.884      9.0432755    
      5160   300.22802     -5812.968      -5753.3985      306.17025      43845.056      9.0769979    
      5170   299.96762     -5812.879      -5753.3612      204.09141      43860.904      9.1130577    
      5180   300.16538     -5812.8805     -5753.3234      78.388227      43878.517      9.1501873    
      5190   300.56404     -5812.9266     -5753.2904     -57.511989      43896.772      9.1868287    
      5200   300.73595     -5812.9281     -5753.2578     -166.5565       43914.469      9.221192     
      5210   300.059       -5812.767      -5753.231      -255.70338      43930.594      9.2517014    
      5220   298.41829     -5812.4176     -5753.2071     -306.63433      43944.388      9.2771882    
      5230   296.25673     -5811.9598     -5753.1783     -333.51482      43955.379      9.2968509    
      5240   293.88292     -5811.4526     -5753.1421     -339.43187      43963.315      9.3104505    
      5250   291.39609     -5810.907      -5753.0898     -308.42259      43968.176      9.3182065    
      5260   289.42415     -5810.4445     -5753.0186     -266.92783      43970.223      9.320711     
      5270   288.53872     -5810.1731     -5752.9229     -206.54635      43969.845      9.3186489    
      5280   288.81748     -5810.1156     -5752.8101     -143.47026      43967.579      9.3126771    
      5290   290.17993     -5810.2548     -5752.6789     -103.36457      43963.973      9.3032384    
      5300   291.85148     -5810.4489     -5752.5413     -40.37978       43959.449      9.2905097    
      5310   292.95267     -5810.5272     -5752.4012      14.039536      43954.532      9.2748273    
      5320   293.14198     -5810.4232     -5752.2597      58.112356      43949.716      9.2566938    
      5330   292.70662     -5810.1951     -5752.1179      119.96084      43945.471      9.2367278    
      5340   292.03203     -5809.9146     -5751.9712      179.31719      43942.329      9.2158664    
      5350   291.59595     -5809.671      -5751.8142      221.15216      43940.808      9.1951033    
      5360   292.04882     -5809.5916     -5751.6449      236.78991      43941.278      9.1752963    
      5370   293.66689     -5809.7292     -5751.4615      256.76118      43943.907      9.1570485    
      5380   296.54338     -5810.1097     -5751.2713      236.89455      43948.824      9.1407552    
      5390   300.46696     -5810.6986     -5751.0817      201.13929      43955.904      9.1266201    
      5400   304.3469      -5811.2904     -5750.9036      159.60803      43964.821      9.1149221    
      5410   306.80604     -5811.624      -5750.7493      142.70595      43975.226      9.1062012    
      5420   307.45534     -5811.6321     -5750.6285      135.4124       43986.95       9.1011666    
      5430   307.00304     -5811.4556     -5750.5418      128.51785      43999.921      9.1004884    
      5440   306.49581     -5811.2985     -5750.4853      131.89937      44014.094      9.1046929    
      5450   306.25355     -5811.2234     -5750.4583      124.1503       44029.498      9.1143346    
      5460   306.03397     -5811.1794     -5750.4579      97.716474      44046.067      9.1297593    
      5470   305.37836     -5811.0758     -5750.4844      61.958167      44063.57       9.1509916    
      5480   304.36641     -5810.9198     -5750.5291     -4.263432       44081.64       9.1778777    
      5490   303.59262     -5810.8334     -5750.5963     -65.652672      44099.725      9.2099679    
      5500   303.51792     -5810.903      -5750.6807     -135.39154      44117.27       9.2465026    
      5510   304.20099     -5811.1406     -5750.7828     -234.54827      44133.61       9.2864121    
      5520   305.06071     -5811.4347     -5750.9063     -359.53613      44147.83       9.3284295    
      5530   305.12046     -5811.5962     -5751.0559     -465.12382      44158.813      9.3711236    
      5540   303.10521     -5811.3713     -5751.2309     -504.27927      44165.619      9.4130051    
      5550   299.32657     -5810.8158     -5751.4251     -522.03632      44167.802      9.4528313    
      5560   295.75515     -5810.306      -5751.624      -486.59388      44165.221      9.4896962    
      5570   293.5833      -5810.0603     -5751.8092     -437.02421      44158.148      9.5233064    
      5580   292.79288     -5810.0742     -5751.9799     -373.32753      44147.053      9.5537575    
      5590   293.23018     -5810.3101     -5752.129      -302.37669      44132.508      9.5813939    
      5600   294.64274     -5810.7195     -5752.2581     -217.23744      44115.17       9.6067518    
      5610   296.19646     -5811.1443     -5752.3747     -147.81177      44095.772      9.630511     
      5620   297.19061     -5811.4493     -5752.4825     -58.445662      44074.993      9.6532109    
      5630   296.87444     -5811.4889     -5752.5848      37.170457      44053.629      9.6752718    
      5640   295.0327      -5811.2186     -5752.6799      145.26534      44032.56       9.6970332    
      5650   292.16774     -5810.7316     -5752.7613      288.69736      44012.798      9.7188654    
      5660   289.56835     -5810.2749     -5752.8204      423.52         43995.599      9.7414523    
      5670   288.60571     -5810.1079     -5752.8444      528.28399      43982.191      9.7653696    
      5680   289.64206     -5810.2965     -5752.8274      591.15277      43973.536      9.791042     
      5690   291.94866     -5810.6917     -5752.7649      611.28304      43970.225      9.8186623    
      5700   294.41033     -5811.0747     -5752.6595      614.04137      43972.482      9.8482298    
      5710   296.54005     -5811.3497     -5752.5119      583.05663      43980.336      9.8797447    
      5720   298.57501     -5811.5625     -5752.3209      519.33943      43993.525      9.9131585    
      5730   301.13736     -5811.8368     -5752.0868      412.80123      44011.47       9.9481915    
      5740   304.22936     -5812.1788     -5751.8154      278.40392      44033.26       9.9840118    
      5750   307.24601     -5812.481      -5751.5189      121.90284      44057.69       10.019318    
      5760   309.88373     -5812.7018     -5751.2164     -18.361735      44083.352      10.052581    
      5770   311.94601     -5812.8208     -5750.9262     -118.91136      44108.998      10.082355    
      5780   313.15733     -5812.804      -5750.6691     -211.62872      44133.665      10.107518    
      5790   313.5795      -5812.6699     -5750.4513     -289.50098      44156.5        10.127234    
      5800   313.54674     -5812.4949     -5750.2827     -340.25453      44176.781      10.140966    
      5810   313.45106     -5812.3616     -5750.1684     -367.10827      44194.023      10.148474    
      5820   313.21251     -5812.2502     -5750.1044     -392.51998      44207.956      10.149765    
      5830   312.71014     -5812.1404     -5750.0942     -384.54969      44218.376      10.144942    
      5840   311.71872     -5811.9902     -5750.1408     -368.75984      44225.329      10.134076    
      5850   310.01567     -5811.7515     -5750.2399     -350.39876      44228.923      10.116936    
      5860   308.10897     -5811.5226     -5750.3893     -356.7052       44229.249      10.09329     
      5870   306.81664     -5811.4629     -5750.5861     -367.89103      44226.27       10.062984    
      5880   305.91883     -5811.5233     -5750.8246     -371.60002      44219.874      10.025672    
      5890   304.45865     -5811.512      -5751.103      -359.64541      44210.026      9.9809534    
      5900   302.12321     -5811.3589     -5751.4133     -350.01616      44196.8        9.928827     
      5910   299.3315      -5811.1304     -5751.7387     -317.40544      44180.311      9.869646     
      5920   296.88603     -5810.9707     -5752.0643     -255.36591      44160.849      9.8042307    
      5930   295.10832     -5810.922      -5752.3683     -220.77383      44138.911      9.73389      
      5940   293.62629     -5810.9022     -5752.6426     -213.77521      44114.812      9.6598164    
      5950   291.85318     -5810.7832     -5752.8754     -163.59953      44088.7        9.5831526    
      5960   289.81052     -5810.5613     -5753.0587     -129.79722      44060.95       9.5053601    
      5970   288.20966     -5810.3763     -5753.1914     -59.265747      44031.951      9.4277786    
      5980   287.78053     -5810.369      -5753.2692      13.234258      44002.33       9.351826     
      5990   288.76826     -5810.5913     -5753.2955      57.153193      43972.727      9.2790085    
      6000   290.53661     -5810.9249     -5753.2783      96.477769      43943.591      9.2106457    
      6010   292.54854     -5811.2714     -5753.2255      135.74984      43915.285      9.1477617    
      6020   294.57094     -5811.5907     -5753.1436      170.97291      43888.154      9.0911703    
      6030   296.54778     -5811.887      -5753.0476      234.59754      43862.571      9.0414833    
      6040   298.37196     -5812.1396     -5752.9384      294.22623      43839.063      8.9991888    
      6050   299.79647     -5812.314      -5752.8301      353.63087      43818.196      8.9644216    
      6060   300.50699     -5812.3488     -5752.7239      400.91219      43800.498      8.9370576    
      6070   300.55261     -5812.259      -5752.6251      459.5022       43786.414      8.9166722    
      6080   300.36362     -5812.1298     -5752.5333      525.50383      43776.473      8.9029422    
      6090   300.77241     -5812.1232     -5752.4456      549.47748      43771.216      8.8957091    
      6100   302.52394     -5812.3927     -5752.3676      530.23009      43770.877      8.8946846    
      6110   304.6501      -5812.7476     -5752.3006      466.48361      43775.292      8.8994694    
      6120   305.57428     -5812.8867     -5752.2564      406.34071      43783.954      8.9097552    
      6130   305.15148     -5812.7802     -5752.2337      357.64969      43796.334      8.9256388    
      6140   304.24242     -5812.6        -5752.2339      300.64989      43811.996      8.9475634    
      6150   303.59385     -5812.4879     -5752.2505      209.09685      43830.424      8.9759181    
      6160   303.49352     -5812.4996     -5752.2822      121.58772      43850.854      9.0105928    
      6170   303.63543     -5812.5718     -5752.3262      24.060281      43872.476      9.051239     
      6180   303.40761     -5812.5872     -5752.3867     -54.048879      43894.43       9.0972147    
      6190   302.21043     -5812.4275     -5752.4646     -101.64461      43916.007      9.1477532    
      6200   300.22785     -5812.1257     -5752.5562     -122.7611       43936.768      9.2020429    
      6210   298.45592     -5811.8774     -5752.6595     -138.27065      43956.503      9.2592046    
      6220   297.87071     -5811.8749     -5752.7731     -174.95696      43975.039      9.3182306    
      6230   298.58439     -5812.1455     -5752.9021     -221.6831       43992.051      9.3779603    
      6240   299.68665     -5812.5198     -5753.0577     -282.31989      44007.088      9.4371065    
      6250   300.22353     -5812.8362     -5753.2675     -324.38857      44019.619      9.4941024    
      6260   299.70514     -5813.0145     -5753.5487     -352.61963      44029.242      9.5473984    
      6270   298.24436     -5813.1006     -5753.9246     -368.49044      44035.699      9.5956681    
      6280   296.25322     -5813.1694     -5754.3886     -381.32317      44038.807      9.6377925    
      6290   294.15038     -5813.2727     -5754.9091     -386.50407      44038.443      9.6730148    
      6300   292.11949     -5813.3932     -5755.4325     -398.59963      44034.545      9.7010166    
      6310   290.07212     -5813.4635     -5755.909      -379.48911      44027.033      9.7216508    
      6320   288.22845     -5813.4965     -5756.3078     -349.07443      44016.024      9.7351584    
      6330   286.84588     -5813.5327     -5756.6184     -287.61826      44001.808      9.7420552    
      6340   285.50251     -5813.4891     -5756.8413     -198.9633       43984.925      9.7431356    
      6350   283.97288     -5813.3335     -5756.9892     -82.84392       43966.164      9.7394178    
      6360   282.95163     -5813.2017     -5757.06        36.262012      43946.571      9.7321939    
      6370   283.65702     -5813.3474     -5757.0658      154.47853      43927.243      9.7229199    
      6380   286.2599      -5813.8077     -5757.0097      263.18141      43909.246      9.7132903    
      6390   289.76046     -5814.3973     -5756.9047      364.99614      43893.572      9.7052789    
      6400   292.96254     -5814.8903     -5756.7623      470.70537      43881.155      9.70089      
      6410   295.25015     -5815.1766     -5756.5948      573.05464      43872.968      9.7020042    
      6420   296.4237      -5815.2312     -5756.4165      646.66869      43869.919      9.710357     
      6430   296.91848     -5815.1426     -5756.2297      673.9209       43872.683      9.7271145    
      6440   297.59236     -5815.0829     -5756.0363      669.63102      43881.578      9.7526314    
      6450   299.28798     -5815.2246     -5755.8416      566.50309      43896.507      9.7866288    
      6460   301.75384     -5815.5201     -5755.6479      422.57717      43916.651      9.8279094    
      6470   303.74997     -5815.7303     -5755.462       256.31246      43940.729      9.8747186    
      6480   304.35596     -5815.6809     -5755.2923      108.06573      43967.282      9.9249796    
      6490   303.72991     -5815.4041     -5755.1397     -19.656317      43994.966      9.9766797    
      6500   302.99869     -5815.1217     -5755.0024     -120.71458      44022.626      10.027918    
      6510   302.69925     -5814.936      -5754.8762     -239.54078      44049.281      10.076659    
      6520   302.48566     -5814.776      -5754.7585     -352.07511      44073.861      10.120767    
      6530   301.79834     -5814.5361     -5754.655      -432.3655       44095.316      10.158288    
      6540   300.0337      -5814.0861     -5754.5551     -485.26356      44112.877      10.187941    
      6550   297.28188     -5813.4426     -5754.4576     -505.00171      44126.077      10.209163    
      6560   294.55425     -5812.7955     -5754.3517     -508.85708      44134.721      10.221669    
      6570   293.2566      -5812.4161     -5754.2298     -539.62324      44138.707      10.225243    
      6580   293.56208     -5812.3268     -5754.0799     -557.88134      44137.767      10.219558    
      6590   294.66242     -5812.3678     -5753.9026     -565.91323      44131.685      10.20445     
      6600   295.53561     -5812.3378     -5753.6993     -534.5347       44120.403      10.180069    
      6610   295.70634     -5812.1462     -5753.4739     -445.80731      44104.23       10.146958    
      6620   295.73612     -5811.9001     -5753.2219     -342.03112      44083.913      10.106074    
      6630   296.64743     -5811.8104     -5752.9513     -195.791        44060.415      10.058555    
      6640   298.76337     -5811.9434     -5752.6644     -56.341596      44034.978      10.00576     
      6650   301.43125     -5812.1836     -5752.3753      61.539326      44008.874      9.9491488    
      6660   303.72766     -5812.3627     -5752.0988      198.15932      43983.24       9.8900759    
      6670   304.84577     -5812.3348     -5751.8491      333.39222      43959.288      9.8299917    
      6680   304.96238     -5812.1429     -5751.634       453.19245      43938.258      9.7704724    
      6690   304.65471     -5811.9064     -5751.4585      549.99106      43921.252      9.7130195    
      6700   304.35331     -5811.7057     -5751.3176      622.73408      43909.172      9.6590921    
      6710   304.62357     -5811.6526     -5751.2109      670.31595      43902.717      9.6098882    
      6720   305.95549     -5811.8394     -5751.1334      655.39532      43902.299      9.5662679    
      6730   308.12163     -5812.2268     -5751.0911      579.8918       43907.793      9.5284819    
      6740   309.90271     -5812.574      -5751.0848      498.2591       43918.599      9.49616      
      6750   309.61054     -5812.5487     -5751.1175      415.02168      43933.984      9.4687471    
      6760   306.70015     -5812.0367     -5751.183       368.61531      43953.234      9.4456826    
      6770   301.99188     -5811.1802     -5751.2607      350.15452      43975.92       9.4265449    
      6780   296.99371     -5810.2625     -5751.3346      317.99125      44001.844      9.4110137    
      6790   294.2974      -5809.7794     -5751.3866      305.32375      44030.772      9.398776     
      6800   295.06684     -5809.9578     -5751.4123      220.63273      44062.471      9.389743     
      6810   297.87449     -5810.5184     -5751.4159      104.27972      44096.235      9.3838055    
      6820   300.84719     -5811.1018     -5751.4094     -22.774078      44131.009      9.3808349    
      6830   302.74284     -5811.4717     -5751.4032     -147.69004      44165.636      9.3806691    
      6840   303.08896     -5811.5405     -5751.4033     -249.95444      44199.005      9.3830224    
      6850   302.3366      -5811.4025     -5751.4146     -344.24906      44230.117      9.3872794    
      6860   301.26573     -5811.2095     -5751.434      -433.15401      44258.097      9.3925485    
      6870   300.40949     -5811.0623     -5751.4567     -521.72319      44282.114      9.3976179    
      6880   299.66705     -5810.937      -5751.4788     -592.68855      44301.333      9.4011496    
      6890   298.87902     -5810.8037     -5751.5018     -627.93848      44315.097      9.4020548    
      6900   298.27853     -5810.7037     -5751.521      -609.41348      44323.111      9.3997164    
      6910   298.60043     -5810.781      -5751.5344     -580.48042      44325.5        9.3941192    
      6920   300.23541     -5811.1157     -5751.5447     -571.35783      44322.502      9.3854939    
      6930   302.50545     -5811.5764     -5751.555      -547.46856      44314.224      9.373979     
      6940   303.98583     -5811.8921     -5751.5769     -497.12415      44300.871      9.3597614    
      6950   304.22049     -5811.9756     -5751.6139     -408.75013      44282.92       9.3430684    
      6960   303.84847     -5811.9554     -5751.6676     -305.3878       44261.185      9.3241639    
      6970   303.78689     -5812.0111     -5751.7354     -215.5387       44236.625      9.3031855    
      6980   304.0866      -5812.158      -5751.8228     -161.19838      44210.046      9.2800201    
      6990   304.61493     -5812.3711     -5751.9311     -106.61244      44181.987      9.2544951    
      7000   305.28215     -5812.6351     -5752.0628     -64.05051       44152.939      9.226594     
      7010   305.82603     -5812.9109     -5752.2306     -25.208612      44123.298      9.1964532    
      7020   305.77317     -5813.105      -5752.4352      0.71236093     44093.39       9.1643855    
      7030   304.79031     -5813.1559     -5752.6811      43.713139      44063.469      9.1309108    
      7040   302.86938     -5813.0592     -5752.9656      106.67623      44033.945      9.0969162    
      7050   300.39365     -5812.8853     -5753.2829      178.66757      44005.38       9.0633633    
      7060   297.92624     -5812.7303     -5753.6175      243.05944      43978.405      9.0313715    
      7070   295.69064     -5812.6234     -5753.9542      309.25012      43953.62       9.0022283    
      7080   293.95852     -5812.6066     -5754.281       362.59453      43931.61       8.9770416    
      7090   292.93203     -5812.7003     -5754.5784      402.79677      43912.858      8.95671      
      7100   292.6721      -5812.9094     -5754.8391      412.77926      43897.721      8.9420326    
      7110   293.06786     -5813.2104     -5755.0616      410.90014      43886.301      8.9334601    
      7120   293.76048     -5813.5312     -5755.245       411.30136      43878.611      8.9311118    
      7130   294.25319     -5813.774      -5755.39        402.31396      43874.632      8.9349723    
      7140   294.19774     -5813.8737     -5755.5006      403.32935      43874.304      8.9450018    
      7150   293.94334     -5813.9022     -5755.5797      405.04154      43877.64       8.961249     
      7160   293.96617     -5813.9557     -5755.6286      377.892        43884.629      8.9837161    
      7170   294.38471     -5814.0586     -5755.6485      350.99413      43895.096      9.0121645    
      7180   294.93472     -5814.1655     -5755.6463      314.79331      43908.795      9.0461308    
      7190   295.01742     -5814.1633     -5755.6276      281.02291      43925.421      9.0851146    
      7200   294.28598     -5813.9846     -5755.5941      250.70887      43944.691      9.1285679    
      7210   293.16636     -5813.7158     -5755.5474      221.92082      43966.343      9.1756819    
      7220   292.43391     -5813.5074     -5755.4844      175.85304      43990.106      9.2253819    
      7230   292.4866      -5813.4382     -5755.4047      99.607489      44015.562      9.2762776    
      7240   293.81273     -5813.6104     -5755.3137     -1.2283023      44042.036      9.3268998    
      7250   296.43141     -5814.0289     -5755.2127     -117.85718      44068.619      9.3759       
      7260   299.23441     -5814.486      -5755.1136     -226.26637      44094.254      9.4221715    
      7270   300.89009     -5814.7233     -5755.0224     -310.85947      44117.956      9.4649159    
      7280   300.88431     -5814.6442     -5754.9444     -347.60084      44138.963      9.5034982    
      7290   299.53416     -5814.3116     -5754.8798     -382.24985      44156.862      9.5373093    
      7300   297.15937     -5813.7792     -5754.8185     -396.29314      44171.34       9.5655682    
      7310   294.26463     -5813.1405     -5754.7542     -401.23412      44182.245      9.587653     
      7320   292.07942     -5812.6267     -5754.674      -398.82047      44189.521      9.6031486    
      7330   291.546       -5812.4183     -5754.5714     -400.34063      44193.162      9.6118642    
      7340   293.19953     -5812.6201     -5754.4451     -409.80836      44193.137      9.6136391    
      7350   296.81536     -5813.1918     -5754.2994     -421.66285      44189.342      9.6082517    
      7360   301.26728     -5813.9227     -5754.147      -421.11997      44181.653      9.595628     
      7370   304.85042     -5814.4904     -5754.0037     -392.39987      44170.072      9.5761483    
      7380   306.47986     -5814.6932     -5753.8832     -318.72694      44154.848      9.5505606    
      7390   306.15062     -5814.5365     -5753.7918     -210.93113      44136.598      9.5200592    
      7400   304.44491     -5814.1296     -5753.7234     -82.487301      44116.292      9.4861207    
      7410   302.3894      -5813.6708     -5753.6724      36.844843      44095.079      9.4502171    
      7420   300.88958     -5813.3313     -5753.6305      139.61098      44074.042      9.4134955    
      7430   300.50424     -5813.2156     -5753.5912      227.3975       44054.12       9.3766257    
      7440   301.17667     -5813.313      -5753.5552      270.41089      44036.105      9.3401433    
      7450   301.69246     -5813.3793     -5753.5192      321.02274      44020.466      9.3046003    
      7460   301.37207     -5813.2866     -5753.4901      381.03221      44007.678      9.2706963    
      7470   300.50788     -5813.0907     -5753.4656      418.2253       43998.275      9.2391393    
      7480   299.57656     -5812.8779     -5753.4376      437.91315      43992.622      9.2106566    
      7490   298.6593      -5812.6681     -5753.4098      447.63473      43990.94       9.1860632    
      7500   297.66539     -5812.4359     -5753.3748      446.97066      43993.327      9.1660956    
      7510   296.43769     -5812.144      -5753.3266      421.68756      43999.799      9.1513246    
      7520   295.33938     -5811.8569     -5753.2574      382.14016      44010.169      9.1419795    
      7530   294.8986      -5811.672      -5753.1599      330.29364      44024.117      9.1380302    
      7540   295.43146     -5811.6416     -5753.0238      243.92207      44041.193      9.1392515    
      7550   296.61321     -5811.6962     -5752.8439      147.49835      44060.666      9.1450291    
[...]
     18200   1252.6745     -5560.8127     -5312.2642      3456.5633      50008.415      49.724906    
     18210   1250.7346     -5559.6427     -5311.479       3663.8534      49990.881      49.686019    
     18220   1255.499      -5559.7163     -5310.6073      3917.317       49976.79       49.665061    
     18230   1262.6083     -5560.1847     -5309.6651      4115.4716      49967.209      49.669065    
     18240   1266.3104     -5559.9327     -5308.6786      4237.0487      49962.878      49.703432    
     18250   1262.479      -5558.1665     -5307.6726      4340.2442      49964.56       49.774073    
     18260   1255.1893     -5555.6938     -5306.6463      4341.5665      49973.165      49.887415    
     18270   1260.1872     -5555.629      -5305.5898      4089.3119      49988.833      50.044559    
     18280   1280.2367     -5558.5287     -5304.5114      3635.4418      50010.136      50.235787    
     18290   1297.3281     -5560.8732     -5303.4647      3237.1968      50034.753      50.444998    
     18300   1298.6015     -5560.1726     -5302.5115      2950.4666      50060.939      50.660049    
     18310   1294.6666     -5558.547      -5301.6666      2813.6043      50088.066      50.877393    
     18320   1303.3113     -5559.5021     -5300.9065      2715.7025      50115.944      51.097704    
     18330   1314.9031     -5561.1233     -5300.2277      2671.9151      50143.887      51.319301    
     18340   1312.2261     -5560.0129     -5299.6485      2767.6258      50170.938      51.538523    
     18350   1304.9538     -5558.0775     -5299.156       2820.6539      50196.398      51.751836    
     18360   1310.8054     -5558.796      -5298.7135      2723.5915      50219.521      51.95389     
     18370   1325.5279     -5561.3306     -5298.3268      2379.6488      50239.289      52.137479    
     18380   1332.7444     -5562.4647     -5298.0291      2146.2838      50254.614      52.295914    
     18390   1325.7678     -5560.8896     -5297.8383      2102.9936      50265.094      52.427825    
     18400   1317.025      -5559.0461     -5297.7295      2250.3615      50270.662      52.534407    
     18410   1310.7039     -5557.7234     -5297.661       2532.5907      50271.512      52.617195    
     18420   1299.735      -5555.4866     -5297.6005      2873.2794      50268.425      52.679501    
     18430   1287.5714     -5552.9725     -5297.4999      3199.9606      50262.838      52.726423    
     18440   1287.5064     -5552.7847     -5297.325       3255.9036      50255.955      52.760526    
     18450   1297.3623     -5554.4773     -5297.062       3165.0633      50248.133      52.782026    
     18460   1309.2392     -5556.5039     -5296.7321      3048.9149      50239.071      52.789918    
     18470   1315.7775     -5557.4352     -5296.3661      2942.8463      50228.141      52.781698    
     18480   1306.7393     -5555.2559     -5295.9801      2972.8998      50214.329      52.752398    
     18490   1292.7862     -5552.0493     -5295.542       3185.9319      50197.006      52.698322    
     18500   1290.5712     -5551.0627     -5294.9949      3353.0356      50176.772      52.622655    
     18510   1307.9053     -5553.8108     -5294.3037      3375.9017      50155.322      52.536115    
     18520   1327.3252     -5556.8577     -5293.4973      3308.6231      50133.924      52.450498    
     18530   1331.2261     -5556.7687     -5292.6344      3370.2063      50112.756      52.371149    
     18540   1332.9403     -5556.2131     -5291.7387      3485.8311      50091.956      52.299393    
     18550   1338.0197     -5556.2966     -5290.8144      3559.1795      50071.592      52.233908    
     18560   1337.1335     -5555.1724     -5289.8659      3693.2996      50051.641      52.172616    
     18570   1329.3214     -5552.6536     -5288.8972      3916.5679      50032.144      52.115079    
     18580   1325.0016     -5550.7826     -5287.8833      4172.1633      50013.617      52.064845    
     18590   1327.1532     -5550.1271     -5286.8009      4437.2361      49996.985      52.027967    
     18600   1331.4739     -5549.84       -5285.6565      4681.5108      49983.618      52.012993    
     18610   1333.3406     -5549.0251     -5284.4713      4929.0514      49975.411      52.031508    
     18620   1341.1608     -5549.3884     -5283.2829      5058.1008      49974.249      52.094574    
     18630   1351.9076     -5550.3596     -5282.1218      5112.5023      49980.872      52.204647    
     18640   1362.4771     -5551.3795     -5281.0446      5117.2529      49995.437      52.360056    
     18650   1376.7682     -5553.2758     -5280.1052      4990.7542      50017.787      52.557607    
     18660   1390.0378     -5555.1584     -5279.355       4803.3409      50047.632      52.794783    
     18670   1401.7179     -5556.9569     -5278.836       4620.4203      50084.384      53.06949     
     18680   1404.991      -5557.3396     -5278.5693      4490.3841      50127.146      53.379018    
     18690   1396.9918     -5555.7235     -5278.5403      4348.3582      50175.076      53.720186    
     18700   1391.1282     -5554.7186     -5278.6989      4110.7793      50227.449      54.089189    
     18710   1385.9958     -5554.0005     -5278.9991      3868.3602      50283.752      54.482645    
     18720   1373.3443     -5551.8853     -5279.3941      3676.5757      50343.857      54.899173    
     18730   1356.5314     -5548.9739     -5279.8186      3595.4852      50408.077      55.34038     
     18740   1342.2509     -5546.525      -5280.2032      3491.3815      50476.784      55.808893    
     18750   1334.7604     -5545.3282     -5280.4927      3399.5198      50549.484      56.302687    
     18760   1332.1599     -5544.9792     -5280.6596      3351.1558      50624.766      56.813718    
     18770   1331.1288     -5544.8196     -5280.7046      3336.3671      50700.414      57.327871    
     18780   1335.7733     -5545.6871     -5280.6506      3294.5775      50774.458      57.832045    
     18790   1350.2194     -5548.4425     -5280.5396      3093.3701      50845.792      58.319307    
     18800   1363.8167     -5551.017      -5280.4162      2846.8087      50913.474      58.784636    
     18810   1367.6401     -5551.6772     -5280.3179      2658.0608      50976.629      59.224007    
     18820   1374.4198     -5552.9744     -5280.2698      2445.3361      51034.751      59.635803    
     18830   1381.1675     -5554.3213     -5280.2779      2146.0489      51087.499      60.019394    
     18840   1379.5182     -5554.0649     -5280.3488      1902.6832      51134.323      60.371924    
     18850   1375.9339     -5553.4801     -5280.4751      1736.0889      51174.159      60.685188    
     18860   1374.5394     -5553.3691     -5280.6408      1637.4573      51205.668      60.947774    
     18870   1370.0366     -5552.6774     -5280.8425      1587.3855      51227.629      61.148982    
     18880   1353.1333     -5549.5459     -5281.0649      1686.0782      51239.721      61.284264    
     18890   1326.8137     -5544.501      -5281.2421      1840.505       51242.93       61.358682    
     18900   1305.9406     -5540.4056     -5281.2883      2040.332       51238.831      61.382583    
     18910   1302.6388     -5539.6003     -5281.1381      2117.8195      51228.948      61.368018    
     18920   1311.2029     -5540.9392     -5280.7778      2101.8749      51214.092      61.323118    
     18930   1319.9025     -5542.1052     -5280.2177      2029.977       51194.533      61.251387    
     18940   1326.2418     -5542.6271     -5279.4817      1984.8885      51170.259      61.152754    
     18950   1337.1519     -5543.9037     -5278.5936      1830.7893      51140.818      61.02282     
     18960   1351.0869     -5545.6699     -5277.5949      1662.5625      51105.13       60.852899    
     18970   1362.2909     -5546.833      -5276.535       1626.5203      51062.502      60.637823    
     18980   1366.8746     -5546.6671     -5275.4596      1625.3285      51013.465      60.381978    
     18990   1370.8946     -5546.4097     -5274.4045      1676.6939      50959.075      60.093985    
     19000   1378.4508     -5546.9015     -5273.3971      1769.4269      50900.26       59.780946    
     19010   1383.4377     -5546.959      -5272.4651      1934.6284      50837.772      59.447383    
     19020   1378.9811     -5545.2341     -5271.6245      2262.0608      50772.41       59.097307    
     19030   1365.6933     -5541.8276     -5270.8545      2625.8636      50705.656      58.739019    
     19040   1350.4348     -5538.0487     -5270.1031      3049.258       50639.39       58.38253     
     19050   1342.8657     -5535.765      -5269.3212      3367.723       50575.709      58.039933    
     19060   1347.2259     -5535.8005     -5268.4916      3528.4974      50516.396      57.723095    
     19070   1355.8061     -5536.6447     -5267.6333      3637.5704      50462.326      57.437605    
     19080   1356.478      -5535.9243     -5266.7797      3857.8703      50413.747      57.183366    
     19090   1355.8766     -5534.9615     -5265.9362      4103.4958      50370.985      56.960521    
     19100   1363.0836     -5535.557      -5265.1017      4305.2602      50334.486      56.771394    
     19110   1367.3714     -5535.5896     -5264.2835      4470.3251      50304.8        56.620504    
     19120   1361.278      -5533.5894     -5263.4923      4555.2459      50282.462      56.512153    
     19130   1355.7154     -5531.703      -5262.7096      4592.9163      50267.975      56.449737    
     19140   1361.454      -5532.0425     -5261.9105      4517.3373      50262.018      56.437391    
     19150   1378.6046     -5534.6364     -5261.1015      4250.6235      50265.034      56.478067    
     19160   1398.9434     -5537.8887     -5260.3183      4001.2299      50276.498      56.569989    
     19170   1410.1415     -5539.4132     -5259.6209      3913.7514      50295.565      56.710326    
     19180   1404.2733     -5537.6525     -5259.0245      4111.6286      50321.932      56.899849    
     19190   1388.9224     -5534.0947     -5258.5126      4411.6064      50356.515      57.147041    
     19200   1383.5376     -5532.5435     -5258.0298      4661.5106      50400.853      57.463931    
     19210   1398.1102     -5534.9432     -5257.5381      4608.3959      50456.034      57.85912     
     19220   1417.6842     -5538.3439     -5257.055       4371.7212      50521.571      58.329576    
     19230   1433.8062     -5541.1113     -5256.6236      3952.2867      50595.832      58.863606    
     19240   1444.4531     -5542.8761     -5256.2759      3464.4928      50676.288      59.443437    
     19250   1437.6475     -5541.2878     -5256.038       3125.9149      50760.213      60.050618    
     19260   1426.5074     -5538.9287     -5255.8892      2886.042       50845.737      60.671953    
     19270   1425.4397     -5538.6178     -5255.7901      2694.3853      50931.485      61.297571    
     19280   1426.1488     -5538.702      -5255.7337      2617.4158      51016.294      61.918828    
     19290   1417.7276     -5537.0006     -5255.7031      2586.5644      51099.239      62.528497    
     19300   1404.963      -5534.4331     -5255.6683      2574.2569      51179          63.117901    
     19310   1393.8781     -5532.1476     -5255.5822      2521.7846      51254.046      63.678847    
     19320   1381.4179     -5529.5013     -5255.4082      2380.645       51323.414      64.206248    
     19330   1375.3874     -5528.0068     -5255.1103      2251.4736      51386.878      64.696905    
     19340   1371.5037     -5526.7764     -5254.6504      2200.2081      51444.826      65.149659    
     19350   1372.9587     -5526.4032     -5253.9885      2130.3373      51497.655      65.564144    
     19360   1395.1575     -5529.9346     -5253.1153      1930.9698      51545.38       65.94023     
     19370   1415.9308     -5533.006      -5252.065       1896.9336      51587.771      66.278533    
     19380   1421.37       -5532.928      -5250.9078      1994.9811      51625.19       66.582323    
     19390   1418.4754     -5531.1284     -5249.6826      2261.3632      51659.146      66.860377    
     19400   1427.6963     -5531.6748     -5248.3994      2307.9893      51691.764      67.124474    
     19410   1438.4684     -5532.479      -5247.0663      2214.5985      51723.602      67.377048    
     19420   1450.5864     -5533.5688     -5245.7517      1988.6569      51753.717      67.614089    
     19430   1457.9217     -5533.7897     -5244.5171      1771.8559      51780.235      67.826754    
     19440   1450.6329     -5531.2357     -5243.4094      1639.8513      51801.155      68.005352    
     19450   1433.1648     -5526.7928     -5242.4324      1703.0004      51814.776      68.139819    
     19460   1411.549      -5521.6029     -5241.5314      1865.1665      51820.364      68.224132    
     19470   1403.2906     -5519.0797     -5240.6468      1978.1946      51818.088      68.256164    
     19480   1408.0937     -5519.131      -5239.745       2076.5292      51808.602      68.235302    
     19490   1414.2422     -5519.4507     -5238.8448      2243.0595      51792.917      68.164599    
     19500   1414.0349     -5518.5417     -5237.977       2522.4222      51772.1        68.051352    
     19510   1413.3454     -5517.5837     -5237.1558      2722.7195      51747.036      67.905099    
     19520   1417.0308     -5517.5446     -5236.3854      2820.4015      51717.802      67.731451    
     19530   1427.2761     -5518.8721     -5235.68        2859.2625      51684.072      67.532073    
     19540   1440.3442     -5520.839      -5235.0541      2880.4041      51646.185      67.30969     
     19550   1447.9863     -5521.8278     -5234.5265      3007.3686      51605.077      67.069294    
     19560   1445.077      -5520.8174     -5234.0934      3259.1512      51562.29       66.81947     
     19570   1434.2948     -5518.2986     -5233.7139      3515.4817      51519.794      66.570615    
     19580   1429.7894     -5517.0341     -5233.3434      3713.7779      51479.591      66.333302    
     19590   1439.6905     -5518.6113     -5232.9561      3725.8454      51443.269      66.117731    
     19600   1458.7526     -5522.0134     -5232.576       3615.6832      51411.686      65.93114     
     19610   1468.663      -5523.657      -5232.2532      3465.1675      51384.932      65.776117    
     19620   1467.1048     -5523.1036     -5232.009       3416.0076      51362.653      65.650809    
     19630   1463.5789     -5522.2255     -5231.8305      3452.4514      51344.224      65.550511    
     19640   1457.1923     -5520.8126     -5231.6848      3553.4075      51328.897      65.470564    
     19650   1446.6548     -5518.585      -5231.5479      3700.6055      51316.653      65.412102    
     19660   1445.0918     -5518.1045     -5231.3776      3820.4178      51308.199      65.381709    
     19670   1449.6543     -5518.7963     -5231.1641      3851.5886      51304.242      65.384757    
     19680   1457.1088     -5520.0293     -5230.918       3855.1235      51305.116      65.423318    
     19690   1462.8234     -5520.9012     -5230.6561      3818.9504      51310.968      65.499541    
     19700   1458.0129     -5519.6799     -5230.3893      3839.0002      51321.647      65.61321     
     19710   1447.1121     -5517.2234     -5230.0956      3860.4211      51336.964      65.763132    
     19720   1444.3529     -5516.3185     -5229.7382      3859.8676      51356.616      65.947384    
     19730   1447.1351     -5516.4232     -5229.2909      3759.9693      51380.151      66.162488    
     19740   1457.2705     -5517.8899     -5228.7466      3617.7708      51406.454      66.398373    
     19750   1474.5736     -5520.7046     -5228.1281      3567.7747      51433.72       66.638833    
     19760   1487.7487     -5522.6744     -5227.4838      3618.0894      51460.705      66.874062    
     19770   1493.9161     -5523.2761     -5226.8618      3717.0809      51487.59       67.10726     
     19780   1506.6176     -5525.2244     -5226.2898      3718.8606      51515.73       67.350571    
     19790   1525.4036     -5528.4745     -5225.8126      3642.6633      51546.626      67.616108    
     19800   1531.0067     -5529.2531     -5225.4794      3573.6778      51581.203      67.910376    
     19810   1530.9521     -5529.093      -5225.3302      3527.2032      51619.628      68.234312    
     19820   1535.3162     -5529.9983     -5225.3696      3330.5476      51661.322      68.582755    
     19830   1542.7006     -5531.7283     -5225.6344      3068.5708      51704.924      68.944291    
     19840   1535.6237     -5530.853      -5226.1633      2880.2136      51748.6        69.306747    
     19850   1519.1091     -5528.3848     -5226.9718      2671.4275      51790.361      69.656827    
     19860   1512.0862     -5528.0691     -5228.0495      2389.5038      51828.541      69.983637    
     19870   1504.3908     -5527.8845     -5229.3918      2153.3902      51862.026      70.281073    
     19880   1486.5904     -5525.929      -5230.9681      2087.2527      51890.35       70.547575    
     19890   1466.9438     -5523.7372     -5232.6745      2152.4938      51913.564      70.784167    
     19900   1450.1905     -5522.1141     -5234.3756      2120.9776      51932.02       70.993161    
     19910   1436.0821     -5520.8859     -5235.9466      2105.0075      51945.823      71.174306    
     19920   1433.3986     -5521.7069     -5237.3001      2046.6094      51954.998      71.326049    
     19930   1436.704      -5523.4702     -5238.4076      2057.447       51959.453      71.446978    
     19940   1440.8946     -5525.1683     -5239.2742      2017.2489      51959.214      71.536517    
     19950   1434.9344     -5524.6165     -5239.9049      2057.3582      51954.059      71.590769    
     19960   1425.1418     -5523.0677     -5240.2992      2182.5054      51943.878      71.604299    
     19970   1425.4906     -5523.2823     -5240.4446      2189.0159      51928.943      71.574573    
     19980   1434.4514     -5524.972      -5240.3563      2105.2321      51909.371      71.501124    
     19990   1451.7014     -5528.1094     -5240.071       1940.4244      51885.244      71.385656    
     20000   1463.2087     -5529.9642     -5239.6427      1873.0999      51856.421      71.229754    
Loop time of 4393.54 on 1 procs for 10000 steps with 1536 atoms

Performance: 0.098 ns/day, 244.085 hours/ns, 2.276 timesteps/s, 3.496 katom-step/s
93.4% CPU use with 1 MPI tasks x 1 OpenMP threads

MPI task timing breakdown:
Section |  min time  |  avg time  |  max time  |%varavg| %total
---------------------------------------------------------------
Pair    | 3870.6     | 3870.6     | 3870.6     |   0.0 | 88.10
Bond    | 0.041282   | 0.041282   | 0.041282   |   0.0 |  0.00
Neigh   | 2.429      | 2.429      | 2.429      |   0.0 |  0.06
Comm    | 0.4544     | 0.4544     | 0.4544     |   0.0 |  0.01
Output  | 518.92     | 518.92     | 518.92     |   0.0 | 11.81
Modify  | 0.88562    | 0.88562    | 0.88562    |   0.0 |  0.02
Other   |            | 0.1605     |            |       |  0.00

Nlocal:           1536 ave        1536 max        1536 min
Histogram: 1 0 0 0 0 0 0 0 0 0
Nghost:           2522 ave        2522 max        2522 min
Histogram: 1 0 0 0 0 0 0 0 0 0
Neighs:              0 ave           0 max           0 min
Histogram: 1 0 0 0 0 0 0 0 0 0
FullNghs:        46872 ave       46872 max       46872 min
Histogram: 1 0 0 0 0 0 0 0 0 0

Total # of neighbors = 46872
Ave neighs/atom = 30.515625
Ave special neighs/atom = 0
Neighbor list builds = 983
Dangerous builds = 912
unfix           2

write_data      structure.ready.data
System init for write_data ...

write_restart   structure.ready
System init for write_restart ...
    
Total wall time: 2:45:14
