LAMMPS (29 Sep 2021 - Update 3)
OMP_NUM_THREADS environment is not set. Defaulting to 1 thread. (src/comm.cpp:98)
  using 1 OpenMP thread(s) per MPI task
units	metal
atom_style	full

read_data	mixed.data
Reading data file ...
  orthogonal box = (0.0000000 0.0000000 0.0000000) to (16.534670 17.767358 74.594796)
  1 by 2 by 8 MPI processor grid
  reading atoms ...
  864 atoms
Finding 1-2 1-3 1-4 neighbors ...
  special bond factors lj:    0        0        0       
  special bond factors coul:  0        0        0       
     0 = max # of 1-2 neighbors
     0 = max # of 1-3 neighbors
     0 = max # of 1-4 neighbors
     1 = max # of special neighbors
  special bonds CPU = 0.005 seconds
  read_data CPU = 0.042 seconds

pair_style	quip
pair_coeff	* * /ocean/projects/cts180021p/wuziqi/clease/mint-PD/PhaseDiagram-Clease/Liquid/GAP_potential/gap_LiKCl.xml "Potential xml_label=GAP_2021_9_27_0_1_17_37_618" 17 19 3

neighbor	0.3 bin
neigh_modify	delay 10

timestep	0.001
compute	msd all msd
thermo_style	custom step temp pe etotal press vol c_msd[4]
thermo	10
dump	1 all custom 10 xyz-mix.dump type id x y z
dump	2 all custom 10 force-mix.dump type id fx fy fz

fix     1 all nve
run     2000
Neighbor list info ...
  update every 1 steps, delay 10 steps, check yes
  max neighbors/atom: 2000, page size: 100000
  master list distance cutoff = 6.22
  ghost atom cutoff = 6.22
  binsize = 3.11, bins = 6 6 24
  1 neighbor lists, perpetual/occasional/extra = 1 0 0
  (1) pair quip, perpetual
      attributes: full, newton on
      pair build: full/bin
      stencil: full/bin/3d
      bin: standard
Per MPI rank memory allocation (min/avg/max) = 8.894 | 8.906 | 8.915 Mbytes
Step Temp PotEng TotEng Press Volume c_msd[4] 
       0            0   -8413.4292   -8413.4292   -12531.916    21914.265            0 
      10    63.367096   -8420.5059   -8413.4372   -13062.757    21914.265 0.00028900792 
      20    162.23389   -8431.5423   -8413.4448   -13580.932    21914.265 0.0035442006 
      30    203.76318   -8436.1707   -8413.4406   -13263.999    21914.265  0.011998633 
      40     225.5427      -8438.6   -8413.4404   -13091.981    21914.265  0.023619499 
      50    238.39464   -8440.0352   -8413.4419   -13192.953    21914.265  0.036411648 
      60    237.91747   -8439.9798   -8413.4397    -13151.82    21914.265  0.049420327 
      70    242.25882   -8440.4649   -8413.4405   -12986.142    21914.265  0.062561747 
      80    243.33226   -8440.5825   -8413.4384   -12841.846    21914.265  0.075987004 
      90     256.1439    -8442.014   -8413.4408   -12985.089    21914.265  0.088683986 
     100    260.92723   -8442.5467   -8413.4399   -13129.532    21914.265   0.10092572 
     110    263.36735   -8442.8185   -8413.4395   -13314.209    21914.265   0.11296329 
     120    267.45703   -8443.2754   -8413.4402   -13403.997    21914.265   0.12509928 
     130    267.20277   -8443.2463   -8413.4395   -13198.457    21914.265   0.13819283 
     140    269.21359   -8443.4705   -8413.4393   -12839.711    21914.265   0.15259322 
     150     276.3754   -8444.2699   -8413.4398   -12564.061    21914.265   0.16775295 
     160    282.09052   -8444.9077   -8413.4401   -12400.914    21914.265   0.18315323 
     170    283.74907   -8445.0928   -8413.4402     -12430.3    21914.265    0.1989762 
     180    279.57367   -8444.6271   -8413.4402   -12727.353    21914.265   0.21536827 
     190    272.01519   -8443.7829   -8413.4391   -12943.608    21914.265   0.23180139 
     200    272.98877   -8443.8921   -8413.4397   -13066.814    21914.265    0.2476891 
     210    278.28656   -8444.4833     -8413.44   -13119.162    21914.265   0.26290373 
     220    281.61115   -8444.8543   -8413.4402    -13052.65    21914.265   0.27743582 
     230    283.45537   -8445.0589    -8413.439   -12948.839    21914.265   0.29133107 
     240    292.81696   -8446.1046   -8413.4404   -13016.029    21914.265    0.3048675 
     250    295.20203   -8446.3705   -8413.4402   -13077.887    21914.265   0.31931215 
     260    290.46684   -8445.8415   -8413.4394   -13040.528    21914.265   0.33532684 
     270    290.61991    -8445.858   -8413.4389   -13235.455    21914.265   0.35239777 
     280    301.25443   -8447.0456   -8413.4402   -13515.282    21914.265   0.36952956 
     290    308.28623   -8447.8304   -8413.4406   -13611.572    21914.265   0.38667041 
     300    309.20907   -8447.9319   -8413.4392   -13455.868    21914.265    0.4041006 
     310     314.5316   -8448.5273   -8413.4408   -13198.597    21914.265   0.42152557 
     320    312.09261   -8448.2546   -8413.4402   -12968.083    21914.265   0.43866959 
     330    305.84421   -8447.5573   -8413.4399   -12657.381    21914.265   0.45536472 
     340    303.20988   -8447.2632   -8413.4397   -12498.026    21914.265   0.47172581 
     350    307.13857   -8447.7018     -8413.44   -12492.368    21914.265   0.48754232 
     360    312.15901   -8448.2619   -8413.4401   -12369.505    21914.265   0.50223919 
     370     318.6847   -8448.9898     -8413.44   -12195.898    21914.265   0.51545083 
     380    326.66636   -8449.8808   -8413.4407   -12030.164    21914.265   0.52751087 
     390    328.67292   -8450.1043   -8413.4403   -11786.931    21914.265   0.53983918 
     400    329.42172   -8450.1875     -8413.44   -11529.418    21914.265   0.55338123 
     410    329.12824   -8450.1558   -8413.4411   -11363.621    21914.265   0.56856317 
     420    321.17839   -8449.2675   -8413.4396   -11329.503    21914.265   0.58578319 
     430    319.73313   -8449.1067     -8413.44   -11645.546    21914.265   0.60460993 
     440    321.87014   -8449.3455   -8413.4404   -12168.872    21914.265   0.62482739 
     450    321.69175   -8449.3257   -8413.4405   -12517.526    21914.265   0.64605131 
     460    321.58625   -8449.3131   -8413.4397   -12738.117    21914.265   0.66602281 
     470    327.73765   -8450.0009   -8413.4413    -13118.13    21914.265   0.68222539 
     480    325.78012   -8449.7811   -8413.4399   -13518.975    21914.265   0.69547134 
     490    325.26696   -8449.7242   -8413.4402   -13912.333    21914.265   0.70709849 
     500    326.02809   -8449.8096   -8413.4407    -14245.82    21914.265    0.7181905 
     510     321.8067   -8449.3384   -8413.4404   -14358.421    21914.265   0.73031831 
     520    314.82643   -8448.5595   -8413.4401   -14393.561    21914.265   0.74493886 
     530    311.55922   -8448.1945   -8413.4396    -14504.26    21914.265   0.76206346 
     540    316.52181   -8448.7487   -8413.4402   -14692.451    21914.265   0.78048733 
     550    323.45997   -8449.5224     -8413.44   -14675.954    21914.265   0.79880458 
     560    332.20295   -8450.4987   -8413.4409    -14432.97    21914.265   0.81596428 
     570    332.37528   -8450.5179   -8413.4409   -14008.452    21914.265   0.83234674 
     580    324.44532    -8449.632   -8413.4397   -13682.622    21914.265   0.84880328 
     590    322.54654   -8449.4211   -8413.4405   -13611.186    21914.265   0.86493346 
     600    320.03229     -8449.14   -8413.4399   -13618.158    21914.265   0.88136827 
     610     322.0694   -8449.3667   -8413.4393   -13770.866    21914.265   0.89972436 
     620    332.97088   -8450.5844    -8413.441   -14040.679    21914.265   0.91979176 
     630    336.52886   -8450.9806   -8413.4403   -14106.634    21914.265    0.9400978 
     640    340.63169   -8451.4378   -8413.4399   -14084.373    21914.265   0.95883362 
     650     349.6267   -8452.4431   -8413.4417   -14126.089    21914.265   0.97518253 
     660     345.3101   -8451.9607   -8413.4408    -13925.09    21914.265   0.98949595 
     670    335.30236   -8450.8431   -8413.4396   -13541.064    21914.265    1.0025057 
     680    335.35657   -8450.8495     -8413.44   -13120.509    21914.265    1.0157598 
     690    342.86707   -8451.6878   -8413.4405   -12807.122    21914.265    1.0306556 
     700    350.61517   -8452.5527    -8413.441   -12613.893    21914.265    1.0481195 
     710    351.61871   -8452.6647   -8413.4411    -12558.63    21914.265     1.067876 
     720    346.37378   -8452.0785     -8413.44   -12478.274    21914.265    1.0873947 
     730    347.79156   -8452.2373   -8413.4406   -12593.955    21914.265    1.1041491 
     740    351.02442    -8452.599   -8413.4417   -12781.856    21914.265    1.1188548 
     750    344.89782   -8451.9145   -8413.4406   -12888.282    21914.265     1.133643 
     760      340.342   -8451.4064   -8413.4407   -13050.736    21914.265    1.1491825 
     770    340.04955   -8451.3737   -8413.4407   -13326.749    21914.265    1.1643304 
     780      345.357   -8451.9656   -8413.4405   -13558.373    21914.265    1.1777023 
     790    357.12317   -8453.2788   -8413.4411   -13831.043    21914.265    1.1886997 
     800    366.64045   -8454.3407   -8413.4414   -14129.874    21914.265    1.1976392 
     810    368.68447   -8454.5688   -8413.4415   -14063.484    21914.265    1.2056605 
     820    366.60174   -8454.3361   -8413.4411   -13908.726    21914.265    1.2141717 
     830    365.85586   -8454.2531   -8413.4413   -13853.131    21914.265    1.2243585 
     840     368.4524   -8454.5423   -8413.4409   -13972.673    21914.265    1.2365636 
     850    371.87492   -8454.9262    -8413.443    -14131.16    21914.265    1.2503596 
     860     358.1746   -8453.3954   -8413.4405     -13818.7    21914.265    1.2649975 
     870    354.45705   -8452.9806   -8413.4404   -13465.958    21914.265     1.278191 
     880    366.65296   -8454.3425   -8413.4418   -13399.092    21914.265    1.2880847 
     890    376.93995   -8455.4909   -8413.4426    -13274.53    21914.265    1.2959326 
     900    375.96913   -8455.3817   -8413.4418   -13062.805    21914.265    1.3041818 
     910    374.01489   -8455.1632   -8413.4413   -12824.206    21914.265    1.3130528 
     920    378.94842   -8455.7136   -8413.4414   -12747.174    21914.265    1.3222121 
     930    388.54983   -8456.7859   -8413.4426   -12880.601    21914.265    1.3329508 
     940    389.80019   -8456.9258    -8413.443   -12981.003    21914.265    1.3457299 
     950    382.52604   -8456.1127   -8413.4413   -12918.004    21914.265    1.3587946 
     960    381.75271   -8456.0275   -8413.4424   -13120.356    21914.265    1.3710856 
     970    380.20365    -8455.854   -8413.4417   -13297.868    21914.265    1.3835601 
     980    384.06597   -8456.2848   -8413.4416    -13360.21    21914.265    1.3967998 
     990    391.39252    -8457.104   -8413.4436    -13319.56    21914.265    1.4114384 
    1000    385.55287   -8456.4508   -8413.4418   -13032.957    21914.265    1.4285977 
    1010    381.98963   -8456.0536   -8413.4421   -12900.345    21914.265    1.4480597 
    1020    382.08452   -8456.0644   -8413.4423   -12891.786    21914.265    1.4678099 
    1030    380.66666   -8455.9065   -8413.4425   -12820.478    21914.265    1.4859085 
    1040    378.02017   -8455.6107    -8413.442   -12814.774    21914.265    1.5012686 
    1050    381.70997   -8456.0224   -8413.4421   -12925.622    21914.265    1.5119118 
    1060    391.42566   -8457.1073   -8413.4432    -13146.33    21914.265    1.5173209 
    1070    396.24192   -8457.6441   -8413.4428   -13102.084    21914.265    1.5196151 
    1080    397.63032   -8457.7993    -8413.443   -12889.784    21914.265    1.5211703 
    1090    396.12759   -8457.6308   -8413.4422   -12537.537    21914.265    1.5231683 
    1100    400.33119   -8458.1002   -8413.4426   -12299.668    21914.265    1.5256834 
    1110    407.17314   -8458.8635   -8413.4428   -12099.612    21914.265    1.5296348 
    1120    413.19804   -8459.5369    -8413.444   -11926.861    21914.265    1.5369315 
    1130    409.94165   -8459.1721   -8413.4425   -11927.354    21914.265    1.5487344 
    1140    411.69689   -8459.3679   -8413.4425   -12274.932    21914.265    1.5644715 
    1150    417.92932   -8460.0654   -8413.4448   -12599.199    21914.265    1.5822789 
    1160    409.45399   -8459.1175   -8413.4423   -12608.558    21914.265    1.6004412 
    1170    405.75202   -8458.7057   -8413.4435   -12496.116    21914.265    1.6169469 
    1180    399.97271   -8458.0606    -8413.443   -12466.412    21914.265    1.6317671 
    1190    393.04741   -8457.2883   -8413.4433   -12618.331    21914.265    1.6460138 
    1200    381.93867   -8456.0489   -8413.4431   -12576.103    21914.265    1.6602667 
    1210    376.72969   -8455.4667   -8413.4419   -12745.258    21914.265    1.6726433 
    1220     387.4652   -8456.6661   -8413.4437   -13270.317    21914.265    1.6819979 
    1230    392.11995   -8457.1848   -8413.4433   -13698.725    21914.265    1.6894908 
    1240    392.35374   -8457.2109   -8413.4432   -14054.078    21914.265    1.6958816 
    1250    387.63167   -8456.6848   -8413.4439   -14383.659    21914.265    1.7022745 
    1260    377.01437   -8455.4984   -8413.4419   -14780.957    21914.265    1.7098627 
    1270    380.16106   -8455.8505   -8413.4429    -15291.91    21914.265    1.7186286 
    1280    386.65141    -8456.575   -8413.4435   -15684.863    21914.265    1.7280931 
    1290    386.45138   -8456.5524   -8413.4431   -15669.118    21914.265    1.7377267 
    1300    384.49318   -8456.3333   -8413.4425   -15192.167    21914.265    1.7465203 
    1310    389.16883   -8456.8559   -8413.4435   -14748.802    21914.265    1.7543822 
    1320    395.91985   -8457.6092   -8413.4437   -14540.669    21914.265    1.7626209 
    1330    402.24128   -8458.3144   -8413.4438   -14482.176    21914.265    1.7719127 
    1340    406.72312   -8458.8138   -8413.4433   -14593.779    21914.265    1.7822942 
    1350    413.88937   -8459.6138   -8413.4438   -14633.206    21914.265    1.7929881 
    1360    418.26368   -8460.1021   -8413.4441   -14272.723    21914.265    1.8043383 
    1370    412.53709   -8459.4628   -8413.4437   -13640.472    21914.265    1.8173742 
    1380    404.03017    -8458.513   -8413.4428   -13053.663    21914.265    1.8314414 
    1390    402.11865   -8458.3013   -8413.4444   -12796.252    21914.265    1.8446224 
    1400    396.75786   -8457.7017   -8413.4428   -12890.081    21914.265    1.8555613 
    1410     401.1626   -8458.1945   -8413.4442   -13251.623    21914.265    1.8625402 
    1420    405.53922    -8458.683   -8413.4445   -13540.901    21914.265    1.8651673 
    1430    404.12534   -8458.5245   -8413.4437   -13662.885    21914.265    1.8648977 
    1440    405.72045   -8458.7027    -8413.444   -13771.634    21914.265    1.8643414 
    1450    406.67484   -8458.8092    -8413.444   -13873.149    21914.265    1.8661066 
    1460    406.94702   -8458.8395   -8413.4439   -13898.845    21914.265    1.8707341 
    1470    405.99802   -8458.7335   -8413.4438    -13583.81    21914.265    1.8783175 
    1480    405.25435   -8458.6503   -8413.4436   -13097.342    21914.265    1.8881067 
    1490    408.19865    -8458.979   -8413.4439   -12662.726    21914.265    1.8977467 
    1500    414.56579   -8459.6887   -8413.4433   -12296.863    21914.265    1.9065246 
    1510    429.03716   -8461.3044   -8413.4447   -11735.577    21914.265    1.9156573 
    1520    435.43303   -8462.0188   -8413.4456   -11140.275    21914.265    1.9269758 
    1530    420.46896   -8460.3486   -8413.4446     -10759.3    21914.265    1.9420002 
    1540    404.55727   -8458.5707   -8413.4417   -10562.297    21914.265    1.9594173 
    1550     414.5371   -8459.6878   -8413.4456   -10873.945    21914.265    1.9756145 
    1560    415.64167   -8459.8093   -8413.4438    -11180.84    21914.265    1.9896674 
    1570    417.51903   -8460.0192   -8413.4444   -11574.862    21914.265      2.00287 
    1580    420.71133   -8460.3754   -8413.4444   -12084.028    21914.265    2.0173903 
    1590    422.23753   -8460.5459   -8413.4446   -12650.323    21914.265    2.0354221 
    1600    420.26548   -8460.3254   -8413.4441   -13157.964    21914.265    2.0567995 
    1610    418.97614   -8460.1816   -8413.4442   -13379.664    21914.265    2.0784503 
    1620    422.99101    -8460.629   -8413.4437   -13476.483    21914.265    2.0978277 
    1630    431.41255   -8461.5707    -8413.446   -13473.665    21914.265     2.115193 
    1640    426.28653   -8460.9963   -8413.4434   -13430.412    21914.265    2.1338075 
    1650    431.13487   -8461.5387    -8413.445   -13658.596    21914.265       2.1559 
    1660    436.17822   -8462.1019   -8413.4456   -13638.641    21914.265    2.1797337 
    1670    428.12023   -8461.2022   -8413.4447   -13252.346    21914.265    2.2035441 
    1680    422.66155   -8460.5919   -8413.4434   -13022.696    21914.265    2.2262152 
    1690    430.34848   -8461.4521    -8413.446   -12966.155    21914.265    2.2464937 
    1700    426.21611   -8460.9896   -8413.4446   -12849.343    21914.265    2.2649593 
    1710    421.63281   -8460.4781   -8413.4443    -12902.06    21914.265    2.2822078 
    1720    425.52952   -8460.9136   -8413.4451   -13254.993    21914.265    2.2992296 
    1730    433.21398   -8461.7705   -8413.4448   -13760.925    21914.265    2.3170264 
    1740    441.86781   -8462.7372   -8413.4461   -14050.542    21914.265    2.3352522 
    1750    438.27813    -8462.336   -8413.4454   -13921.401    21914.265    2.3528289 
    1760    429.17186   -8461.3192   -8413.4444   -13408.002    21914.265    2.3694072 
    1770    428.81898   -8461.2807   -8413.4453    -12917.73    21914.265    2.3858611 
    1780    433.34916   -8461.7857    -8413.445   -12638.931    21914.265    2.4026666 
    1790     441.0669   -8462.6474   -8413.4457   -12705.172    21914.265     2.419074 
    1800    447.24535   -8463.3359    -8413.445   -12842.309    21914.265    2.4345236 
    1810    451.04914   -8463.7611   -8413.4459   -13058.485    21914.265    2.4502124 
    1820    445.08252   -8463.0941   -8413.4445   -13035.825    21914.265    2.4671851 
    1830    441.70858   -8462.7187   -8413.4454   -12922.342    21914.265    2.4853863 
    1840    432.65555   -8461.7082   -8413.4449   -13058.866    21914.265    2.5046773 
    1850    428.24526   -8461.2146   -8413.4432   -13494.155    21914.265    2.5239509 
    1860    442.70809   -8462.8312   -8413.4464     -14052.9    21914.265    2.5417036 
    1870    445.34398   -8463.1238   -8413.4451   -14177.248    21914.265    2.5577578 
    1880    449.56383   -8463.5931   -8413.4436   -14088.107    21914.265    2.5732932 
    1890    469.70151   -8465.8424   -8413.4465   -13965.821    21914.265    2.5900107 
    1900    475.61979   -8466.5029   -8413.4468   -13338.709    21914.265    2.6092547 
    1910    460.77113   -8464.8444   -8413.4447   -12266.897    21914.265    2.6300063 
    1920    453.29076   -8464.0097   -8413.4444   -11600.031    21914.265    2.6488623 
    1930    455.01355   -8464.2038   -8413.4464   -11532.276    21914.265     2.664581 
    1940    446.57627   -8463.2611   -8413.4448   -11610.068    21914.265    2.6787843 
    1950    442.24787   -8462.7779   -8413.4445    -12067.88    21914.265     2.691974 
    1960    445.34565   -8463.1243   -8413.4453   -12574.104    21914.265    2.7033659 
    1970     445.3849   -8463.1293   -8413.4459   -12683.518    21914.265    2.7130116 
    1980    438.45896   -8462.3558    -8413.445   -12521.804    21914.265    2.7223802 
    1990    435.82997    -8462.062   -8413.4445   -12590.151    21914.265    2.7312795 
    2000    445.20858   -8463.1089   -8413.4452   -13039.215    21914.265    2.7384799 
Loop time of 1143.98 on 16 procs for 2000 steps with 864 atoms

Performance: 0.151 ns/day, 158.886 hours/ns, 1.748 timesteps/s
97.3% CPU use with 16 MPI tasks x 1 OpenMP threads

MPI task timing breakdown:
Section |  min time  |  avg time  |  max time  |%varavg| %total
---------------------------------------------------------------
Pair    | 383.43     | 631.09     | 1109.9     | 886.8 | 55.17
Bond    | 0.00017095 | 0.00036371 | 0.00073338 |   0.0 |  0.00
Neigh   | 0.017525   | 0.029681   | 0.054481   |   6.5 |  0.00
Comm    | 33.907     | 454.14     | 694.57     | 965.0 | 39.70
Output  | 0.1311     | 41.442     | 93.42      | 546.1 |  3.62
Modify  | 0.008641   | 0.0095288  | 0.011104   |   0.8 |  0.00
Other   |            | 17.27      |            |       |  1.51

Nlocal:        54.0000 ave          84 max          36 min
Histogram: 3 3 4 0 0 2 1 0 1 2
Nghost:        477.750 ave         592 max         348 min
Histogram: 2 0 2 1 3 3 1 0 0 4
Neighs:         0.00000 ave           0 max           0 min
Histogram: 16 0 0 0 0 0 0 0 0 0
FullNghs:      2234.12 ave        4892 max        1038 min
Histogram: 5 5 0 0 2 0 2 0 0 2

Total # of neighbors = 35746
Ave neighs/atom = 41.372685
Ave special neighs/atom = 0.0000000
Neighbor list builds = 199
Dangerous builds = 198
unfix   1

velocity    all create 1012.5 1312343 dist gaussian
fix     2 all npt temp 1012.5 1012.5 $(100.0*dt) aniso 0.0 1.01325 $(1000.0*dt)
fix     2 all npt temp 1012.5 1012.5 0.10000000000000000555 aniso 0.0 1.01325 $(1000.0*dt)
fix     2 all npt temp 1012.5 1012.5 0.10000000000000000555 aniso 0.0 1.01325 1
run     3000
Per MPI rank memory allocation (min/avg/max) = 8.894 | 8.907 | 8.916 Mbytes
Step Temp PotEng TotEng Press Volume c_msd[4] 
    2000       1012.5   -8463.1089    -8350.163   -9954.7928    21914.265    2.7384799 
    2010    904.64053   -8451.1153   -8350.2013   -8628.4758    21908.426    2.7415388 
    2020    765.63489   -8435.5674   -8350.1597   -6662.5351    21892.372    2.7471502 
    2030     748.1692   -8433.2978   -8349.8384   -6437.6865    21868.219    2.7492148 
    2040    741.46536   -8431.8577   -8349.1461   -5932.9092    21836.542    2.7476835 
    2050    741.05162   -8430.8473   -8348.1819   -5302.1877    21797.983    2.7451012 
    2060    758.38814     -8431.73   -8347.1306   -4907.8137     21753.38    2.7443526 
    2070    754.68349   -8430.3565   -8346.1705   -3693.7616     21703.54    2.7473473 
    2080    755.62396   -8429.5858   -8345.2948   -2240.7943    21650.064    2.7535312 
    2090    767.12961   -8429.9618   -8344.3873   -1446.0577    21594.832     2.761599 
    2100    773.04562   -8429.6231   -8343.3887   -1339.6153    21539.062    2.7680573 
    2110    791.96411   -8430.6446   -8342.2999   -1731.2458    21483.186      2.77022 
    2120    809.28887   -8431.4045   -8341.1271   -2148.0346    21427.116    2.7713769 
    2130    814.87341   -8430.8175   -8339.9172   -2513.5192    21370.681    2.7768984 
    2140    813.78538   -8429.4516   -8338.6726   -2913.0304    21313.797    2.7892167 
    2150      818.502   -8428.7012    -8337.396    -3130.286      21256.4    2.8065602 
    2160    827.85004    -8428.429    -8336.081   -2850.8891    21198.647    2.8241092 
    2170    836.80072   -8428.0457   -8334.6993   -1857.0067    21141.204    2.8384103 
    2180    853.61568    -8428.446   -8333.2239   -536.76233    21085.371    2.8496229 
    2190    884.54659   -8430.3268   -8331.6543      536.862    21032.652    2.8604822 
    2200     910.2776   -8431.6018    -8330.059    1140.6948     20984.11    2.8741905 
    2210    898.69635   -8428.7614   -8328.5104    2043.6672    20940.297    2.8941942 
    2220    884.09456    -8425.645   -8327.0229    2640.8006    20901.812    2.9205328 
    2230    908.90539   -8426.9247   -8325.5349    1992.1298    20868.793    2.9468937 
    2240    924.05769   -8427.1011    -8324.021    1286.5414    20840.285    2.9681816 
    2250    930.07823   -8426.2524   -8322.5007    919.98804    20815.217    2.9861855 
    2260    932.66743   -8425.0112   -8320.9707    1228.7725    20792.975    3.0069843 
    2270    945.27914   -8424.8883    -8319.441    1513.2853    20773.559    3.0322568 
    2280    975.09774   -8426.7028   -8317.9291    1139.2254     20756.95    3.0612418 
    2290     988.7043   -8426.7853   -8316.4938    728.37802    20742.595    3.0930741 
    2300     983.2013   -8424.8396   -8315.1621    789.67972    20729.921    3.1270819 
    2310    984.07423   -8423.6716   -8313.8966    1593.4171     20718.87    3.1601655 
    2320    994.27693   -8423.5541    -8312.641    2731.5953    20710.126    3.1891835 
    2330    1013.1838   -8424.4301    -8311.408    3059.8511    20704.599    3.2168154 
    2340    1016.0439   -8423.5748   -8310.2335    3150.2284    20702.506    3.2494876 
    2350    1018.1849   -8422.7299   -8309.1499    2526.3236    20703.708    3.2909481 
    2360    1029.8754   -8423.0158   -8308.1317    1085.3151    20707.408    3.3414598 
    2370    1026.1533    -8421.653    -8307.184    349.91828    20712.165    3.3991338 
    2380    1001.8901     -8418.07   -8306.3076    482.02349     20717.19    3.4592278 
    2390    1018.6159   -8419.0818   -8305.4537    230.67136     20722.49    3.5182477 
    2400    1065.9226   -8423.5298   -8304.6246   -318.72855    20727.808    3.5759646 
    2410    1072.2902   -8423.5249   -8303.9094   -99.675018    20732.674    3.6315522 
    2420     1048.966     -8420.37   -8303.3563    603.53363    20737.324    3.6880962 
    2430    1044.8564   -8419.4769   -8302.9216    716.76895    20742.397    3.7483552 
    2440    1058.6439   -8420.6756   -8302.5823    1201.6487    20748.115    3.8131979 
    2450    1067.4274   -8421.4324   -8302.3592    1956.2611    20754.954    3.8836468 
    2460    1082.4596   -8423.0201   -8302.2701     2061.209    20763.598    3.9601662 
    2470    1105.0087   -8425.6205   -8302.3551    2185.8366    20774.172    4.0385221 
    2480    1088.9396   -8424.1254   -8302.6525    3032.9312    20786.818    4.1145997 
    2490    1088.2421   -8424.5564   -8303.1614    3170.0797    20802.222     4.188754 
    2500    1091.7495   -8425.6457   -8303.8594    2954.8113    20820.512    4.2624897 
    2510     1083.057    -8425.565   -8304.7483     2911.841    20841.405    4.3357121 
    2520    1066.1359   -8424.7328   -8305.8037    3145.2507    20864.786    4.4090163 
    2530    1042.9848   -8423.2888   -8306.9423    3503.7941    20890.808    4.4827398 
    2540    1030.0109   -8422.9888   -8308.0895    3458.5534    20919.693     4.556381 
    2550    1027.6578   -8423.8303   -8309.1935    2952.2002    20951.281    4.6314416 
    2560    1058.9838   -8428.4103   -8310.2791      1594.35    20984.849    4.7119955 
    2570    1063.5506   -8430.0336   -8311.3929    532.90396    21018.948     4.802836 
    2580    1040.3871   -8428.5851   -8312.5284     301.1082    21052.447    4.9014948 
    2590    1026.7887   -8428.2029    -8313.663     175.7904     21085.01    5.0015094 
    2600    1026.0669   -8429.2361   -8314.7768   -606.79207    21116.435    5.1004632 
    2610    1036.9698   -8431.5403   -8315.8648   -1762.2037    21145.927    5.1992843 
    2620    1046.0109   -8433.6557   -8316.9716   -2672.9993    21172.322    5.2992719 
    2630    1025.8231   -8432.5199   -8318.0878    -2964.809    21194.788    5.4007145 
    2640    995.65846    -8430.238   -8319.1708   -3124.0944    21213.085    5.5012985 
    2650     982.3571   -8429.7525   -8320.1691   -3144.6273    21227.206    5.5978627 
    2660    983.94262   -8430.8276   -8321.0673   -2937.0225    21237.316    5.6883181 
    2670    972.28314   -8430.3035   -8321.8438   -2452.5761    21243.802    5.7722715 
    2680    989.24946   -8432.8658   -8322.5136   -2467.9147    21247.278    5.8522525 
    2690    1025.7015   -8437.5758   -8323.1573   -3108.2535    21247.835    5.9356097 
    2700    1018.4076   -8437.4306   -8323.8258   -2975.1755    21245.059    6.0260917 
    2710     1019.708    -8438.275   -8324.5251   -2966.0512    21239.119    6.1196718 
    2720     998.8362   -8436.6238   -8325.2021   -2062.0984    21230.338    6.2121917 
    2730     971.2465   -8434.1272   -8325.7832   -606.93985    21219.805    6.3016302 
    2740    982.37917   -8435.8463   -8326.2604   -16.034744    21209.058      6.38578 
    2750    1005.8096   -8438.8868   -8326.6872   -409.44248    21198.739    6.4635062 
    2760     983.3048   -8436.7876   -8327.0984   -742.19631    21188.475    6.5343843 
    2770    965.71205   -8435.1648   -8327.4382   -593.29159    21177.972    6.5990239 
    2780    999.91804   -8439.2295   -8327.6872    -762.1503     21167.29      6.66247 
    2790    1001.4195   -8439.5814   -8327.8716   -480.36857    21156.374    6.7295432 
    2800    1008.4318   -8440.5212   -8328.0291   -1055.8915    21145.385    6.7966889 
    2810    1020.2604   -8441.9915     -8328.18   -1790.0401    21133.806    6.8614446 
    2820    1025.6491   -8442.7819   -8328.3692   -2133.9462    21120.906    6.9227428 
    2830    1025.2028    -8442.977    -8328.614   -1859.9714    21106.404    6.9800746 
    2840    1028.4842   -8443.6373   -8328.9083   -1040.0492    21090.667    7.0350599 
    2850    1030.6456   -8444.1965   -8329.2265   -341.05169    21074.551    7.0945369 
    2860    1028.5245    -8444.305   -8329.5715    415.82133    21058.844    7.1607604 
    2870    1008.1073   -8442.3835   -8329.9276    1187.1718    21044.338    7.2283349 
    2880    1013.9201   -8443.3859   -8330.2816    1490.9556    21031.737    7.2934583 
    2890    1021.1368   -8444.5549   -8330.6456    1807.5793     21021.31    7.3591386 
    2900    1015.1608   -8444.2632   -8331.0204    2307.2615    21013.342    7.4273593 
    2910    1042.3839   -8447.7187   -8331.4393    1626.0969    21008.077    7.4991304 
    2920    1012.4655   -8444.8522   -8331.9102    1610.5739    21004.859    7.5769723 
    2930    974.67979   -8441.0868   -8332.3598    1940.3041    21003.546    7.6626353 
    2940    994.04946   -8443.6498   -8332.7621    1627.6359    21004.313    7.7518588 
    2950      989.501   -8443.5089   -8333.1285    1527.7799    21006.822    7.8378668 
    2960    994.31554    -8444.382   -8333.4646     1561.865    21010.901     7.919243 
    2970     1022.186   -8447.7991   -8333.7728      1170.91    21016.446    7.9981106 
    2980    1017.6628   -8447.5888    -8334.067    1150.7015    21023.071    8.0757141 
    2990    1016.9576   -8447.8083   -8334.3652    1220.2424    21030.683    8.1536509 
    3000    1020.9991   -8448.5644   -8334.6704    1509.3074    21039.312    8.2376553 
    3010    1009.2392   -8447.5708   -8334.9887    2435.6096    21049.304    8.3293861 
    3020    1026.9448   -8449.8981   -8335.3408    2612.5684    21061.468    8.4286876 
    3030    1027.2349   -8450.3114   -8335.7218    2285.8655    21075.948    8.5316244 
    3040    1020.7351   -8450.0008   -8336.1362    2030.5083    21092.364    8.6347442 
    3050    997.00101   -8447.7654   -8336.5484    1949.8869      21110.4    8.7409783 
    3060    999.29487   -8448.4236   -8336.9507    1056.1676    21129.809    8.8518792 
    3070    991.93508   -8447.9796   -8337.3278    131.97303    21149.678    8.9657405 
    3080    974.57915   -8446.3788    -8337.663    -877.7695    21168.931    9.0756674 
    3090    963.04232   -8445.3544   -8337.9256   -1653.1097    21186.552    9.1797146 
    3100    976.58111   -8447.0297   -8338.0906   -2527.9103    21201.735    9.2847256 
    3110    1026.2212   -8452.6817   -8338.2052   -3616.1135    21213.555    9.3948555 
    3120    1024.2296   -8452.5752   -8338.3209   -3477.6649    21221.117    9.5080238 
    3130    1041.3957   -8454.6441   -8338.4749    -3102.126    21224.603    9.6175005 
    3140    1063.3556   -8457.3325   -8338.7135   -2341.7196    21224.615    9.7187789 
    3150    1040.9453    -8455.181   -8339.0619   -1527.7924     21222.09    9.8171553 
    3160     1015.357   -8452.7438   -8339.4792   -1478.6067    21217.916    9.9173796 
    3170     987.6882   -8450.0605   -8339.8824   -1824.6474    21212.266    10.021762 
    3180    1003.7959   -8452.2165   -8340.2416   -3072.7162    21204.738    10.130547 
    3190    1030.4654    -8455.543    -8340.593     -3687.05    21194.223    10.238084 
    3200    1042.0502   -8457.2363    -8340.994   -3619.8864    21180.176    10.338296 
    3210    1049.1895   -8458.5286     -8341.49   -3263.1811    21162.768    10.430251 
    3220     1037.559   -8457.8051   -8342.0638   -2381.5778    21142.551    10.516203 
    3230    1044.0013   -8459.1621   -8342.7022   -1230.0129    21120.597    10.599927 
    3240    1032.1974   -8458.5215   -8343.3784   -141.90569    21098.215     10.68147 
    3250    1023.1496   -8458.1948   -8344.0609    602.45092    21076.566    10.763839 
    3260    1028.5797   -8459.4855   -8344.7459    1295.5335     21056.47    10.852297 
    3270     1021.386   -8459.3621   -8345.4249    2384.6957    21038.673    10.943867 
    3280    1029.2182   -8460.9142   -8346.1034    3121.5415    21024.137     11.03245 
    3290    1044.1208   -8463.2734   -8346.8002    3722.6981    21013.544    11.118432 
    3300    1051.7783   -8464.8825    -8347.555    3730.7052    21007.325     11.20938 
    3310    1040.8062   -8464.4842   -8348.3807    3365.7954    21005.354    11.310661 
    3320    1038.4027    -8465.073   -8349.2376    2289.9781    21007.006    11.415648 
    3330    1051.5897   -8467.4233   -8350.1169    1013.5254    21011.045    11.516307 
    3340    1047.1469   -8467.8043   -8350.9935   -77.897074    21016.049    11.616249 
    3350    1048.7163   -8468.8347   -8351.8488   -1612.7228    21020.732    11.719717 
    3360    1024.2568   -8466.9201   -8352.6628   -2759.0428    21023.552    11.825414 
    3370    1013.9778    -8466.522   -8353.4112   -3600.3421    21023.305    11.931484 
    3380    1020.9746   -8468.0073   -8354.1161   -4262.9327    21019.216    12.034047 
    3390    996.30476   -8465.8973    -8354.758   -4039.9205      21010.8    12.125406 
    3400    1003.7802   -8467.2894   -8355.3162   -3691.8839    20998.362    12.204018 
    3410    1052.0366   -8473.2052    -8355.849   -3908.0963    20982.372    12.276932 
    3420    1047.7981   -8473.3258   -8356.4423   -2991.2542    20962.929    12.346982 
    3430    1009.3291   -8469.6403   -8357.0481   -1028.5785    20941.132     12.41075 
    3440    1005.1674   -8469.7153   -8357.5874     534.9057    20919.028    12.470605 
    3450    1028.2196   -8472.7631   -8358.0637    1369.9201    20898.277    12.534228 
    3460     1053.741   -8476.1048   -8358.5584    1946.3225    20879.747    12.602758 
    3470    1056.8674   -8477.0078   -8359.1126    2752.7937    20864.022    12.672279 
    3480    1083.3226   -8480.6355   -8359.7892    2792.7951    20851.721    12.743254 
    3490    1071.0779    -8480.074   -8360.5937    2848.0191     20842.86    12.827806 
    3500    1046.4236   -8478.1884   -8361.4583    2661.4502    20837.331    12.931658 
    3510    1017.2854   -8475.7695   -8362.2897    2077.4358    20834.782    13.046783 
    3520    975.97958   -8471.8895   -8363.0175    1533.6812    20834.524    13.164373 
    3530    956.76084   -8470.3288   -8363.6007    1105.4283    20835.911    13.277151 
    3540    964.07869   -8471.5822   -8364.0377     1225.837    20838.482     13.38025 
    3550    963.17759    -8471.779   -8364.3351    1582.8175    20842.296    13.481738 
    3560    979.81094   -8473.8028   -8364.5034    645.31851    20847.523    13.589522 
    3570    1020.3841   -8478.4086   -8364.5832   -1005.5422    20853.198    13.699809 
    3580    1026.8213   -8479.1997   -8364.6563   -1852.0298    20857.708    13.801127 
    3590    1011.1726   -8477.5563   -8364.7585   -1926.5107    20860.186    13.887894 
    3600    1032.7381   -8480.0928   -8364.8893   -2176.1925    20860.517    13.965711 
    3610    1021.8279   -8479.0447   -8365.0583   -1552.0299    20858.624    14.038222 
    3620    983.03443   -8474.8827   -8365.2237    -440.6602    20855.212    14.097803 
    3630    998.34427   -8476.7095   -8365.3427    29.486468    20851.377    14.145757 
    3640    1020.9701   -8479.3195   -8365.4288    686.60115    20847.716    14.196161 
    3650    1024.9581   -8479.8641   -8365.5285    1477.0949    20844.928     14.26109 
    3660    1045.2457   -8482.2746   -8365.6758    1425.9611    20843.697    14.343163 
    3670    1061.2443    -8484.309   -8365.9256    1750.8671    20844.075    14.431145 
    3680    1019.1412   -8479.9603   -8366.2736    2335.0407    20846.345    14.511801 
    3690    1020.1205   -8480.4642   -8366.6682    1450.3446    20850.881    14.582056 
    3700      1031.98   -8482.2081   -8367.0892    507.05863    20856.838    14.653894 
    3710    1016.6822   -8480.9749   -8367.5625     294.0268    20863.234    14.734323 
    3720    1002.9653   -8479.9534   -8368.0712    235.27382    20869.762    14.821966 
    3730    1003.3832   -8480.5236   -8368.5947    575.70836      20876.4     14.91179 
    3740    1011.3314   -8481.9521   -8369.1365    1151.9683    20883.481    15.001674 
    3750    1025.6957   -8484.1391   -8369.7212    2108.2853     20891.67    15.092355 
    3760    1031.8918   -8485.4901   -8370.3811    2106.1154    20901.789    15.181885 
    3770    1008.0656   -8483.5511   -8371.0998    1396.6616    20913.835    15.272781 
    3780    989.39233   -8482.1741   -8371.8059    367.02071    20927.054    15.367261 
    3790    1013.5064   -8485.5526   -8372.4944   -1165.7043    20940.268    15.459063 
    3800    1003.3767   -8485.1027   -8373.1745   -1635.1406    20952.031    15.545406 
    3810    987.40449   -8483.9673   -8373.8208   -1294.4412    20961.835    15.627111 
    3820    1006.3183   -8486.6745   -8374.4182   -1327.0813    20969.952    15.707216 
    3830    1021.6484   -8488.9667   -8375.0003   -1408.9432    20976.444    15.785107 
    3840    1004.1174   -8487.5761   -8375.5653   -1434.3221    20981.292    15.857795 
    3850    1001.0224   -8487.7651   -8376.0995   -1665.2586    20984.466     15.92957 
    3860    993.44112   -8487.3999   -8376.5801   -1848.1627     20985.78    16.009433 
    3870    998.92104   -8488.4341   -8377.0029   -1924.7453     20985.08    16.103351 
    3880    1005.0221   -8489.4858   -8377.3741   -1882.8847    20982.339    16.212916 
    3890    1006.0697   -8489.9319   -8377.7033   -1921.1274    20977.648    16.332268 
    3900     1012.291   -8490.9111   -8377.9885   -2627.0269    20970.934    16.448638 
    3910    1040.8234   -8494.3594    -8378.254   -3275.4981    20961.582    16.553943 
    3920     1039.334   -8494.4812    -8378.542   -3136.3633     20949.05    16.647258 
    3930    1005.9682   -8491.0474   -8378.8301   -2600.9963    20933.536    16.728128 
    3940     1008.089   -8491.5383   -8379.0845   -2605.5673    20915.597    16.799633 
    3950    992.23852   -8489.9759   -8379.2902   -2197.7344    20895.422     16.86481 
    3960    973.82266   -8488.0363   -8379.4049   -2041.1091    20873.478    16.924264 
    3970    1025.2179   -8493.8167   -8379.4521   -3215.4409    20849.878    16.976518 
    3980    1047.8806   -8496.4254   -8379.5328   -3866.2423    20823.639    17.020788 
    3990    1029.2011    -8494.497   -8379.6881   -3824.7139    20794.167    17.055274 
    4000    1038.2722   -8495.7334   -8379.9126   -3693.5903    20761.584    17.087004 
    4010    1014.1653   -8493.3134   -8380.1818   -2918.4972    20726.245    17.129363 
    4020    1013.6745   -8493.5487   -8380.4718   -2367.7058    20688.996    17.185577 
    4030     1034.125    -8496.138   -8380.7798   -2091.8958    20650.519    17.252532 
    4040    1036.1124   -8496.6721   -8381.0922   -1235.6695    20611.307    17.329377 
    4050    1037.0442   -8497.1082   -8381.4244   -355.43373    20572.243    17.416745 
    4060    1013.9645   -8494.8692     -8381.76    1079.9317    20534.386    17.518084 
    4070    1013.5604   -8495.1419   -8382.0777    1845.1027    20499.081     17.63683 
    4080    1045.5382   -8498.9707   -8382.3393    1425.6211    20467.012    17.775623 
    4090     1077.719   -8502.8417   -8382.6205    942.95732    20437.784    17.924463 
    4100    1078.0406   -8503.2612   -8383.0041    1128.8801      20410.9    18.072058 
    4110    1076.9069   -8503.6665   -8383.5359    988.27834    20386.349    18.219419 
    4120    1051.2544   -8501.4427   -8384.1737    1026.2778    20363.974    18.369267 
    4130    1038.7937   -8500.7221   -8384.8431    354.22893    20343.642    18.521221 
    4140    1062.9269   -8504.1112   -8385.5401   -1152.3321    20324.561    18.672809 
    4150    1049.8418   -8503.3833   -8386.2718   -1830.9621     20305.33    18.818706 
    4160     1028.786   -8501.7563   -8386.9936   -1192.1612    20285.335    18.949019 
    4170    1053.2819   -8505.1768   -8387.6817   -202.25299    20265.145    19.056825 
    4180    1064.9514    -8507.164   -8388.3671    1291.0014    20245.801     19.14503 
    4190    1066.8235   -8508.0841   -8389.0783    2102.2787    20228.603    19.227153 
    4200    1063.1739   -8508.4197   -8389.8211    2347.3385    20214.266     19.31357 
    4210    1054.4775   -8508.2062   -8390.5776    2085.5374    20202.888    19.408595 
    4220     1057.963   -8509.3613    -8391.344    1507.4421    20194.082    19.517347 
    4230    1058.1307   -8510.1499   -8392.1138    683.96576    20187.152    19.642817 
    4240    1047.6902   -8509.7505   -8392.8791   -186.78874    20181.209    19.782236 
    4250    1054.4494   -8511.2413   -8393.6159   -1693.9907    20175.276      19.9262 
    4260    1068.6574   -8513.5627   -8394.3524   -3436.5456     20167.91    20.060613 
    4270    1054.2582   -8512.7017   -8395.0976   -3821.2684    20157.603    20.176855 
    4280     1056.796   -8513.7315   -8395.8443   -3411.7901    20144.039    20.275118 
    4290    1034.5639   -8511.9724   -8396.5653   -2196.6385    20127.829     20.35997 
    4300    1048.9297   -8514.2697     -8397.26   -2289.2067    20110.042    20.440626 
    4310    1077.6119   -8518.2006   -8397.9914   -2476.9273    20090.794    20.523241 
    4320    1070.3456   -8518.1822   -8398.7836   -1710.3936    20070.039     20.60647 
    4330    1076.3784   -8519.7066    -8399.635   -567.67165    20048.548    20.679652 
    4340    1060.7157   -8518.8603   -8400.5358    219.91657    20027.389    20.729121 
    4350    1011.7128   -8514.2587   -8401.4006    1082.1936    20007.369    20.757912 
    4360    1027.4427   -8516.7897   -8402.1769    806.94835    19989.153    20.789211 
    4370    1052.5265   -8520.3497   -8402.9388    823.78151    19972.539    20.837822 
    4380    1047.8266   -8520.5785   -8403.6918    1441.1836    19957.466    20.900879 
    4390     1060.877   -8522.8077   -8404.4653    2311.4685    19944.434    20.971807 
    4400    1026.2021   -8519.6941   -8405.2198    3692.8618    19934.216    21.047364 
    4410    1020.9304   -8519.7879   -8405.9015    4305.7485    19927.932    21.123246 
    4420    1054.9335   -8524.2468   -8406.5674     3951.429    19925.987    21.200203 
    4430    1060.4962   -8525.5811   -8407.2812     3664.987    19927.952    21.284843 
    4440     1049.414   -8525.1142   -8408.0505    2921.1205    19933.333    21.384774 
    4450      1023.47    -8522.979   -8408.8094    1620.0234    19941.293    21.504286 
    4460    1027.4826   -8524.1525   -8409.5353    211.94534    19950.535    21.640376 
    4470    1027.2758   -8524.8157   -8410.2215   -424.70128    19959.711    21.780805 
    4480     1038.756   -8526.7723   -8410.8975   -494.19192    19968.183    21.919566 
    4490    1047.8463   -8528.4789   -8411.5901   -945.41131    19975.837    22.061774 
    4500    1017.7365   -8525.8242   -8412.2942   -1014.4943    19982.348    22.210207 
    4510    991.58523   -8523.5531   -8412.9403    -1186.651    19987.642    22.369519 
    4520    1021.2807   -8527.4451   -8413.5197   -1854.1831    19991.571    22.537341 
    4530    1038.2279   -8529.9023   -8414.0864   -2535.1808    19993.545    22.701319 
    4540    1028.4543   -8529.3836    -8414.658   -2924.4738    19993.016    22.853928 
    4550    1063.0614   -8533.8577   -8415.2716     -4164.51    19989.574    22.996928 
    4560    1077.2097   -8536.1596   -8415.9952   -5198.9108    19982.214    23.130099 
    4570    1052.0901   -8534.1807   -8416.8184   -5405.6548    19970.113      23.2512 
    4580    1040.8841   -8533.7972    -8417.685   -5075.9007    19953.201    23.357965 
    4590    1019.2356   -8532.2155   -8418.5182   -4217.6322    19931.977    23.449886 
    4600    1026.0648   -8533.7492   -8419.2901   -3087.0174    19907.412    23.529281 
    4610    1045.1303   -8536.6111   -8420.0252   -2061.4781     19880.71    23.603452 
    4620    1051.6963   -8538.0851   -8420.7668   -1392.6006    19852.943    23.677618 
    4630    1036.1796   -8537.1028   -8421.5154   -1296.8141    19824.774    23.752619 
    4640    1029.1545   -8537.0582   -8422.2545   -1672.7716    19796.318    23.830425 
    4650    1040.6516   -8539.0697   -8422.9835   -1760.5307    19767.296    23.910009 
    4660    1038.1873   -8539.5113   -8423.6999   -311.52266    19737.755    23.982873 
    4670    1034.6226    -8539.785   -8424.3712    1485.6468    19708.993    24.044846 
    4680    1057.5786   -8543.0072   -8425.0327    2747.0629    19682.618    24.108565 
    4690    1039.8422   -8541.6855   -8425.6895      4723.85    19659.865    24.186078 
    4700    1016.6123   -8539.7147     -8426.31    6542.7805    19642.385    24.284526 
    4710    1045.7192   -8543.5841   -8426.9325    6207.5944    19631.503    24.411444 
    4720    1031.3121   -8542.6236   -8427.5792    4936.2027    19626.749    24.569627 
    4730    1002.8242   -8540.0698   -8428.2033    3782.8082    19626.821    24.754823 
    4740     1027.379   -8543.3798   -8428.7741    1637.0379    19630.371    24.958101 
    4750    1050.9195   -8546.5624   -8429.3307   -172.12852    19635.369    25.162485 
    4760    1048.9019    -8546.921   -8429.9144   -859.62905    19640.118     25.34957 
    4770      1048.27   -8547.4732   -8430.5371   -1623.7357    19643.891    25.513541 
    4780    1047.2737   -8548.0187   -8431.1938   -2575.1074    19645.989    25.662101 
    4790    1030.6445   -8546.8377   -8431.8677   -2740.8702    19645.662    25.803381 
    4800    1011.7956   -8545.3972   -8432.5298   -2484.4681    19642.813     25.94653 
    4810    1036.3236   -8548.7772   -8433.1738   -2636.6584    19637.695    26.099732 
    4820    1057.6004   -8551.8278   -8433.8509   -2924.0638    19630.274    26.262314 
    4830    1042.2972    -8550.834   -8434.5641   -2728.6004    19620.399    26.423795 
    4840    1053.4503   -8552.8351   -8435.3211   -2304.8422    19608.287    26.570732 
    4850    1030.5269   -8551.0485   -8436.0917   -853.11042    19594.527    26.708464 
    4860    1019.4029   -8550.5484   -8436.8325    385.66131    19580.412    26.851952 
    4870    1039.4269   -8553.4677    -8437.518    1256.6261    19567.113     27.01806 
    4880    1058.3599   -8556.2273   -8438.1657    1737.0576    19555.423    27.216238 
    4890    1067.1932   -8557.9071   -8438.8601    1663.9262    19545.718    27.442628 
    4900    1040.1136   -8555.6236   -8439.5973    1721.3093    19537.919    27.686248 
    4910    1019.4089   -8554.0149   -8440.2983    1646.4634    19531.988    27.926038 
    4920    1023.9014   -8555.1591   -8440.9414    1518.1753     19527.79    28.144716 
    4930    1023.4855   -8555.7097   -8441.5383    2166.8281     19525.23    28.346558 
    4940    1027.0493   -8556.7013   -8442.1324    3009.9304      19524.8    28.549383 
    4950    1014.8973   -8555.9231   -8442.7097     3083.646    19527.122    28.780251 
    4960    1036.3014   -8558.8503   -8443.2494    2147.9758    19532.153     29.04679 
    4970    1053.8413   -8561.3466    -8443.789    1109.2846    19539.001    29.338965 
    4980    1051.5302   -8561.6663   -8444.3665    138.53846    19546.646     29.64184 
    4990    1050.5419   -8562.1943   -8445.0047   -975.32444    19554.132    29.936499 
    5000    1040.0311   -8561.6833   -8445.6663   -1419.1136    19560.512    30.210878 
Loop time of 1894.17 on 16 procs for 3000 steps with 864 atoms

Performance: 0.137 ns/day, 175.386 hours/ns, 1.584 timesteps/s
96.6% CPU use with 16 MPI tasks x 1 OpenMP threads

MPI task timing breakdown:
Section |  min time  |  avg time  |  max time  |%varavg| %total
---------------------------------------------------------------
Pair    | 658.32     | 1135       | 1883.1     |1113.1 | 59.92
Bond    | 0.00022769 | 0.00045019 | 0.0007422  |   0.0 |  0.00
Neigh   | 0.027967   | 0.046988   | 0.087878   |   9.2 |  0.00
Comm    | 0.32848    | 505.98     | 1086.2     |1410.1 | 26.71
Output  | 0.1827     | 0.18506    | 0.21951    |   2.1 |  0.01
Modify  | 0.30795    | 252.98     | 771.24     |1546.3 | 13.36
Other   |            | 0.01206    |            |       |  0.00

Nlocal:        54.0000 ave          89 max          36 min
Histogram: 6 2 2 0 1 1 1 0 1 2
Nghost:        511.125 ave         690 max         372 min
Histogram: 4 0 2 2 0 3 1 2 0 2
Neighs:         0.00000 ave           0 max           0 min
Histogram: 16 0 0 0 0 0 0 0 0 0
FullNghs:      2603.38 ave        5929 max        1052 min
Histogram: 8 0 2 0 2 0 1 1 0 2

Total # of neighbors = 41654
Ave neighs/atom = 48.210648
Ave special neighs/atom = 0.0000000
Neighbor list builds = 300
Dangerous builds = 300
unfix   2

fix     3 all npt temp 1012.5 1012.5 $(100.0*dt) aniso 1.01325 1.01325 $(1000.0*dt)
fix     3 all npt temp 1012.5 1012.5 0.10000000000000000555 aniso 1.01325 1.01325 $(1000.0*dt)
fix     3 all npt temp 1012.5 1012.5 0.10000000000000000555 aniso 1.01325 1.01325 1
run     20000
Per MPI rank memory allocation (min/avg/max) = 8.895 | 8.909 | 8.923 Mbytes
Step Temp PotEng TotEng Press Volume c_msd[4] 
    5000    1040.0311   -8561.6833   -8445.6663   -1419.1136    19560.512    30.210878 
    5010    1054.5041   -8563.3457   -8445.7142   -1420.6007    19559.835     30.26875 
    5020    1052.8993   -8563.3082   -8445.8557   -1064.4102    19557.874    30.313018 
    5030    1077.2032   -8566.2896   -8446.1259   -1684.2927    19554.819    30.351832 
    5040    1060.2843    -8564.819   -8446.5427   -1794.8479    19550.214    30.390162 
    5050    1014.6451   -8560.2222    -8447.037   -1321.4848    19543.974    30.421416 
    5060    1050.8424   -8564.8183   -8447.5953   -2050.0684    19536.347    30.436566 
    5070    1041.0028   -8564.3704   -8448.2449   -1551.4153    19526.888    30.431222 
    5080    1002.7059   -8560.7881   -8448.9347    121.60428    19516.057    30.404483 
    5090    1012.0276   -8562.4993   -8449.6061    1679.2778    19505.322    30.368609 
    5100    1030.6894   -8565.2453   -8450.2704    2844.5205    19496.135    30.340328 
    5110    1037.1431   -8566.6732   -8450.9784    4337.4532    19489.645     30.32105 
    5120    994.78866   -8562.6489   -8451.6788    6302.9288    19487.291    30.310945 
    5130    1002.4245   -8564.1451   -8452.3231    6406.1078    19490.726    30.315369 
    5140    1046.9494   -8569.7517    -8452.963    4578.3377    19500.043    30.338886 
    5150    1045.7437   -8570.2688   -8453.6145    2898.3776     19513.74    30.382775 
    5160    1031.4988    -8569.325   -8454.2597    1380.0998    19530.244    30.435047 
    5170     1031.484   -8569.9017   -8454.8381   -62.371476    19548.101    30.482368 
    5180    1058.1731   -8573.4229   -8455.3821   -884.79244    19565.996    30.529567 
    5190    1032.1635   -8571.0411   -8455.9017   -539.21054    19583.228    30.585874 
    5200    1041.0158   -8572.5189    -8456.392   -541.55458     19599.94    30.657377 
    5210    1044.7935   -8573.3975   -8456.8492   -285.43538    19616.207    30.747436 
    5220    1013.1925   -8570.2866   -8457.2635   -201.55399     19632.24    30.850375 
    5230    1006.7867   -8569.9116    -8457.603   -1200.6022    19648.023    30.956122 
    5240    1016.8806   -8571.3113   -8457.8768   -2000.5013    19662.714    31.063671 
    5250    1032.7316   -8573.3379   -8458.1351   -2557.6166    19675.515    31.177086 
    5260    1021.9335   -8572.4041   -8458.4059   -2413.2418    19685.935    31.296561 
    5270      1009.65   -8571.3046   -8458.6766   -2045.8057    19694.084    31.425331 
    5280    1026.8255    -8573.468   -8458.9241   -2665.2006    19700.182     31.56665 
    5290    1016.7021     -8572.56   -8459.1453   -3420.3349    19703.736    31.713995 
    5300      1018.87   -8573.0146   -8459.3581    -4092.717    19704.033     31.85388 
    5310    1031.7773   -8574.6885   -8459.5922   -4116.1883     19700.46    31.968401 
    5320    1018.5854   -8573.4915   -8459.8668   -3182.0357    19693.008    32.056457 
    5330    1023.1095   -8574.3118   -8460.1824   -2033.4567    19682.518    32.139159 
    5340    1026.4958   -8575.0363   -8460.5292   -1498.7362    19670.033    32.231424 
    5350    1026.4371   -8575.3972   -8460.8966   -781.81112    19656.178    32.326355 
    5360    1039.8966   -8577.2973   -8461.2953   -380.21549    19641.589    32.421083 
    5370     1025.532   -8576.1213   -8461.7216   -182.58078    19626.661    32.529564 
    5380     1012.125   -8575.0677   -8462.1636    78.743975    19611.633    32.660163 
    5390    1015.8139   -8575.9153   -8462.5997   -217.85187    19596.703    32.812317 
    5400    1041.9474   -8579.2767   -8463.0459   -235.63306    19581.697    32.981789 
    5410    1052.7922   -8580.9973   -8463.5568     465.0892    19566.648    33.159732 
    5420    1034.2141   -8579.5046   -8464.1365    1848.7221    19552.214    33.339669 
    5430    1026.1854   -8579.2061   -8464.7336    3168.4491    19539.659    33.515834 
    5440    1037.2817   -8581.0681   -8465.3577    3865.3026    19530.185    33.683637 
    5450    1032.4397   -8581.2043   -8466.0341    4049.6076    19524.406    33.855361 
    5460    1038.7751   -8582.6245   -8466.7476    3404.1694    19522.432    34.044939 
    5470    1047.2163    -8584.321   -8467.5024    2600.4876    19523.664    34.257417 
    5480    1013.9687   -8581.3442   -8468.2344    2642.5698    19527.423    34.493728 
    5490     1010.776   -8581.6343   -8468.8807    1903.0371    19533.572    34.746686 
    5500    1041.8668   -8585.6803   -8469.4585   -3.3403011    19541.337    35.002804 
    5510    1050.8155   -8587.2546   -8470.0345    -998.7827    19549.073    35.245382 
    5520    1037.6146   -8586.3566   -8470.6091   -252.12966    19555.927    35.463844 
    5530    1064.3702   -8589.9221     -8471.19    385.34014    19562.445    35.656002 
    5540    1086.3437   -8592.9893    -8471.806    278.85494    19569.155    35.822346 
    5550    1048.0809     -8589.36   -8472.4449     1072.699      19576.1    35.961158 
    5560    1009.7188   -8585.6456   -8473.0099    2011.4586    19583.977    36.078413 
    5570    1051.6558   -8590.8255   -8473.5117    708.98885    19593.433     36.18119 
    5580    1049.3235   -8591.0542   -8474.0006    -113.3805    19603.472    36.279468 
    5590    1016.0873   -8587.8156   -8474.4695    337.30528    19613.364    36.379229 
    5600     1025.515   -8589.2911   -8474.8933    186.15337    19623.367    36.477947 
    5610    1024.8484   -8589.6147   -8475.2914   -548.29766    19633.351    36.574777 
    5620    1015.7851   -8588.9731   -8475.6607   -1972.2444    19642.609    36.669332 
    5630    1054.3776    -8593.653   -8476.0356   -4261.7274    19649.764    36.759262 
    5640    1044.2505   -8592.9534   -8476.4657   -4824.1661    19652.916    36.839731 
    5650    1008.2184   -8589.3922   -8476.9239   -3672.7141    19651.575    36.907199 
    5660    1022.9095   -8591.4706   -8477.3635   -2504.6234    19646.763    36.966464 
    5670    1052.5257   -8595.2274   -8477.8166   -1257.6825    19639.655    37.024662 
    5680    1036.7799   -8593.9742   -8478.3199    416.10716    19631.483    37.076511 
    5690    1007.5724    -8591.213   -8478.8168    1690.1878    19623.808    37.106337 
    5700    1028.4031   -8594.0221   -8479.3022     1837.321    19617.753    37.112333 
    5710    1033.6268   -8595.0955   -8479.7929    2570.8017    19613.616    37.112927 
    5720    1048.0724   -8597.2434   -8480.3293    3045.9307    19611.946     37.13749 
    5730    1046.3212   -8597.6423   -8480.9236    3437.6781     19613.19    37.205146 
    5740    1018.5702   -8595.1866   -8481.5636    3548.8625    19617.664    37.314518 
    5750    1010.9875   -8594.9554   -8482.1782    2056.3456    19625.316    37.454145 
    5760    1034.2911   -8598.1406   -8482.7638    317.80662    19634.802    37.606436 
    5770    1017.1612   -8596.7909    -8483.325    132.00817    19644.601    37.754072 
    5780     1013.978   -8596.9622   -8483.8515    88.483956    19654.399    37.885542 
    5790    1027.4146   -8598.9593   -8484.3497   -212.69363    19664.115     37.99435 
    5800    1013.9851   -8597.9661   -8484.8545   -116.33164    19673.546    38.071578 
    5810    967.02328   -8593.1628   -8485.2899    493.02046    19682.842    38.116958 
    5820    1004.5995   -8597.6936    -8485.629   -302.97661    19692.367    38.135131 
    5830    1041.7276    -8602.147   -8485.9408   -1314.0081    19701.454    38.125444 
    5840    995.81429   -8597.3378   -8486.2532   -396.59435    19709.353    38.090614 
    5850    1006.7413   -8598.8464   -8486.5429    173.84796    19716.736    38.042593 
    5860    1049.1119   -8603.8516   -8486.8216   -556.52941    19724.066    37.998493 
    5870    1017.8811   -8600.6717   -8487.1255   -431.49287    19730.866    37.972957 
    5880    992.85159     -8598.17   -8487.4159   -104.88729    19737.193    37.973817 
    5890    1009.8588   -8600.3252   -8487.6739   -49.320294     19743.32    38.000033 
    5900    1007.0921   -8600.2575   -8487.9148    391.25149    19749.379    38.044074 
    5910    1009.4104   -8600.7456   -8488.1443    134.75277    19755.698    38.099465 
    5920    1031.9731   -8603.4925   -8488.3744   -567.89569    19762.062    38.156538 
    5930    1036.9273    -8604.318   -8488.6472   -397.98384    19767.902    38.208985 
    5940    1013.2143   -8601.9849   -8488.9594    667.51562    19773.366    38.264269 
    5950    1019.5136   -8603.0185   -8489.2902    1193.9492    19779.362    38.333279 
    5960    1012.7934   -8602.5981   -8489.6195    1000.0676    19786.393    38.421524 
    5970    993.76042     -8600.79   -8489.9345    655.38521    19794.312    38.529254 
    5980    987.33948   -8600.3465   -8490.2073    67.240485    19802.763     38.64484 
    5990    1011.1505   -8603.2321   -8490.4367   -454.50477    19811.223    38.747738 
    6000    1035.9437   -8606.2275   -8490.6664    -836.8349    19819.179    38.831287 
    6010    1019.6632   -8604.6874   -8490.9425   -459.49166    19826.317    38.904963 
    6020    988.77491   -8601.5236   -8491.2243   -169.68716     19832.93    38.981944 
    6030    1031.8602   -8606.6139   -8491.5084   -1433.9029    19839.174    39.070826 
    6040    1035.4994   -8607.3578   -8491.8463   -2438.0772    19843.983    39.171887 
    6050    989.21879   -8602.5735   -8492.2247   -2059.7989    19846.511     39.27207 
    6060    1026.0598   -8607.0919   -8492.6334   -2553.7957    19846.932    39.355434 
    6070    1045.0519   -8609.7293   -8493.1522   -2711.8215    19844.895    39.418328 
    6080    1000.2407   -8605.3883   -8493.8099   -1422.2047    19840.378    39.471904 
    6090    994.90828   -8605.5468   -8494.5632   -499.24805    19834.491    39.528967 
    6100    1031.7968   -8610.5397   -8495.4412   -657.51663    19828.099    39.597731 
    6110    1043.2911   -8612.9341   -8496.5534   -1261.8652    19821.097    39.681929 
    6120    991.25732   -8608.4156   -8497.8394   -1251.4457    19813.016    39.775235 
    6130    1002.4177   -8610.9965   -8499.1753   -1469.7505    19803.766    39.879642 
    6140    1031.8587   -8615.6349   -8500.5295   -1198.1601    19793.219     40.00921 
    6150     1010.674   -8614.5239   -8501.7817      -529.62     19781.67    40.164773 
    6160    1023.2994   -8617.0155   -8502.8649   -1438.1939    19769.578    40.333831 
    6170    1011.0922   -8616.5446   -8503.7557   -1966.5535    19756.279     40.49808 
    6180    968.79163   -8612.4762    -8504.406   -963.89382    19741.374    40.647015 
    6190     957.3655   -8611.5933   -8504.7977    405.38646    19725.756    40.781849 
    6200    969.19846   -8613.1038   -8504.9882     1168.295    19710.663    40.910114 
    6210    989.79621   -8615.4741   -8505.0609    1417.6976    19696.844    41.045141 
    6220    1029.1201   -8619.9072   -8505.1073    1033.3202    19684.503    41.199879 
    6230    1038.3662   -8621.0314   -8505.2001    1002.9781    19673.353    41.372981 
    6240    1002.8786   -8617.1978   -8505.3252    1779.9474     19663.39    41.551716 
    6250    996.56622   -8616.5857   -8505.4172    2706.8083    19655.271     41.73244 
    6260    1007.2976   -8617.8099   -8505.4443     3605.269    19649.843    41.918806 
    6270    1017.3182   -8618.9248   -8505.4414    4245.4628    19647.898    42.123064 
    6280    1027.5024   -8620.0942   -8505.4748    4130.9871    19649.945    42.365789 
    6290    1004.5365   -8617.6031   -8505.5455    3501.1014    19655.858    42.652408 
    6300    999.27352   -8617.0724    -8505.602    2694.2114    19665.005    42.958911 
    6310    1013.3736   -8618.6684   -8505.6251    2282.0328    19676.642    43.255093 
    6320     1024.105    -8619.898   -8505.6576    1612.7625    19690.266    43.528413 
    6330    1006.4386   -8617.9834   -8505.7137    1020.1053    19705.255    43.779177 
    6340    985.91872   -8615.7418    -8505.761    728.65024    19721.063    44.018286 
    6350    1005.7834    -8617.936   -8505.7394   -674.33668    19737.267    44.255335 
    6360    1055.6741   -8623.4511   -8505.6891   -2578.9282    19752.552    44.487318 
    6370    1035.2305   -8621.1792   -8505.6977   -3265.5336    19765.235    44.702074 
    6380    1004.8046   -8617.8527   -8505.7653   -3604.1732    19774.615    44.888375 
    6390    1034.2527   -8621.2385    -8505.866   -5039.3067    19780.279    45.038342 
    6400    1035.1149   -8621.5001   -8506.0315   -5733.0958    19781.072    45.152396 
    6410    1014.9825   -8619.4958   -8506.2729   -5460.2976     19776.42     45.24455 
    6420    1027.0622   -8621.1452   -8506.5748   -5623.6864    19766.529    45.317501 
    6430    1006.3495   -8619.1785   -8506.9187   -4777.0188    19751.489    45.365876 
    6440    997.86638   -8618.5738   -8507.2603    -3110.831    19732.188    45.389541 
    6450    1017.0786   -8621.0518   -8507.5952   -1177.5337    19710.238    45.392805 
    6460    989.04709   -8618.2351   -8507.9054    1270.7667    19687.558    45.381019 
    6470    999.30304   -8619.6576   -8508.1838    2027.7253    19666.313     45.36087 
    6480    1028.9103   -8623.2616   -8508.4851    996.37825    19647.175    45.342053 
    6490    1007.1927    -8621.202   -8508.8481    310.36078    19629.315    45.329946 
    6500    975.89209   -8618.0876   -8509.2254    428.85224    19612.103    45.320718 
    6510    973.22185   -8618.1159   -8509.5515    620.34884    19595.571    45.308313 
    6520    1003.7166   -8621.7965   -8509.8304    855.68058    19579.895    45.292002 
    6530    1033.6982   -8625.4337   -8510.1231    1697.9772    19565.317    45.277814 
    6540    1025.0845   -8624.8197     -8510.47    2981.0577    19552.613    45.268598 
    6550    1033.6133   -8626.1981    -8510.897    3644.6186    19542.835    45.266114 
    6560    1032.9324   -8626.6507   -8511.4256    4471.5301    19536.655    45.269596 
    6570    999.65354   -8623.5492   -8512.0364    5252.1973    19534.791    45.275462 
    6580    985.93461   -8622.6659   -8512.6834    5100.3092    19537.829     45.29195 
    6590    981.86662   -8622.8449   -8513.3162    4215.1235    19545.581    45.329336 
    6600    1002.5763   -8625.7781   -8513.9392    2390.6263    19557.138    45.390385 
    6610    1000.0887   -8626.1099   -8514.5485    457.10415    19570.821    45.462184 
    6620    996.14534   -8626.2663   -8515.1448   -1007.4565    19584.821    45.525005 
    6630    999.39507   -8627.1988   -8515.7148    -2039.795    19597.748    45.574381 
    6640     992.4215   -8626.9655   -8516.2593   -3010.5751    19608.591    45.601507 
    6650    997.91043   -8628.0979   -8516.7795   -3675.7631    19616.464    45.593216 
    6660    1004.8373   -8629.3887   -8517.2976   -3375.3958    19620.825    45.546397 
    6670    979.04924   -8627.0081   -8517.7937   -2220.6614    19622.026    45.473486 
    6680    993.76585   -8629.1005   -8518.2444   -1474.8657     19621.09    45.389719 
    6690    1012.8599   -8631.6631   -8518.6771   -692.52421    19618.773    45.297769 
    6700     972.1252   -8627.5188   -8519.0768    1211.8617    19615.938    45.189206 
    6710    959.85258   -8626.4549   -8519.3819    2051.0961    19614.199    45.063834 
    6720    989.70226   -8629.9912   -8519.5884    1196.0861    19614.282    44.933087 
    6730     1002.266   -8631.5433    -8519.739    530.13183    19615.537    44.813766 
    6740    994.73848   -8630.8336    -8519.869    208.22522    19617.311    44.728268 
    6750    966.66901   -8627.7836   -8519.9502   -158.64224    19619.246    44.684727 
    6760    957.50401   -8626.7574   -8519.9463   -451.46152    19620.997    44.670512 
    6770      963.013   -8627.2463   -8519.8207   -673.29288    19622.312    44.670317 
    6780    984.00664   -8629.3569   -8519.5895   -1230.9505    19622.938    44.676568 
    6790    970.72996   -8627.5264     -8519.24   -1049.5678    19622.458    44.696323 
    6800    973.32653   -8627.3297   -8518.7537   -676.09954    19620.982    44.745468 
    6810    976.91569    -8627.039   -8518.0626     -24.0753    19618.905    44.830477 
    6820    1020.8919   -8631.0268   -8517.1448    673.42333    19616.831    44.952817 
    6830    1048.3842     -8632.98   -8516.0312    1843.1878    19615.466    45.112571 
    6840    1036.8468   -8630.5171   -8514.8553    3484.2027    19615.915    45.306027 
    6850    1002.2607   -8625.5163   -8513.7127    4999.2438    19619.695    45.524861 
    6860    1010.5454   -8625.3477   -8512.6198    4945.3403    19628.069    45.766896 
    6870    1047.3617   -8628.4145   -8511.5798    3729.7218    19640.972    46.031437 
    6880    1052.0092   -8628.0442    -8510.691    2803.4024    19657.346    46.310824 
    6890    1020.6029   -8623.8528    -8510.003    2125.7133    19676.301    46.601144 
    6900    1035.9345   -8625.0181   -8509.4581   -187.24769    19696.962    46.909536 
    6910    1070.3447   -8628.3984   -8508.9998   -3278.3552    19717.171      47.2342 
    6920    1049.6426   -8625.7603   -8508.6711   -4955.2933    19734.161    47.547195 
    6930    1036.4898   -8624.0976   -8508.4756   -5224.3128    19746.335    47.812756 
    6940    1042.4338   -8624.6563   -8508.3712   -4520.8738    19753.426    48.000926 
    6950    1034.2905   -8623.7247   -8508.3481   -3065.2984    19756.158    48.113299 
    6960    1032.9881   -8623.6187   -8508.3874   -1597.7252    19755.884      48.1853 
    6970    1042.1054   -8624.7358   -8508.4874    77.727404    19754.093     48.25399 
    6980    1022.4292   -8622.6809   -8508.6274    1387.9527    19752.384    48.339469 
    6990     1036.856   -8624.4676   -8508.8048    876.22252    19751.881    48.436471 
    7000    1078.7738   -8629.3978    -8509.059   -1017.6665    19752.109     48.52979 
    7010    1077.9772   -8629.7207   -8509.4707   -1819.7659    19751.448    48.607952 
    7020    1027.7255   -8624.6292   -8509.9849   -1335.4556    19749.156    48.666993 
    7030    1036.1968   -8626.1244    -8510.535   -1064.4217    19745.563    48.707048 
    7040    1032.7993   -8626.3066   -8511.0963    -340.3965    19741.022    48.731919 
    7050      1048.55   -8628.6566   -8511.6892    538.36038    19736.234     48.74504 
    7060    1053.5173   -8629.8644    -8512.343    924.60035    19731.964    48.757449 
    7070    1030.9671   -8628.0321   -8513.0261    1600.2389    19728.645    48.782057 
    7080     1024.194   -8627.9469   -8513.6965    1975.6489    19726.898    48.828454 
    7090    1048.9512   -8631.3698   -8514.3577    1153.1828    19726.961    48.897706 
    7100    1047.7163   -8631.9273   -8515.0529    830.47552    19728.191    48.981456 
    7110    989.72218   -8626.1133   -8515.7083    1087.9743    19730.283    49.071113 
    7120    993.50786   -8627.0873   -8516.2601    285.99125     19733.31    49.160026 
    7130    1013.4497   -8629.7567   -8516.7049   -979.59944     19736.58    49.247049 
    7140    1028.8119   -8631.8741   -8517.1086    -2264.727    19738.876    49.330743 
    7150    991.26351   -8628.0526   -8517.4757   -2384.7257    19739.099    49.422595 
    7160    1008.4922   -8630.2799   -8517.7811   -2507.1733    19737.026    49.535295 
    7170    1053.3322   -8635.5921   -8518.0913   -2887.2141    19732.508    49.663997 
    7180    1002.6603   -8630.2562    -8518.408   -1955.2463    19725.376    49.795175 
    7190    1020.5904   -8632.5573   -8518.7089   -1168.2847    19716.378    49.922435 
    7200    1026.0731   -8633.4518   -8518.9918   -182.49585    19706.341    50.046542 
    7210    1011.8181   -8632.1437   -8519.2738    761.09291    19696.192    50.169025 
    7220    1017.6434   -8633.0552   -8519.5355    571.77836    19686.751    50.294246 
    7230    1023.8268   -8634.0087   -8519.7993   -405.87086    19677.859    50.428962 
    7240    1002.5086   -8631.8909   -8520.0596   -753.82652    19668.716    50.575101 
    7250     1014.683   -8633.4951   -8520.3057   -1436.9917    19658.882    50.726285 
    7260    1047.2972   -8637.3886    -8520.561   -2383.2098    19647.724    50.867115 
    7270    1053.7298   -8638.4435   -8520.8984   -2307.7669    19634.454    50.980888 
    7280    1028.4439   -8636.0321   -8521.3077   -917.78448    19619.183    51.059281 
    7290     1023.479   -8635.8983   -8521.7276    571.21301    19603.174    51.099816 
    7300    1036.2372   -8637.7491   -8522.1553    692.74287    19587.724    51.106978 
    7310    1032.4035   -8637.7745   -8522.6083    618.37676    19573.039    51.102554 
    7320     1039.729   -8639.0887   -8523.1053    1291.6878    19559.129    51.120425 
    7330    1058.2262    -8641.715   -8523.6683    2298.4439    19546.606    51.180277 
    7340    1059.7657   -8642.5161   -8524.2976    3410.9664    19536.395    51.281271 
    7350    1043.0953    -8641.317   -8524.9581    3707.2508    19529.422    51.417276 
    7360    1034.1131   -8640.9769   -8525.6201    3631.9336    19525.993    51.580608 
    7370    1022.0928   -8640.2685   -8526.2525    3194.6214    19526.005    51.756493 
    7380    1049.8388   -8643.9957   -8526.8846    1991.9493    19528.959    51.927697 
    7390    1061.7182   -8645.9588   -8527.5226    947.01105    19533.769    52.074008 
    7400    1048.5437   -8645.1102   -8528.1436    1182.6985    19539.542      52.1819 
    7410    1052.6423   -8646.1698   -8528.7459    1452.4563    19546.358    52.265514 
    7420     1033.746   -8644.6331   -8529.3172    1394.8257     19554.44    52.350314 
    7430    1024.3643   -8644.0914    -8529.822    800.59569    19563.712    52.436947 
    7440     1071.936   -8649.8645   -8530.2884    -934.0263     19573.54    52.519295 
    7450    1072.2397   -8650.3787   -8530.7688   -1889.0651    19582.443    52.594423 
    7460    1022.5948   -8645.3141   -8531.2421   -941.66376    19589.644    52.652326 
    7470    1005.7027   -8643.8473   -8531.6597   -631.99993    19595.838      52.6879 
    7480    1021.3723   -8645.9517   -8532.0161   -1064.5278     19601.31    52.712462 
    7490    1037.7527   -8648.1221   -8532.3593   -1025.8733    19605.778     52.73877 
    7500     1045.268   -8649.3392    -8532.738   -840.05441    19609.248     52.76558 
    7510    1023.1616   -8647.2813   -8533.1461   -1091.8784    19611.844    52.782826 
    7520    1021.0531   -8647.4492   -8533.5491   -2360.4484    19613.296    52.786744 
    7530    1056.9085   -8651.8814   -8533.9816   -3614.0503    19612.497    52.776352 
    7540    1056.2456   -8652.3247   -8534.4989   -3228.1963     19608.43    52.741705 
    7550    1019.0924   -8648.7561   -8535.0748   -2174.6548    19601.384    52.684649 
    7560    1007.2132   -8647.9893   -8535.6331   -1250.2251    19592.337    52.622696 
    7570    1026.0456   -8650.6095   -8536.1526   -451.56423    19582.165    52.562696 
    7580    1034.3224   -8652.0434   -8536.6632    993.08704    19571.713    52.495954 
    7590    1013.7821   -8650.2671   -8537.1782    2154.5733    19562.257    52.428716 
    7600    1000.0886   -8649.2215   -8537.6602    2717.7299     19554.87    52.374536 
    7610    1009.8462   -8650.7453   -8538.0954    2912.8316    19550.087    52.344157 
    7620    1024.6955    -8652.819   -8538.5126    3098.4562    19548.102    52.348543 
    7630    1038.7756   -8654.8406   -8538.9636    3337.2142    19549.073    52.390495 
    7640    1029.3637   -8654.2928   -8539.4657    3783.1234     19553.23    52.466565 
    7650    1024.6467   -8654.2968   -8539.9959    3390.5793     19560.88    52.579683 
    7660    1051.8271   -8657.8919    -8540.559    2092.9577    19571.633    52.726935 
    7670    1031.0239   -8656.1862   -8541.1739    1880.9183    19584.397    52.898849 
    7680    976.88014   -8650.7288   -8541.7564    2527.4306    19598.968    53.086572 
    7690    974.76807   -8650.9789   -8542.2421    1544.3829    19615.711    53.292252 
    7700    983.60927   -8652.3392   -8542.6161    67.394776    19633.795    53.514938 
    7710    983.85706   -8652.6579   -8542.9072   -39.033499    19651.967    53.746867 
    7720    966.11617   -8650.8914   -8543.1197    867.07922    19670.106    53.977891 
    7730    987.45338   -8653.4028   -8543.2509    697.98508    19688.898    54.210764 
    7740    1000.8661   -8654.9511    -8543.303   -1050.7509    19708.138    54.451499 
    7750    998.90219   -8654.7296   -8543.3006   -3496.2202    19726.228    54.687806 
    7760    993.05436   -8654.0242   -8543.2475   -4908.0378    19740.953    54.900429 
    7770    993.11298   -8653.9593    -8543.176   -4546.6858    19751.002    55.077651 
    7780    993.92984   -8653.9611   -8543.0867   -3151.9823    19756.693    55.226665 
    7790    1017.6653   -8656.5052   -8542.9831   -2833.0012    19759.209    55.380887 
    7800    1018.5837   -8656.5114   -8542.8869   -2781.0592    19758.978    55.560386 
    7810    1004.8889   -8654.8847   -8542.7878   -2386.3614    19756.113    55.752814 
    7820    1004.8208   -8654.7516   -8542.6623   -2417.0188    19750.928    55.934344 
    7830    1021.3394   -8656.4511   -8542.5191   -2721.7477    19743.428    56.087516 
    7840    1000.1705   -8653.9319   -8542.3614    -1832.787    19733.457     56.21653 
    7850    962.36193   -8649.4885   -8542.1356   -69.839634    19721.879    56.337298 
    7860     992.6764   -8652.5167   -8541.7821    435.71057    19710.196    56.449697 
    7870    1007.3074   -8653.6662   -8541.2995    960.71282    19699.032    56.562409 
    7880    993.60935   -8651.5595   -8540.7208     1987.776    19688.932    56.682431 
    7890    1011.5455   -8652.8719   -8540.0325     3314.406     19680.84    56.804842 
    7900    1000.2112   -8650.7764   -8539.2014    5264.1647    19676.053    56.937883 
    7910     1000.435   -8649.8419   -8538.2418    5863.0694    19676.228    57.089136 
    7920    1019.1224   -8650.8262   -8537.1416     5463.269    19681.938    57.256713 
    7930     1019.098   -8649.6602   -8535.9782     5528.029     19692.91     57.43729 
    7940    1035.7319   -8650.3841   -8534.8467    4936.0693    19709.061     57.62695 
    7950    1063.8853   -8652.4911   -8533.8131     3190.223    19729.768    57.821273 
    7960    1068.2722   -8652.1201   -8532.9527    1558.7476    19753.436    58.015291 
    7970    1027.5555   -8646.9189   -8532.2935    1166.4605    19778.575    58.207437 
    7980    1051.1441   -8649.0533   -8531.7966    497.45934    19804.632    58.392062 
    7990    1045.2032   -8648.0202   -8531.4262    17.654784    19831.005    58.570354 
    8000    1030.7847   -8646.1677   -8531.1821   -984.44743    19857.168    58.745433 
    8010    1060.4991   -8649.3166   -8531.0164   -2945.2651    19882.092    58.903364 
    8020    1021.5358   -8644.8813   -8530.9274   -2928.4224    19904.157    59.032103 
    8030    989.26335   -8641.2284   -8530.8745   -2703.1267    19923.201    59.144857 
    8040    1035.8735   -8646.3621   -8530.8088   -3642.4979    19939.344    59.252267 
    8050    1055.5218   -8648.5307   -8530.7857   -4127.2671    19951.808    59.348739 
    8060    1022.3979   -8644.8987   -8530.8487   -3402.3403    19960.235     59.42677 
    8070    1023.1301   -8645.0855   -8530.9538   -2523.9188    19965.262    59.470599 
    8080    1046.1549   -8647.7884   -8531.0882    -1584.497    19967.774    59.473017 
    8090     1081.254   -8651.9185    -8531.303   -1234.0568     19968.67    59.447146 
    8100     1104.888   -8654.9363   -8531.6844   -1109.2707    19968.312    59.406272 
    8110     1052.003   -8649.5704   -8532.2179    106.46613    19966.996    59.359701 
    8120    1064.5522   -8651.5944    -8532.842    -233.3209    19965.614    59.313045 
    8130    1085.5969   -8654.6801   -8533.5802   -320.38869    19964.039    59.260325 
    8140    1037.6596   -8650.1461   -8534.3936    354.65409    19962.237    59.202155 
    8150     1023.294   -8649.3342   -8535.1842   -426.70228    19960.655    59.146219 
    8160    1018.0816   -8649.4922   -8535.9237   -1267.9644    19958.664    59.095031 
    8170     1000.262   -8648.1483   -8536.5675   -1789.5735    19955.457    59.049175 
    8180    1029.3944   -8651.9739   -8537.1435   -2917.9454    19950.426    59.000289 
    8190    1020.8523   -8651.5511   -8537.6735    -3148.433    19942.607    58.926771 
    8200    1017.7625    -8651.696   -8538.1631   -2172.3322     19931.82    58.815346 
    8210     1023.633   -8652.7821   -8538.5943   -1668.6529    19918.896     58.66909 
    8220    1056.6168   -8656.8864   -8539.0192   -2223.7204    19904.277    58.493159 
    8230    1049.3708   -8656.5363   -8539.4775   -2137.9708    19887.575    58.298723 
    8240    1042.9865   -8656.2772   -8539.9305   -2062.2863    19868.852    58.107667 
    8250    1091.0687   -8662.1667   -8540.4564   -2555.8873     19848.12    57.936775 
    8260    1051.7527   -8658.3878   -8541.0632   -598.74664    19825.199    57.785234 
    8270     1021.604   -8655.6158   -8541.6543    1572.7396    19801.804    57.649813 
    8280    1041.5136   -8658.4069   -8542.2245    1799.4893    19779.841    57.541665 
    8290    1026.4864    -8657.291   -8542.7849    2571.7719    19759.772    57.472889 
    8300    1014.8353   -8656.5123   -8543.3058    3631.2741    19742.313    57.455318 
    8310    1026.3548    -8658.275   -8543.7836    4179.1765    19728.385    57.492508 
    8320    1034.1477   -8659.6022   -8544.2414    4652.4352    19718.535     57.56648 
    8330    1034.4096   -8660.0852   -8544.6953    4776.7766    19713.211    57.658094 
    8340    1046.6239   -8661.9412   -8545.1887    3153.0361     19712.35    57.752386 
    8350    1020.0592   -8659.4797   -8545.6906    1469.6634    19714.528    57.846546 
    8360    1016.2038   -8659.5258   -8546.1667    924.72723    19718.223    57.942233 
    8370    1030.5221   -8661.5792   -8546.6229    1481.6567    19722.898    58.034981 
    8380    1018.8594   -8660.7303    -8547.075     2468.716     19729.05    58.128063 
    8390    1019.5014   -8661.2369     -8547.51    1587.5961    19737.398    58.226467 
    8400    1032.7963   -8663.1535   -8547.9436    60.818074    19747.229    58.318993 
    8410    994.23032   -8659.2711   -8548.3632   -156.29698     19757.25    58.392489 
    8420    993.26267   -8659.5294   -8548.7294   -500.27033     19767.11    58.434664 
    8430    1039.8386   -8665.0764   -8549.0808   -1178.3467    19776.436     58.42634 
    8440    1024.1836   -8663.7131   -8549.4639   -714.51409    19784.726    58.365431 
    8450    1023.3721   -8664.0375   -8549.8788   -705.71164     19792.28    58.271857 
    8460    1025.6413   -8664.7197   -8550.3079   -1134.1537    19799.118    58.158833 
    8470    1010.3297   -8663.4437   -8550.7399   -1548.1965    19804.854     58.02517 
[...]
   22890    1070.8364   -8753.5407   -8634.0873   -257.32105    19422.772    99.964071 
   22900    1099.8633   -8756.1732   -8633.4818   -382.20251     19422.32    100.00657 
   22910    1066.1063   -8752.0453   -8633.1195    672.57126    19421.619    100.04509 
   22920    1054.0174   -8750.5169   -8632.9397    1523.4391    19421.514     100.0872 
   22930    1068.7477   -8752.1112   -8632.8908    2100.7279    19422.809    100.15435 
   22940    1024.2294   -8747.1929   -8632.9386    2613.8247     19426.07    100.27556 
   22950    1052.5677   -8750.4658   -8633.0502    1180.5166    19431.592    100.45362 
   22960    1081.9228   -8753.9309   -8633.2408   -758.13125    19438.159    100.65337 
   22970    1033.0194   -8748.7471   -8633.5122   -509.46355    19444.215    100.85367 
   22980    1090.3692   -8755.4991   -8633.8668   -1173.4619    19449.656    101.07534 
   22990    1128.4291   -8760.2476   -8634.3697   -1371.2692    19454.035    101.32035 
   23000    1088.8014   -8756.5098   -8635.0524   -755.98677    19457.146    101.57167 
   23010    1040.3417   -8751.8526   -8635.8009    543.68529    19459.618    101.80323 
   23020    983.98893   -8746.2376   -8636.4721    875.07124    19462.516     101.9983 
   23030    976.62613    -8745.929   -8636.9848   -844.92761    19466.063    102.15565 
   23040    1034.7188   -8752.8158   -8637.3914   -4223.9514    19468.632    102.28614 
   23050    1045.5988   -8754.4185   -8637.7804   -5993.4176    19467.394     102.3876 
   23060    1023.1964   -8752.3228   -8638.1837   -5946.1479    19460.704     102.4505 
   23070     1004.709   -8750.6405   -8638.5637   -4737.4174    19448.591    102.46918 
   23080    985.67858   -8748.8149    -8638.861   -3153.8567    19432.199    102.44471 
   23090    1014.0705   -8752.2134   -8639.0923   -2957.5105    19412.891    102.38156 
   23100    1040.9611   -8755.4455   -8639.3247   -3697.8053    19390.951    102.27904 
   23110    1022.7881   -8753.6916    -8639.598    -3398.911    19365.891    102.15182 
   23120    1029.4297   -8754.7051   -8639.8707   -2563.3309    19337.995    102.00811 
   23130    1062.2807   -8758.6863   -8640.1873   -1635.7817    19308.044    101.84234 
   23140    1021.2315   -8754.4444   -8640.5245      709.144    19277.077    101.65841 
   23150    1033.5102   -8756.1471   -8640.8575    2170.7371    19247.045    101.45665 
   23160    1033.0599   -8756.4375   -8641.1981    2962.5045    19219.329    101.21859 
   23170    1031.9186   -8756.6731    -8641.561    2976.1544    19194.603    100.93252 
   23180    1075.6823   -8761.9891   -8641.9951    2784.0296    19172.926    100.63505 
   23190    1048.4667   -8759.4907   -8642.5327    3983.8953    19154.175    100.38075 
   23200    989.68181   -8753.4716   -8643.0711     6336.058    19139.393    100.20631 
   23210    1016.1681    -8756.929   -8643.5739    6346.4126    19130.324    100.12369 
   23220     1020.558    -8757.923   -8644.0783    5957.4983    19127.072    100.11332 
   23230    1015.8782   -8757.9142   -8644.5915    5947.6367    19129.291    100.13188 
   23240    1039.8169   -8761.1397   -8645.1465    5381.4657     19136.81    100.14765 
   23250    998.10456   -8757.0506   -8645.7105    5486.6087    19149.203    100.16829 
   23260    998.17807   -8757.5811   -8646.2329     3699.798    19166.253    100.21661 
   23270     1005.887   -8758.8714   -8646.6632    994.46976    19186.385    100.29471 
   23280    1013.7173    -8760.089   -8647.0073   -1431.9338    19207.203    100.40322 
   23290    1009.6228   -8759.8997   -8647.2748   -3812.6587     19226.44    100.53201 
   23300    1004.3837   -8759.5241   -8647.4836   -5493.2955    19242.023     100.6354 
   23310    1020.9226   -8761.5607   -8647.6752   -6813.1606    19252.395    100.67688 
   23320    1002.1787   -8759.6858   -8647.8913   -6712.2647    19256.533    100.62894 
   23330     978.0014   -8757.1949   -8648.0973   -5995.7954    19254.545    100.47745 
   23340    1001.0269   -8759.9252   -8648.2592   -5369.9548    19247.106    100.24376 
   23350    1001.8165   -8760.1357   -8648.3816   -3876.9111    19234.978    99.963962 
   23360    983.51983   -8758.1706   -8648.4575   -1961.5446    19219.558    99.673088 
   23370    1003.9153   -8760.4693   -8648.4811   -989.30376    19202.532    99.371417 
   23380    1032.1949   -8763.6463   -8648.5034    240.00678     19184.95    99.033501 
   23390    1029.3646   -8763.3857   -8648.5586      1987.49    19167.951    98.666735 
   23400    1037.8348   -8764.4208   -8648.6487    2739.7174    19152.961    98.289238 
   23410    1030.9597   -8763.7617   -8648.7566    3579.7759    19140.747    97.903761 
   23420    1028.7576   -8763.6483   -8648.8888    5270.6614    19132.073    97.535589 
   23430    1004.2805   -8761.0782   -8649.0492    6744.8066    19128.293    97.242876 
   23440    981.05246   -8758.6635   -8649.2256    6521.2608    19130.534    97.054681 
   23450    985.91106   -8759.3573   -8649.3775    5255.5276    19138.508     96.94489 
   23460    986.18936   -8759.4855   -8649.4746    4796.6332    19151.151    96.870691 
   23470    1009.2999   -8762.1082   -8649.5192    3396.0019    19167.787    96.802121 
   23480    1016.5508   -8762.9291   -8649.5314    1774.0346    19187.143     96.73152 
   23490    985.74213   -8759.4633   -8649.5023    690.69933    19207.772    96.686847 
   23500    1004.1337   -8761.4297    -8649.417   -1179.3324    19228.533    96.689965 
   23510    1006.0193   -8761.4848   -8649.2619    -2411.488    19247.858    96.723871 
   23520     995.1031   -8760.0647   -8649.0594   -2867.7229    19264.654    96.747132 
   23530    1007.7064   -8761.2061   -8648.7949   -3710.7415    19278.432    96.735961 
   23540     991.4408   -8759.0373   -8648.4406   -3558.4479    19288.641    96.676864 
   23550    985.34518   -8757.8657    -8647.949   -2971.2793    19295.403    96.580523 
   23560    1005.8737   -8759.4549   -8647.2482   -1945.6185    19299.355    96.490702 
   23570    1026.8014   -8760.8745   -8646.3333   -1654.9599    19301.373    96.454753 
   23580    1040.6411    -8761.347   -8645.2619   -1834.4728    19301.801    96.495394 
   23590    1048.6738    -8761.104   -8644.1228   -1428.1763    19300.613    96.592456 
   23600    1037.6538   -8758.7647   -8643.0128   -170.74085    19298.234    96.706178 
   23610    1025.9796    -8756.422   -8641.9724     312.9365    19295.692     96.83233 
   23620    1034.3153   -8756.3789   -8640.9995   -370.46162    19293.407    96.977832 
   23630    1033.9068   -8755.4497   -8640.1159   -493.95003    19290.903    97.133548 
   23640    1006.0006    -8751.551   -8639.3302    268.59766      19288.1    97.288205 
   23650    1011.5951   -8751.4668   -8638.6218    230.23357    19285.541    97.425418 
   23660    1038.9094   -8753.8697   -8637.9778    359.74502    19283.289    97.533866 
   23670    1069.4942   -8756.7598   -8637.4561    533.06708    19281.419    97.640123 
   23680    1059.4506   -8755.2704    -8637.087    1353.5344    19280.133    97.769019 
   23690    1057.8306   -8754.8458   -8636.8432    2572.2796    19280.174    97.920516 
   23700    1097.5354   -8759.1721   -8636.7404    1900.7048     19282.39    98.071632 
   23710    1078.3899    -8757.127   -8636.8309    1644.9683    19286.342    98.203893 
   23720    1042.4936   -8753.3648   -8637.0731    1451.7273     19291.71    98.323096 
   23730    1031.0905   -8752.4078   -8637.3881    1052.6277    19298.272    98.436133 
   23740    1044.6462   -8754.2679   -8637.7361    611.99962     19305.66    98.551172 
   23750    1096.6168   -8760.5256   -8638.1964    568.89165    19313.475    98.697623 
   23760    1071.6995   -8758.3711   -8638.8214    1724.5061    19321.755    98.892472 
   23770    1057.9469   -8757.5944   -8639.5788    2053.0721    19331.369     99.12865 
   23780    1056.8306   -8758.3104   -8640.4194    1457.0851    19342.571    99.378403 
   23790    1039.2603   -8757.2239   -8641.2928    1208.8538    19354.919    99.617749 
   23800       1043.1   -8758.5376   -8642.1783     1219.552    19368.144    99.851327 
   23810    1044.2418   -8759.5518   -8643.0651    1275.0863    19382.226    100.09518 
   23820    1044.4056   -8760.4228   -8643.9178    594.65886    19397.137    100.35183 
   23830     1072.008   -8764.3242   -8644.7401   -575.69681    19412.235    100.61467 
   23840    1063.6885   -8764.2194   -8645.5634   -392.04687    19426.598    100.87047 
   23850    1020.2724   -8760.1464   -8646.3335   -154.51673    19440.307    101.09914 
   23860    1007.5346   -8759.3889   -8646.9969   -1019.2737    19453.502    101.28747 
   23870    991.37775   -8758.1196     -8647.53    -1418.055    19465.545    101.44715 
   23880    990.36288   -8758.4217   -8647.9452   -1910.9361    19476.024    101.59769 
   23890    989.82957   -8758.6825   -8648.2655   -2530.7373    19484.498    101.73931 
   23900    987.45641   -8758.6467   -8648.4945   -2865.3982    19490.482    101.86263 
   23910    1019.0467   -8762.3439   -8648.6677   -3186.9618    19493.669     101.9611 
   23920    1011.4592   -8761.6577   -8648.8279    -1756.096    19494.002    102.02648 
   23930    987.81464   -8759.1486   -8648.9564   -658.49747    19492.655    102.05534 
   23940     1020.626   -8762.8999   -8649.0475    -858.9049    19490.617    102.05627 
   23950    1041.4012   -8765.3323   -8649.1624    -788.9155    19487.852    102.04435 
   23960    996.39577    -8760.459   -8649.3096    228.32601      19484.5    102.02542 
   23970    1010.6352   -8762.1794   -8649.4415   -21.323802    19481.308    102.00417 
   23980    1043.9385   -8766.0295   -8649.5766   -377.16003    19478.141    101.98294 
   23990    1017.4037   -8763.2499    -8649.757     786.7237    19474.792     101.9516 
   24000    1020.8647   -8763.8452   -8649.9662    2771.1542    19472.319    101.91076 
   24010    1051.4721   -8767.5208   -8650.2275    4457.3528    19472.461    101.87635 
   24020    1030.6567   -8765.5518   -8650.5805    5711.6934    19476.722    101.86977 
   24030    1013.5347   -8764.0726   -8651.0113    6027.8466    19486.188    101.92042 
   24040    1004.0068   -8763.4582   -8651.4597    5118.6023    19501.068    102.04534 
   24050    1018.1067   -8765.4874   -8651.9161    3228.0097    19520.453    102.23133 
   24060    1006.9565   -8764.7001   -8652.3725    1626.6526    19542.638    102.46139 
   24070    986.21582   -8762.8265   -8652.8126    447.71942    19566.104    102.72563 
   24080    1002.8107   -8765.0791   -8653.2141   -1359.7256    19589.641    103.01407 
   24090    1021.0594   -8767.4945   -8653.5938   -3801.3702    19611.517    103.30195 
   24100    987.40218   -8764.1123   -8653.9661   -5130.5542    19629.625    103.56867 
   24110     969.3544   -8762.4512   -8654.3183   -6103.3711    19642.659    103.81653 
   24120    989.43017   -8764.9988   -8654.6264   -7303.0894    19649.696    104.04745 
   24130    1002.8357   -8766.8003   -8654.9325   -7917.6062    19649.723    104.25567 
   24140    986.71738   -8765.3096   -8655.2398   -7614.8029      19642.3    104.43228 
   24150    993.69515   -8766.3967   -8655.5485   -6560.1685    19627.798    104.56586 
   24160    973.26955   -8764.3801   -8655.8104    -4079.292    19607.449    104.64722 
   24170    996.19784   -8767.1383   -8656.0109   -3044.3299    19583.434     104.6862 
   24180    1009.2637   -8768.7631   -8656.1783    -2338.079    19556.927    104.69427 
   24190    985.90968   -8766.2825   -8656.3028   -289.30844     19528.79    104.67929 
   24200    993.18061   -8767.1544   -8656.3636    1901.7437    19500.867    104.66278 
   24210    980.85364   -8765.7517    -8656.336    3716.7976    19475.199    104.66716 
   24220    1013.2395   -8769.2972   -8656.2688    3762.3788    19453.313    104.71109 
   24230    1038.5741   -8772.0863   -8656.2318    3151.8464    19435.253    104.79342 
   24240    992.06172   -8766.8894   -8656.2234    4457.3713    19420.639    104.88715 
   24250    992.97907   -8766.9742   -8656.2059      4981.28    19410.339    104.97351 
   24260    1014.4431   -8769.3267   -8656.1641      5059.18    19404.819    105.06613 
   24270    974.76115   -8764.8384   -8656.1024    5454.2429    19404.113    105.19833 
   24280    973.47119   -8764.5758   -8655.9836    5403.7146    19408.447    105.37507 
   24290    996.18693    -8766.863   -8655.7369    4220.6049    19417.635    105.58528 
   24300    1037.8452   -8771.1754   -8655.4022    2701.6347    19430.551    105.80427 
   24310    1047.4219   -8771.8799   -8655.0384    1947.0159    19445.857    106.02193 
   24320    1049.1185   -8771.7505   -8654.7197    870.37074    19462.687    106.24819 
   24330    998.57299   -8765.8225   -8654.4302    422.72307    19480.121    106.49044 
   24340    993.94338   -8764.9967   -8654.1209   -805.00739     19497.59    106.75277 
   24350    1037.7978   -8769.5024   -8653.7345   -2764.9328    19513.954    107.02998 
   24360    1018.0089   -8766.8792   -8653.3188   -3783.1515    19527.532    107.29296 
   24370    1021.2392    -8766.836   -8652.9152   -4496.1153    19537.371    107.50265 
   24380    1034.2748   -8767.8959    -8652.521     -5199.62    19542.831    107.63006 
   24390    1033.5612   -8767.4719   -8652.1766   -4787.5511    19543.381    107.67211 
   24400    1020.7675   -8765.7469   -8651.8787   -2792.9669    19539.561     107.6638 
   24410    1027.9047   -8766.2678   -8651.6035   -1233.1882    19533.143     107.6387 
   24420    1038.7238   -8767.2117   -8651.3405   -322.91171    19525.611    107.61198 
   24430    1038.2637   -8766.9289   -8651.1091    813.20466    19517.933    107.58758 
   24440    1053.5628   -8768.4633   -8650.9368    669.12484    19511.002     107.5721 
   24450    1028.0006   -8765.5112   -8650.8362    895.65935     19504.86    107.57339 
   24460    1000.7874   -8762.4164   -8650.7771    964.33687    19499.625    107.58858 
   24470    1011.0763   -8763.5009   -8650.7138     379.4573    19495.289    107.60935 
   24480    1011.3693   -8763.4509   -8650.6312     919.7807    19491.504    107.63279 
   24490     1029.771   -8765.4144   -8650.5419    1978.2628    19488.672    107.67392 
   24500    1031.3226   -8765.5138   -8650.4682     3818.165     19487.79    107.76138 
   24510    1020.7912   -8764.3081   -8650.4373    5751.1615    19490.544    107.89165 
   24520    1018.8659   -8764.1037   -8650.4477    5892.7375    19498.555    108.04776 
   24530    1016.6438   -8763.9048   -8650.4966    5358.4822    19511.992    108.24432 
   24540    1013.6548   -8763.6383   -8650.5636    4729.1342    19530.347    108.49896 
   24550     1041.421   -8766.8181    -8650.646      2908.54    19552.898    108.80918 
   24560    1042.6031   -8767.0626   -8650.7586    345.09753    19577.943    109.14676 
   24570    1010.4699   -8763.6174    -8650.898   -1393.4009     19603.17     109.4767 
   24580    1011.3512   -8763.8757   -8651.0579   -1648.6321    19626.954    109.78438 
   24590    1014.8617   -8764.4465   -8651.2372   -868.56289    19649.059    110.05461 
   24600    1050.0157   -8768.5963   -8651.4655   -828.74361    19670.081    110.31176 
   24610     1078.168   -8772.0902    -8651.819   -1044.8501    19690.101    110.57526 
   24620     1052.673   -8769.7956   -8652.3684   -533.16476    19709.005     110.8324 
   24630    1008.2372   -8765.5114    -8653.041   -704.57856    19727.182    111.05988 
   24640    1010.9131   -8766.5227   -8653.7538   -2440.5764    19744.395    111.23696 
   24650    1034.8978   -8769.9503   -8654.5059   -4028.6404    19759.144    111.36026 
   24660    1037.7647   -8771.1044   -8655.3402   -4740.8813    19769.968    111.44611 
   24670    1017.0199   -8769.6837   -8656.2336   -4597.5448    19776.208     111.5064 
   24680    1013.5137   -8770.1835   -8657.1245   -4901.9074    19777.903     111.5297 
   24690    1005.6205   -8770.1719   -8657.9934   -4689.5302    19774.905    111.48984 
   24700    963.62733   -8766.2545   -8658.7604   -3411.8129    19767.505    111.37744 
   24710    952.81153   -8765.6488   -8659.3613   -1861.9711    19756.907    111.21885 
   24720    978.65364   -8768.9641   -8659.7938   -359.96473    19744.596    111.04848 
   24730     990.4613   -8770.5962   -8660.1087    979.84182    19732.021    110.91463 
   24740    986.03107   -8770.3373   -8660.3441    2320.5351    19720.478     110.8471 
   24750     991.9473   -8771.1532   -8660.4999    3856.6669    19711.283    110.83013 
   24760    1015.7657   -8773.9104   -8660.6002     4284.363    19705.797    110.84202 
   24770    1045.7337   -8777.3731   -8660.7199    3290.5088    19704.311    110.87616 
   24780    1011.4158   -8773.6903   -8660.8653    3195.5645    19706.079    110.93237 
   24790    985.16697   -8770.8946   -8660.9977    3214.3544    19710.911    111.01559 
   24800    979.12548   -8770.2967   -8661.0738    2934.4797    19718.784    111.13069 
   24810    971.05239   -8769.4042   -8661.0819    2231.2518    19729.402    111.25341 
   24820    972.00216   -8769.4275   -8660.9992    1082.2939    19742.069    111.35208 
   24830    1016.1445   -8774.2029   -8660.8505   -903.12715    19755.588    111.42161 
   24840    992.66609    -8771.406   -8660.6726   -1626.7037    19768.262    111.47137 
   24850    967.06545   -8768.3395   -8660.4619   -1861.0447    19779.349     111.4899 
   24860    994.71459   -8771.1365   -8660.1746   -3652.7026    19788.422    111.47165 
   24870    1002.4259   -8771.6451    -8659.823   -5194.2945    19793.931    111.40802 
   24880    1009.9883   -8772.1227    -8659.457   -5097.9124    19794.544    111.27161 
   24890    1014.4912   -8772.2469   -8659.0789   -4145.0821    19790.292    111.06421 
   24900    995.88005    -8769.758   -8658.6661    -3215.222    19782.052    110.82348 
   24910     1018.052   -8771.7672    -8658.202   -2671.6481    19770.722    110.59874 
   24920    1023.2419   -8771.8386   -8657.6945    -1601.071    19756.936    110.40372 
   24930    997.29177   -8768.4131   -8657.1637    114.53654    19741.756     110.2213 
   24940    1031.7936   -8771.6878   -8656.5897    1488.8999     19726.76    110.05424 
   24950    1045.0729   -8772.5646   -8655.9852    2818.1545    19713.316    109.92922 
   24960    1019.8008   -8769.1717   -8655.4114    3533.6224    19702.621    109.84426 
   24970    1034.5847   -8770.2795     -8654.87    2660.7004    19695.217    109.75478 
   24980    1031.4906   -8769.3993    -8654.335    2284.0439    19690.458    109.62175 
   24990    1033.3034   -8769.0826    -8653.816    2847.8364    19687.978    109.43618 
   25000    1025.8908   -8767.7157    -8653.276    3406.1492     19688.26    109.20739 
Loop time of 13606.3 on 16 procs for 20000 steps with 864 atoms

Performance: 0.127 ns/day, 188.976 hours/ns, 1.470 timesteps/s
96.0% CPU use with 16 MPI tasks x 1 OpenMP threads

MPI task timing breakdown:
Section |  min time  |  avg time  |  max time  |%varavg| %total
---------------------------------------------------------------
Pair    | 3275.7     | 6970.8     | 13430      |4515.9 | 51.23
Bond    | 0.00142    | 0.0031187  | 0.0050254  |   1.8 |  0.00
Neigh   | 0.16628    | 0.34407    | 0.68857    |  33.3 |  0.00
Comm    | 107.42     | 4856       | 9812.4     |4681.8 | 35.69
Output  | 1.2379     | 1.2547     | 1.4993     |   5.6 |  0.01
Modify  | 30.41      | 1777.8     | 6793       |5626.7 | 13.07
Other   |            | 0.07842    |            |       |  0.00

Nlocal:        54.0000 ave          97 max          23 min
Histogram: 2 4 2 1 1 2 0 0 2 2
Nghost:        509.250 ave         712 max         333 min
Histogram: 4 1 1 2 0 1 1 2 2 2
Neighs:         0.00000 ave           0 max           0 min
Histogram: 16 0 0 0 0 0 0 0 0 0
FullNghs:      2799.50 ave        6588 max         618 min
Histogram: 6 2 0 2 0 2 0 0 2 2

Total # of neighbors = 44792
Ave neighs/atom = 51.842593
Ave special neighs/atom = 0.0000000
Neighbor list builds = 2000
Dangerous builds = 2000
unfix   3
                
Total wall time: 4:37:34
