LAMMPS (29 Sep 2021 - Update 3)
OMP_NUM_THREADS environment is not set. Defaulting to 1 thread. (src/comm.cpp:98)
  using 1 OpenMP thread(s) per MPI task
units	metal
atom_style	full

read_data	mixed.data
Reading data file ...
  orthogonal box = (0.0000000 0.0000000 0.0000000) to (15.866041 15.852264 77.123517)
  2 by 1 by 8 MPI processor grid
  reading atoms ...
  864 atoms
Finding 1-2 1-3 1-4 neighbors ...
  special bond factors lj:    0        0        0       
  special bond factors coul:  0        0        0       
     0 = max # of 1-2 neighbors
     0 = max # of 1-3 neighbors
     0 = max # of 1-4 neighbors
     1 = max # of special neighbors
  special bonds CPU = 0.001 seconds
  read_data CPU = 0.049 seconds

pair_style	quip
pair_coeff	* * /ocean/projects/cts180021p/wuziqi/clease/mint-PD/PhaseDiagram-Clease/Liquid/GAP_potential/gap_LiKCl.xml "Potential xml_label=GAP_2021_9_27_0_1_17_37_618" 17 19 3

neighbor	0.3 bin
neigh_modify	delay 10

timestep	0.001
compute	msd all msd
thermo_style	custom step temp pe etotal press vol c_msd[4]
thermo	10
dump	1 all custom 10 xyz-mix.dump type id x y z
dump	2 all custom 10 force-mix.dump type id fx fy fz

fix     1 all nve
run     2000
Neighbor list info ...
  update every 1 steps, delay 10 steps, check yes
  max neighbors/atom: 2000, page size: 100000
  master list distance cutoff = 6.22
  ghost atom cutoff = 6.22
  binsize = 3.11, bins = 6 6 25
  1 neighbor lists, perpetual/occasional/extra = 1 0 0
  (1) pair quip, perpetual
      attributes: full, newton on
      pair build: full/bin
      stencil: full/bin/3d
      bin: standard
Per MPI rank memory allocation (min/avg/max) = 8.889 | 8.906 | 8.916 Mbytes
Step Temp PotEng TotEng Press Volume c_msd[4] 
       0            0   -8878.9247   -8878.9247   -11708.833    19397.542            0 
      10    108.80145    -8891.078    -8878.941   -13519.947    19397.542 0.00037756483 
      20    255.99871   -8907.5101   -8878.9531   -15433.074    19397.542  0.004636157 
      30    288.56988   -8911.1358   -8878.9454   -14361.122    19397.542  0.015943357 
      40    289.10053   -8911.1934   -8878.9438   -12512.136    19397.542  0.032214776 
      50    304.26419   -8912.8839   -8878.9428   -12190.839    19397.542  0.050010352 
      60    330.67215   -8915.8353   -8878.9484    -12512.07    19397.542  0.067008738 
      70    319.75479    -8914.613   -8878.9439   -12021.554    19397.542  0.084636553 
      80     311.7171   -8913.7131   -8878.9406   -11242.174    19397.542   0.10335882 
      90    344.97025   -8917.4272   -8878.9452   -11377.847    19397.542   0.12285636 
     100    369.47631   -8920.1625   -8878.9469   -11460.202    19397.542   0.14373353 
     110    369.44402   -8920.1551   -8878.9431   -10737.559    19397.542   0.16547428 
     120    381.04496   -8921.4513   -8878.9452   -10101.733    19397.542   0.18697263 
     130    387.01967   -8922.1174   -8878.9447    -9853.945    19397.542   0.20927079 
     140    390.46305   -8922.5002   -8878.9434   -10154.629    19397.542   0.23274757 
     150    401.17379   -8923.6966   -8878.9451   -10935.233    19397.542   0.25686229 
     160    405.60936   -8924.1923    -8878.946   -11533.497    19397.542   0.28181117 
     170    403.00983   -8923.9035   -8878.9472   -11313.905    19397.542   0.30705714 
     180    385.93942   -8921.9971   -8878.9449   -10395.352    19397.542   0.33328028 
     190    384.55592   -8921.8429   -8878.9451   -9702.4152    19397.542    0.3615061 
     200    397.89654   -8923.3338   -8878.9478   -9508.3306    19397.542   0.39138176 
     210    403.74057   -8923.9838    -8878.946   -9854.3562    19397.542   0.41959204 
     220    419.25516   -8925.7147   -8878.9462   -11120.155    19397.542   0.44190424 
     230    437.64496   -8927.7678   -8878.9478   -12741.979    19397.542   0.46059951 
     240    436.22365   -8927.6096   -8878.9482   -13773.271    19397.542   0.48016288 
     250     417.4692   -8925.5154   -8878.9461   -14188.084    19397.542   0.50051511 
     260    403.07006   -8923.9093   -8878.9463   -14452.366    19397.542   0.51954432 
     270    390.78955   -8922.5388   -8878.9456   -14869.677    19397.542   0.53842732 
     280    390.91941   -8922.5534   -8878.9458   -15753.944    19397.542   0.55789535 
     290    394.53071   -8922.9579   -8878.9474   -16866.473    19397.542   0.57907365 
     300    385.46639   -8921.9447   -8878.9454   -17556.881    19397.542   0.60332818 
     310    388.07639   -8922.2367   -8878.9462   -18102.563    19397.542   0.62988844 
     320    395.22438   -8923.0346   -8878.9467   -18476.923    19397.542   0.65693198 
     330     392.7193   -8922.7554    -8878.947   -18634.964    19397.542   0.68294096 
     340    387.36548    -8922.158   -8878.9468   -18928.114    19397.542    0.7064488 
     350    383.70376     -8921.75   -8878.9472   -19255.038    19397.542   0.72809194 
     360    380.16279   -8921.3526   -8878.9449   -19764.905    19397.542   0.74756432 
     370    391.53302   -8922.6238   -8878.9477   -20433.416    19397.542   0.76345228 
     380    397.18733   -8923.2529   -8878.9461   -20848.612    19397.542   0.77799013 
     390    399.66038   -8923.5327     -8878.95   -20962.623    19397.542    0.7926845 
     400    376.74168   -8920.9703   -8878.9442   -20594.318    19397.542   0.80792627 
     410    384.01385   -8921.7861   -8878.9488   -20827.442    19397.542   0.82090067 
     420    385.42711   -8921.9432   -8878.9482    -21282.02    19397.542   0.83289421 
     430    375.82197   -8920.8694   -8878.9459   -21749.833    19397.542   0.84474346 
     440    377.40301   -8921.0478   -8878.9479   -22280.425    19397.542   0.85654263 
     450    373.39276   -8920.5987   -8878.9462   -22358.315    19397.542   0.87121917 
     460    380.55104   -8921.3982   -8878.9472   -22127.174    19397.542   0.88923864 
     470    389.08947   -8922.3531   -8878.9496   -21563.629    19397.542   0.90990069 
     480    377.88025   -8921.0989   -8878.9458   -20903.426    19397.542   0.93174236 
     490    381.74982   -8921.5319   -8878.9472   -20620.986    19397.542   0.94962563 
     500    394.14575   -8922.9156   -8878.9481   -20486.731    19397.542   0.96309083 
     510    397.04898   -8923.2389   -8878.9475   -19997.235    19397.542   0.97658553 
     520    399.82595   -8923.5491    -8878.948   -19535.484    19397.542   0.99241283 
     530    404.27704   -8924.0446   -8878.9469    -19115.46    19397.542    1.0084992 
     540     411.3451   -8924.8362     -8878.95   -18661.849    19397.542    1.0226069 
     550    394.09812   -8922.9082    -8878.946   -17821.103    19397.542    1.0374953 
     560    386.81962   -8922.0987   -8878.9484   -17144.624    19397.542    1.0531551 
     570    383.04436   -8921.6747   -8878.9456   -16711.306    19397.542    1.0690946 
     580    397.22268   -8923.2587   -8878.9479   -16702.646    19397.542    1.0866029 
     590    408.28446   -8924.4929   -8878.9481   -16623.668    19397.542    1.1074158 
     600    405.74477   -8924.2095   -8878.9481   -16314.107    19397.542    1.1302748 
     610    396.02325   -8923.1251   -8878.9481    -15628.66    19397.542    1.1519665 
     620     395.3341   -8923.0495   -8878.9494   -15051.831    19397.542    1.1694303 
     630    394.27036   -8922.9318   -8878.9503   -14512.907    19397.542    1.1828305 
     640    383.62649   -8921.7417   -8878.9476   -14067.198    19397.542    1.1945401 
     650    385.14193   -8921.9112    -8878.948   -13839.463    19397.542    1.2068311 
     660     395.4713   -8923.0651   -8878.9497   -13755.797    19397.542    1.2218962 
     670     396.9724   -8923.2312   -8878.9483   -13681.042    19397.542    1.2411479 
     680    400.76426   -8923.6562   -8878.9504   -13529.754    19397.542    1.2649597 
     690    395.59922   -8923.0782   -8878.9485   -13202.541    19397.542    1.2892968 
     700    393.08673   -8922.7984    -8878.949    -12863.36    19397.542    1.3108518 
     710    392.46287   -8922.7295   -8878.9497   -12776.215    19397.542    1.3306314 
     720    392.69983   -8922.7538   -8878.9476   -12960.731    19397.542    1.3493343 
     730    407.70626    -8924.431   -8878.9507   -13617.908    19397.542    1.3652761 
     740    418.60831   -8925.6458   -8878.9494   -14182.857    19397.542    1.3758719 
     750    427.35697   -8926.6222   -8878.9499   -14411.802    19397.542    1.3817369 
     760    426.23067   -8926.4956    -8878.949   -14240.457    19397.542    1.3874968 
     770    425.68986   -8926.4355   -8878.9492   -14121.142    19397.542    1.3956033 
     780    424.34662   -8926.2861   -8878.9496   -14199.692    19397.542    1.4059418 
     790    416.51178   -8925.4118   -8878.9493   -14348.579    19397.542    1.4172819 
     800    406.85203   -8924.3329   -8878.9479   -14603.708    19397.542    1.4293586 
     810     409.3926   -8924.6176   -8878.9492   -14954.594    19397.542    1.4437899 
     820    411.52943   -8924.8561   -8878.9494   -15227.004    19397.542     1.461671 
     830    414.76526   -8925.2161   -8878.9484   -15348.177    19397.542    1.4822988 
     840    425.47297   -8926.4126   -8878.9505   -15497.059    19397.542    1.5061095 
     850    424.10961   -8926.2589   -8878.9489    -15461.05    19397.542    1.5339208 
     860    425.84903   -8926.4531    -8878.949   -15668.017    19397.542    1.5638872 
     870    428.28778   -8926.7265   -8878.9503   -15975.954    19397.542    1.5941429 
     880    422.32484   -8926.0597   -8878.9487   -16050.391    19397.542    1.6254163 
     890    420.59441   -8925.8681   -8878.9502   -16210.368    19397.542    1.6579317 
     900    412.78354   -8924.9958   -8878.9492   -16186.118    19397.542    1.6917804 
     910    408.88335   -8924.5603   -8878.9488   -16398.021    19397.542    1.7253326 
     920    415.25495   -8925.2723     -8878.95   -16866.947    19397.542    1.7566903 
     930    417.79568   -8925.5555   -8878.9498    -17314.63    19397.542    1.7866576 
     940    414.15774   -8925.1502   -8878.9503   -17816.895    19397.542    1.8175362 
     950    410.14766   -8924.7024   -8878.9498   -18397.528    19397.542     1.850555 
     960    412.13206   -8924.9218   -8878.9478   -18864.984    19397.542    1.8837942 
     970    427.90234   -8926.6835   -8878.9503   -19165.223    19397.542    1.9147148 
     980    431.11936    -8927.043    -8878.951    -19021.79    19397.542    1.9457246 
     990    415.64991   -8925.3145   -8878.9482   -18606.767    19397.542    1.9812421 
    1000    413.92707   -8925.1233   -8878.9491   -18513.829    19397.542    2.0201072 
    1010    417.45395   -8925.5177     -8878.95   -18558.895    19397.542    2.0574524 
    1020    414.66605   -8925.2045   -8878.9479    -18540.13    19397.542    2.0909232 
    1030    425.32279   -8926.3944    -8878.949   -18804.281    19397.542    2.1200334 
    1040    437.39791    -8927.743   -8878.9506    -19174.44    19397.542    2.1461906 
    1050    432.04437    -8927.144   -8878.9488   -19430.964    19397.542    2.1724444 
    1060    423.10855   -8926.1471   -8878.9487    -19670.97    19397.542     2.200914 
    1070    416.30819    -8925.389   -8878.9492   -19752.208    19397.542     2.232564 
    1080    410.19009   -8924.7058   -8878.9485   -19471.789    19397.542    2.2656179 
    1090    411.43188   -8924.8454   -8878.9496   -18927.842    19397.542    2.2963807 
    1100    413.58688   -8925.0849   -8878.9486   -18540.027    19397.542    2.3238349 
    1110    425.71996   -8926.4384   -8878.9486   -18620.545    19397.542    2.3474636 
    1120    443.01807   -8928.3709   -8878.9516   -18883.908    19397.542    2.3679172 
    1130    437.42575   -8927.7454   -8878.9499   -18767.479    19397.542    2.3882255 
    1140    422.48256   -8926.0773   -8878.9487   -18476.767    19397.542    2.4089666 
    1150    414.07643   -8925.1393   -8878.9485   -18282.798    19397.542    2.4284943 
    1160    416.01416   -8925.3558   -8878.9488   -18291.885    19397.542     2.446853 
    1170    419.66714   -8925.7642   -8878.9497   -18446.717    19397.542    2.4644412 
    1180    424.21945   -8926.2706   -8878.9483    -18449.36    19397.542    2.4806419 
    1190    440.19598   -8928.0557   -8878.9512   -18343.062    19397.542    2.4945267 
    1200    440.38662   -8928.0752   -8878.9494   -17908.359    19397.542     2.507228 
    1210    440.40752   -8928.0774   -8878.9493   -17509.071    19397.542    2.5196997 
    1220    445.29341   -8928.6232   -8878.9501   -17433.008    19397.542    2.5321836 
    1230    444.31811   -8928.5138   -8878.9494   -17404.254    19397.542    2.5456285 
    1240    444.21916   -8928.5028   -8878.9495   -17567.287    19397.542    2.5617678 
    1250    447.95301   -8928.9197   -8878.9499   -17998.888    19397.542    2.5810013 
    1260    447.05056     -8928.82   -8878.9509   -18113.089    19397.542    2.6027835 
    1270    433.76409   -8927.3363   -8878.9493   -17647.746    19397.542    2.6267411 
    1280    426.49744   -8926.5249   -8878.9485   -17215.404    19397.542    2.6522665 
    1290    438.76938   -8927.8949   -8878.9495   -17215.004    19397.542     2.679609 
    1300     454.8554   -8929.6913   -8878.9515   -17412.029    19397.542    2.7096074 
    1310    451.74789   -8929.3435   -8878.9504   -17515.094    19397.542    2.7419599 
    1320    440.03726   -8928.0361   -8878.9493    -17582.78    19397.542    2.7732724 
    1330    433.51813    -8927.309   -8878.9494   -17627.787    19397.542    2.7991894 
    1340    430.66307   -8926.9918   -8878.9507   -17406.648    19397.542    2.8192899 
    1350    422.06307   -8926.0311   -8878.9493    -17030.68    19397.542    2.8369839 
    1360    423.68793   -8926.2128   -8878.9498   -16872.793    19397.542    2.8564726 
    1370    432.23825   -8927.1671   -8878.9502   -16941.721    19397.542    2.8798412 
    1380    440.61409   -8928.1014   -8878.9502   -17160.411    19397.542     2.904214 
    1390    442.38617   -8928.3005   -8878.9516   -17288.698    19397.542    2.9262872 
    1400    432.82497   -8927.2303    -8878.948   -17111.965    19397.542    2.9462931 
    1410    443.20721   -8928.3906   -8878.9502   -17379.272    19397.542    2.9656964 
    1420     452.8574   -8929.4692   -8878.9523   -17581.285    19397.542    2.9866189 
    1430    440.33742   -8928.0699   -8878.9496    -17078.18    19397.542    3.0107644 
    1440    434.09539   -8927.3728   -8878.9488   -16559.852    19397.542    3.0372306 
    1450    446.59797     -8928.77   -8878.9513   -16458.202    19397.542    3.0634597 
    1460    455.16552   -8929.7248   -8878.9504   -16509.198    19397.542    3.0883146 
    1470     460.5176    -8930.323   -8878.9516   -16639.411    19397.542    3.1117695 
    1480    455.78137    -8929.792   -8878.9489   -16643.605    19397.542    3.1332037 
    1490    461.66937   -8930.4506   -8878.9507   -16632.215    19397.542     3.152331 
    1500    464.06114   -8930.7172   -8878.9504   -16316.323    19397.542    3.1724877 
    1510    464.69685   -8930.7871   -8878.9495    -16148.36    19397.542    3.1960897 
    1520    471.22077   -8931.5167   -8878.9514   -16208.841    19397.542    3.2225013 
    1530    471.47122   -8931.5429   -8878.9496   -16597.639    19397.542    3.2496574 
    1540    479.04999   -8932.3903   -8878.9516   -17340.131    19397.542    3.2743864 
    1550    475.60674   -8932.0055   -8878.9508   -17872.304    19397.542    3.2971604 
    1560    465.76065   -8930.9064   -8878.9501   -17822.552    19397.542    3.3221892 
    1570    460.06152    -8930.271   -8878.9505    -17442.47    19397.542    3.3512444 
    1580    459.40082   -8930.1971   -8878.9502   -16941.542    19397.542    3.3813068 
    1590    460.93829   -8930.3707   -8878.9523   -16350.345    19397.542    3.4083736 
    1600     448.2201   -8928.9504   -8878.9508   -15603.607    19397.542    3.4316634 
    1610     443.9941   -8928.4772    -8878.949    -15275.86    19397.542    3.4534934 
    1620    463.51034   -8930.6582    -8878.953   -15593.563    19397.542    3.4766509 
    1630    474.66564   -8931.9011   -8878.9514   -16126.405    19397.542    3.5034224 
    1640    481.75389   -8932.6918   -8878.9514   -16542.721    19397.542    3.5333548 
    1650    479.37897   -8932.4264    -8878.951   -16541.998    19397.542    3.5648125 
    1660    474.97776   -8931.9337   -8878.9492   -16284.173    19397.542    3.5952514 
    1670    481.99089    -8932.719   -8878.9522   -15990.017    19397.542    3.6221631 
    1680      474.213   -8931.8498   -8878.9506   -15457.654    19397.542    3.6454728 
    1690    462.13083    -8930.502   -8878.9506   -14731.806    19397.542     3.665115 
    1700    458.63731   -8930.1109   -8878.9492   -14389.905    19397.542    3.6801149 
    1710    473.55465   -8931.7771   -8878.9513   -14547.389    19397.542    3.6915037 
    1720    483.59001    -8932.897   -8878.9518   -15013.331    19397.542    3.7021408 
    1730    481.36556   -8932.6472   -8878.9501   -15645.926    19397.542    3.7142289 
    1740    484.05437   -8932.9483   -8878.9513   -16474.749    19397.542    3.7288904 
    1750    482.16869   -8932.7383   -8878.9516   -16722.219    19397.542     3.747119 
    1760    470.26243   -8931.4082   -8878.9497   -16475.495    19397.542    3.7689551 
    1770    472.75321   -8931.6852   -8878.9489   -16480.419    19397.542    3.7930019 
    1780    495.80424   -8934.2609   -8878.9532   -16801.632    19397.542     3.817904 
    1790    498.29189   -8934.5359   -8878.9506   -17030.699    19397.542    3.8432118 
    1800    497.22115   -8934.4163   -8878.9505   -17233.599    19397.542    3.8677962 
    1810    498.13201   -8934.5195   -8878.9521   -17294.852    19397.542    3.8916583 
    1820    485.17576   -8933.0725   -8878.9504   -16971.976    19397.542    3.9157232 
    1830    479.44537   -8932.4337   -8878.9509   -16627.564    19397.542    3.9391486 
    1840    478.88134   -8932.3712   -8878.9513   -16398.764    19397.542    3.9621449 
    1850     478.6415   -8932.3435   -8878.9503   -16406.049    19397.542    3.9857213 
    1860     486.1211   -8933.1789   -8878.9514   -16705.544    19397.542    4.0086822 
    1870    492.79459   -8933.9238   -8878.9519   -17221.514    19397.542    4.0297149 
    1880    491.36379   -8933.7648   -8878.9525   -18037.772    19397.542    4.0499732 
    1890    475.70955   -8932.0166   -8878.9505   -18910.363    19397.542    4.0709101 
    1900    464.92588   -8930.8141   -8878.9509   -19819.272    19397.542    4.0929306 
    1910    455.59431   -8929.7727   -8878.9505   -20229.987    19397.542    4.1160109 
    1920    452.87672   -8929.4684   -8878.9493   -20242.611    19397.542    4.1384657 
    1930    467.97161   -8931.1539   -8878.9509   -20369.825    19397.542    4.1581839 
    1940    485.34862   -8933.0926   -8878.9512   -20514.477    19397.542    4.1756159 
    1950    495.78252   -8934.2578   -8878.9525   -20428.878    19397.542    4.1936772 
    1960    500.11778   -8934.7389     -8878.95   -20591.437    19397.542    4.2145461 
    1970    511.99695   -8936.0681    -8878.954   -21344.221    19397.542    4.2363696 
    1980    499.23942   -8934.6421   -8878.9512   -21654.428    19397.542    4.2540635 
    1990    487.56603   -8933.3391   -8878.9504    -21588.86    19397.542    4.2657075 
    2000    485.14508   -8933.0707    -8878.952   -21134.343    19397.542    4.2770463 
Loop time of 1393.68 on 16 procs for 2000 steps with 864 atoms

Performance: 0.124 ns/day, 193.566 hours/ns, 1.435 timesteps/s
96.7% CPU use with 16 MPI tasks x 1 OpenMP threads

MPI task timing breakdown:
Section |  min time  |  avg time  |  max time  |%varavg| %total
---------------------------------------------------------------
Pair    | 262.73     | 676.97     | 1391       |1212.4 | 48.57
Bond    | 0.00024605 | 0.00043128 | 0.00070715 |   0.0 |  0.00
Neigh   | 0.014011   | 0.029895   | 0.063014   |   7.9 |  0.00
Comm    | 2.4341     | 622.45     | 1000.1     |1209.7 | 44.66
Output  | 0.12789    | 30.503     | 62.602     | 440.5 |  2.19
Modify  | 0.0081289  | 0.0090046  | 0.0098031  |   0.5 |  0.00
Other   |            | 63.72      |            |       |  4.57

Nlocal:        54.0000 ave          90 max          29 min
Histogram: 3 3 0 2 3 1 0 2 0 2
Nghost:        493.750 ave         643 max         369 min
Histogram: 3 1 0 3 2 2 1 2 0 2
Neighs:         0.00000 ave           0 max           0 min
Histogram: 16 0 0 0 0 0 0 0 0 0
FullNghs:      2706.00 ave        5944 max         890 min
Histogram: 6 0 2 1 3 0 2 0 0 2

Total # of neighbors = 43296
Ave neighs/atom = 50.111111
Ave special neighs/atom = 0.0000000
Neighbor list builds = 200
Dangerous builds = 200
unfix   1

velocity    all create 375.0 1312343 dist gaussian
fix     2 all npt temp 375.0 375.0 $(100.0*dt) aniso 0.0 1.01325 $(1000.0*dt)
fix     2 all npt temp 375.0 375.0 0.10000000000000000555 aniso 0.0 1.01325 $(1000.0*dt)
fix     2 all npt temp 375.0 375.0 0.10000000000000000555 aniso 0.0 1.01325 1
run     3000
Per MPI rank memory allocation (min/avg/max) = 8.894 | 8.909 | 8.920 Mbytes
Step Temp PotEng TotEng Press Volume c_msd[4] 
    2000          375   -8933.0707   -8891.2389   -21810.914    19397.542    4.2770463 
    2010     386.3279   -8934.8178   -8891.7223   -20600.972    19370.238    4.2948192 
    2020    395.20307    -8937.035   -8892.9495   -16703.396    19292.011    4.3159732 
    2030     427.2096   -8942.1077   -8894.4519   -11571.781    19173.707    4.3343665 
    2040     450.3277   -8946.0507   -8895.8159   -5591.9423    19030.905    4.3456967 
    2050    460.86603   -8948.1603     -8896.75    882.42052    18882.113    4.3477556 
    2060    467.29242   -8949.3183   -8897.1911    6595.5199    18745.893    4.3398961 
    2070    463.57287   -8949.0479   -8897.3357    10795.255    18636.498    4.3252546 
    2080     448.7388    -8947.479   -8897.4215    13232.028    18561.746    4.3068165 
    2090    437.49372   -8946.4232   -8897.6201    13658.808     18523.43    4.2830655 
    2100    439.08643   -8947.0078    -8898.027    12313.822     18518.51     4.252255 
    2110    454.90389   -8949.4059   -8898.6607     9847.326    18540.767    4.2166755 
    2120    464.44785   -8951.2981   -8899.4882    6880.9601    18582.467    4.1819593 
    2130    449.00265   -8950.5052   -8900.4183    4098.9295    18635.781    4.1552422 
    2140    441.45309   -8950.5791   -8901.3344    828.00862    18693.687    4.1417699 
    2150    444.50012   -8951.7527    -8902.168   -2605.9459    18748.805    4.1436713 
    2160     431.9357   -8951.0854   -8902.9024   -5167.6155    18793.987    4.1604348 
    2170    419.24209   -8950.3324   -8903.5653   -6606.4383    18824.305    4.1892633 
    2180    412.44481   -8950.2161   -8904.2073   -7105.2985     18837.58    4.2270936 
    2190     417.1584   -8951.4144   -8904.8798   -6820.3108    18833.812    4.2723583 
    2200    423.66226    -8952.874   -8905.6138   -5839.4484    18814.682    4.3245533 
    2210    416.82267   -8952.8721   -8906.3749   -4044.7993    18783.376    4.3821955 
    2220    413.79429   -8953.2626   -8907.1032   -1908.9136     18744.56     4.441884 
    2230    413.12851   -8953.8549   -8907.7698    217.42114    18703.415    4.4999572 
    2240    408.89891    -8953.983   -8908.3697    2224.7063    18664.846    4.5527416 
    2250    406.34214   -8954.2624   -8908.9344    3591.3187    18633.076    4.5965343 
    2260     404.2359   -8954.5937   -8909.5006    4206.3116    18610.789    4.6276705 
    2270    411.22869   -8955.9706   -8910.0975    4110.9124    18598.862    4.6444214 
    2280    415.18176   -8957.0611   -8910.7469    3872.8098    18596.729    4.6471831 
    2290    407.48277   -8956.8905   -8911.4352    3445.9251    18603.464    4.6358067 
    2300    409.37729   -8957.8073   -8912.1406    2212.9966    18617.658    4.6101826 
    2310    407.83176   -8958.3301   -8912.8359    536.29063     18636.33    4.5742883 
    2320     397.3465   -8957.8005   -8913.4759   -757.06681    18655.716    4.5355242 
    2330    393.86772   -8957.9836    -8914.047    -1856.131    18672.782    4.5008856 
    2340    392.62957   -8958.3709   -8914.5724   -2558.5781    18685.144    4.4746794 
    2350    383.58276   -8957.8677   -8915.0784   -2525.8643    18691.399    4.4586483 
    2360    371.13251   -8956.9561   -8915.5557   -2218.3293    18691.694    4.4527342 
    2370    375.12373   -8957.8482   -8916.0026   -2075.6406    18686.826    4.4560311 
    2380    383.00489   -8959.1655   -8916.4408     -2033.91    18677.277    4.4671515 
    2390    382.80769   -8959.5795   -8916.8767   -1732.5246    18663.374    4.4846435 
    2400    382.14431   -8959.9392   -8917.3104   -861.34382    18645.998    4.5076201 
    2410    374.02247   -8959.4358    -8917.713     319.3981    18627.213    4.5365068 
    2420    373.87412   -8959.7768   -8918.0705    1117.0012    18609.603    4.5700978 
    2430    381.81996   -8960.9971   -8918.4045    1898.4689    18595.067    4.6032675 
    2440    381.15351   -8961.2617   -8918.7434    2878.5739    18585.329    4.6305792 
    2450    371.84025    -8960.565   -8919.0857    3659.0293    18582.408    4.6488203 
    2460    366.39056   -8960.2876   -8919.4162    3644.8994    18587.792    4.6563847 
    2470    369.86312   -8960.9936   -8919.7348    2735.0077    18601.199    4.6537592 
    2480    369.88967   -8961.2948    -8920.033    1228.3266    18620.413    4.6428788 
    2490    373.58044   -8961.9721   -8920.2986   -591.23733    18641.897    4.6292521 
    2500    375.33451    -8962.404   -8920.5349   -2040.4195     18661.59     4.619274 
    2510     373.7717   -8962.4527   -8920.7579    -3096.991    18676.154    4.6143615 
    2520    371.11052   -8962.3809    -8920.983   -3486.1652    18683.304    4.6135862 
    2530    366.11734   -8962.0541   -8921.2132   -3024.9857    18682.397    4.6154301 
    2540    361.08846    -8961.711   -8921.4311   -2267.7927    18674.606    4.6181503 
    2550    363.10349   -8962.1266   -8921.6219   -1524.1164    18661.791    4.6201794 
    2560    366.36021   -8962.6452   -8921.7772   -833.99614    18645.774    4.6215392 
    2570    371.76751   -8963.3707   -8921.8995   -38.950718     18628.28    4.6237967 
    2580     376.6119   -8964.0177    -8922.006    1026.0126     18611.21    4.6281814 
    2590    367.11224   -8963.0564   -8922.1045    2272.2885    18596.974    4.6337209 
    2600     361.1119    -8962.469   -8922.1864    3014.5291    18588.216    4.6373854 
    2610    370.47771   -8963.5907   -8922.2633    2795.2723    18586.365    4.6389715 
    2620     359.6316   -8962.4515    -8922.334    2331.5142     18590.92    4.6418699 
    2630    361.23535   -8962.6846   -8922.3883     1555.167    18600.638    4.6467269 
    2640    374.63394   -8964.2072   -8922.4162    547.77463     18613.66    4.6528631 
    2650    364.86257   -8963.1202   -8922.4193   -308.21844    18627.701    4.6584645 
    2660    344.99952   -8960.8649   -8922.3797   -1106.3486    18640.747    4.6604151 
    2670    356.78002   -8962.0821   -8922.2828   -1952.6364    18650.958    4.6574029 
    2680    372.27835   -8963.6766   -8922.1484   -2189.0865    18656.579    4.6510085 
    2690    365.41053   -8962.7701    -8922.008   -1573.4145    18657.212    4.6455157 
    2700    367.31282   -8962.8346   -8921.8603   -768.65848    18654.235    4.6423496 
    2710    370.46295   -8963.0185   -8921.6928   -151.47843     18649.51    4.6385292 
    2720    363.52122   -8962.0594    -8921.508    364.21556    18644.531    4.6319496 
    2730    356.47816   -8961.0642   -8921.2985    655.85617    18640.471    4.6226275 
    2740    360.87926   -8961.3105   -8921.0538    671.33696    18637.964      4.61262 
    2750    367.07308    -8961.725   -8920.7775    920.76499    18637.116    4.6049482 
    2760    370.28082   -8961.7951   -8920.4897    1378.3707    18638.463    4.6007272 
    2770    370.20344   -8961.4975   -8920.2007     1515.302    18642.912    4.5980886 
    2780    376.88559   -8961.9573   -8919.9151    796.60383    18650.575    4.5932461 
    2790    380.75743   -8962.1112   -8919.6371   -127.41434     18659.91    4.5849415 
    2800    372.85628   -8960.9684   -8919.3757   -730.06729    18668.852    4.5752894 
    2810    369.59294   -8960.3499   -8919.1213   -1213.1536    18675.974     4.566062 
    2820    381.19326   -8961.3808   -8918.8581   -1662.8615    18680.142    4.5574142 
    2830    385.05772   -8961.5637     -8918.61   -1369.3323    18680.535    4.5497727 
    2840    371.88621   -8959.8773   -8918.3928   -895.36758    18677.774    4.5435803 
    2850    378.87699   -8960.4566   -8918.1923    -446.8682    18672.974     4.537773 
    2860    385.56788   -8961.0073   -8917.9966    363.53337    18667.333    4.5314176 
    2870     390.2821   -8961.3585    -8917.822    952.67179    18662.589    4.5231732 
    2880    393.59102   -8961.5863   -8917.6807    808.04273    18659.964    4.5123768 
    2890     386.9412   -8960.7402   -8917.5763    202.95079    18659.194    4.4993696 
    2900    388.68925   -8960.8589      -8917.5   -588.44311    18658.862    4.4850585 
    2910    401.02324   -8962.1921   -8917.4573    -1107.107    18657.207     4.468227 
    2920    400.89903   -8962.1882   -8917.4673   -1025.3233    18653.144    4.4500362 
    2930     399.8453   -8962.1502   -8917.5469   -384.64469    18646.895    4.4367332 
    2940    398.83727   -8962.1852   -8917.6943    452.15296    18639.905    4.4334892 
    2950    399.48903   -8962.4745   -8917.9109    1119.3613    18634.028    4.4407032 
    2960    390.21244   -8961.7049   -8918.1761    1680.2749    18630.825    4.4549466 
    2970    383.46731   -8961.2402   -8918.4638    1794.8879    18631.455    4.4704323 
    2980    392.18134   -8962.5202   -8918.7718    1563.5601    18636.161    4.4825619 
    2990    393.24408   -8962.9747   -8919.1077    939.13326     18644.35    4.4900717 
    3000    385.84687   -8962.5042   -8919.4624   -55.488807    18654.512    4.4934487 
    3010    375.07961   -8961.6476   -8919.8069   -802.04807    18664.478    4.4974573 
    3020    377.39803   -8962.2305   -8920.1312   -1484.0123     18672.46     4.506606 
    3030    377.68276   -8962.5643   -8920.4332   -1743.3751    18676.995    4.5183862 
    3040    373.43187   -8962.3719   -8920.7151   -1603.3589    18677.511    4.5285229 
    3050     380.5002   -8963.4273   -8920.9819   -1428.3952    18674.321    4.5348905 
    3060    398.83268   -8965.7583   -8921.2679   -1244.4489    18667.858    4.5373367 
    3070    390.08335    -8965.102   -8921.5876   -703.73288    18658.663    4.5382244 
    3080    365.63256   -8962.6789    -8921.892     109.0698    18648.059    4.5394957 
    3090    362.22971   -8962.5579   -8922.1506    677.52749    18637.821    4.5415261 
    3100    362.77365   -8962.8342   -8922.3663    856.32748    18629.215    4.5424376 
    3110    358.59353   -8962.5459   -8922.5443    491.52452    18622.574    4.5399667 
    3120    361.37469   -8963.0003   -8922.6884    83.297977    18617.151    4.5370777 
    3130    368.18046   -8963.8792   -8922.8081   -138.00486    18612.031     4.536835 
    3140    368.66014   -8964.0389   -8922.9143   -272.28101    18606.678    4.5401839 
    3150    368.35182   -8964.0988   -8923.0086   -247.61311    18600.831    4.5466607 
    3160    366.42205   -8963.9626   -8923.0876   -155.03992    18594.501    4.5559827 
    3170    365.99602   -8963.9652   -8923.1378    256.45143    18587.979    4.5654506 
    3180     375.6729   -8965.0644   -8923.1575     806.4255    18582.163    4.5717459 
    3190    376.78236   -8965.1919   -8923.1613    1340.9528    18578.269    4.5761796 
    3200    384.04361   -8966.0137   -8923.1731    1296.2437    18577.385    4.5785636 
    3210     391.9838   -8966.9461   -8923.2198    728.60652    18579.378    4.5772759 
    3220    379.16044   -8965.6067   -8923.3107    301.36619    18583.082    4.5731045 
    3230     373.9321   -8965.1402   -8923.4275   -442.79967    18587.372    4.5694283 
    3240    382.04598   -8966.1811   -8923.5632   -1460.3116    18590.519    4.5695871 
    3250    375.93778   -8965.6585    -8923.722    -1880.927      18590.4    4.5733227 
    3260    365.77091   -8964.6854   -8923.8831   -1773.0355    18586.059    4.5813549 
    3270    373.52215   -8965.6905   -8924.0235   -1704.0915    18577.677    4.5924343 
    3280    377.83885   -8966.2843   -8924.1358   -1530.6834    18565.502    4.6070405 
    3290    388.55005   -8967.5915   -8924.2482   -1066.5151    18550.045    4.6268422 
    3300     389.9429   -8967.8968   -8924.3981   -368.37825    18532.413    4.6522969 
    3310    375.32099   -8966.4545   -8924.5869    250.25938     18514.18     4.683893 
    3320    374.74367    -8966.602   -8924.7988    505.32797    18496.691    4.7213995 
    3330    374.06941   -8966.7462   -8925.0182    976.84856     18480.62    4.7621405 
    3340    365.45327   -8965.9863   -8925.2195    1866.6563    18467.074    4.8015203 
    3350    365.80581   -8966.1956   -8925.3894    2411.4789    18457.889    4.8337832 
    3360    366.54048   -8966.4303   -8925.5421    2457.1891    18454.216     4.854343 
    3370    359.89723   -8965.8286   -8925.6815    2137.4028     18456.12    4.8612716 
    3380    363.57461   -8966.3631   -8925.8058    1398.2618     18462.76    4.8573333 
    3390    359.77296   -8966.0354   -8925.9022    744.07026    18472.536    4.8494668 
    3400    355.73079   -8965.6351   -8925.9528   -332.03278    18483.787    4.8414496 
    3410    367.29821   -8966.9233   -8925.9506   -1858.5512     18494.05    4.8347189 
    3420    379.11815   -8968.2137   -8925.9225   -3147.4681    18499.982    4.8300686 
    3430    375.31406   -8967.7745   -8925.9077    -3444.427    18498.875    4.8278452 
    3440    369.94083   -8967.1862   -8925.9187   -3212.1188    18490.052    4.8292663 
    3450    365.94074   -8966.7623   -8925.9411   -2575.6241    18474.131    4.8371514 
    3460     363.9686   -8966.5503   -8925.9491   -1644.1508    18452.675    4.8528176 
    3470    379.33762   -8968.2495   -8925.9338   -850.78683    18427.809    4.8734504 
    3480    394.30352   -8969.8973   -8925.9122   -103.00304    18401.404    4.8950208 
    3490     388.1344   -8969.2006   -8925.9036    799.04648     18375.26     4.915484 
    3500    380.46653   -8968.3426    -8925.901    1348.5424    18351.271    4.9357287 
    3510    382.61485   -8968.5814   -8925.9001    1622.2324    18330.666    4.9595008 
    3520     387.1494   -8969.1159   -8925.9288    1275.7681    18313.897    4.9900994 
    3530    385.17997    -8968.979   -8926.0116      712.644    18300.208    5.0268334 
    3540    379.46418   -8968.4765   -8926.1467    454.04422    18288.397    5.0660865 
    3550    368.31542   -8967.4025   -8926.3163    693.77171    18277.903    5.1065196 
    3560    359.29117   -8966.5747   -8926.4952    1296.9364    18269.208    5.1497303 
    3570    366.41683   -8967.5531   -8926.6787    1850.8856    18263.538    5.1962689 
    3580    371.03656   -8968.2595   -8926.8698    2057.9965    18261.993    5.2445016 
    3590    373.86086   -8968.7699   -8927.0652    1566.2268    18264.912    5.2899577 
    3600    374.60589   -8969.0523   -8927.2644    481.62882    18271.148    5.3275647 
    3610    364.15586   -8968.0814   -8927.4593   -362.71687    18278.391    5.3565032 
    3620    370.35213   -8968.9664    -8927.653   -851.23546    18284.776    5.3796644 
    3630    379.41495    -8970.191   -8927.8667   -897.64744    18289.255    5.4006799 
    3640    372.99933   -8969.7079   -8928.0993    -684.3349    18291.718     5.422128 
    3650    377.35394   -8970.4366   -8928.3422   -637.81672    18292.607    5.4443309 
    3660    383.59316   -8971.3937   -8928.6033   -812.08277    18292.052    5.4665821 
    3670    380.64374   -8971.3476   -8928.8862   -1300.3785    18289.647    5.4880374 
    3680    381.02297   -8971.6976   -8929.1939   -1893.7445    18284.361    5.5073683 
    3690    372.69452   -8971.0859   -8929.5112   -1828.0944    18275.086     5.523886 
    3700    366.46419   -8970.6836    -8929.804    -791.2117     18262.09    5.5379901 
    3710    369.90136   -8971.3136   -8930.0505    793.29455    18247.662    5.5497335 
    3720    376.77355   -8972.2895   -8930.2598    2506.9527    18235.292    5.5580501 
    3730    380.35688    -8972.885   -8930.4556    3497.7723    18228.529    5.5616537 
    3740    382.96853    -8973.378   -8930.6573    3370.0297    18229.384    5.5605724 
    3750    385.93485   -8973.9179   -8930.8663    2504.2322    18237.541    5.5555244 
    3760    382.90949   -8973.7884   -8931.0742    1306.4136     18251.04     5.545784 
    3770    374.72894   -8973.0647   -8931.2631    161.42519    18267.254    5.5293864 
    3780    375.14206   -8973.2766   -8931.4289   -1133.1795    18283.537    5.5052444 
    3790    373.50338   -8973.2468   -8931.5819   -2071.6963     18297.13    5.4759146 
    3800    374.79256   -8973.5437    -8931.735   -2586.3732    18305.988    5.4457113 
    3810    385.83139   -8974.9431   -8931.9031    -2924.829    18308.987    5.4186218 
    3820    396.47954   -8976.3342   -8932.1063   -2919.6788    18305.504    5.3975134 
    3830    395.69952   -8976.4815   -8932.3406   -2304.6333    18295.724    5.3833699 
    3840    387.46171   -8975.7924   -8932.5705   -1308.3009      18281.1    5.3746988 
    3850    389.13782   -8976.1964   -8932.7874   -471.23038    18263.825    5.3681138 
    3860    387.69228   -8976.2412   -8932.9936    522.81041    18245.909    5.3617249 
    3870    390.27027   -8976.7273   -8933.1921    1541.7398    18229.538    5.3545209 
    3880    386.85853   -8976.5411   -8933.3864    2427.2217    18216.924    5.3467971 
    3890    382.67767   -8976.2666   -8933.5783     2940.611    18209.875    5.3371456 
    3900    391.84207   -8977.4922   -8933.7817    2821.9612     18209.34    5.3220039 
    3910    390.45425   -8977.5627   -8934.0069    2501.3589    18215.013    5.3015528 
    3920    383.87163   -8977.0631   -8934.2417    1831.5959    18225.972    5.2767231 
    3930    381.24003   -8976.9953   -8934.4674    910.69115    18240.662     5.248487 
    3940    373.42994    -8976.323   -8934.6663    215.60314    18257.109    5.2216985 
    3950    374.84868   -8976.6499   -8934.8349   -560.23757    18273.633    5.2008002 
    3960    385.28227   -8977.9673   -8934.9884   -979.53962    18288.642    5.1876472 
    3970    391.60642   -8978.8344   -8935.1501   -1080.7368    18301.199    5.1836616 
    3980    386.53144   -8978.4484   -8935.3303   -794.09075    18311.157    5.1900337 
    3990    381.08836   -8978.0338   -8935.5228   -570.42702    18319.122    5.2066302 
    4000    382.88247     -8978.43   -8935.7189   -498.51464    18325.632     5.233668 
    4010    384.10992   -8978.7625   -8935.9145   -573.61305    18330.858    5.2703811 
    4020    378.67282   -8978.3443   -8936.1028   -741.30289    18334.671    5.3128447 
    4030    378.81478   -8978.5318   -8936.2745   -1192.0502    18336.689    5.3567468 
    4040    386.43992     -8979.55    -8936.442   -1823.2674    18335.979     5.400937 
    4050    394.10848   -8980.5983   -8936.6349   -2365.5638    18331.257    5.4463501 
    4060    403.61198   -8981.8977   -8936.8742   -2537.0112    18321.467    5.4939323 
    4070     415.6263   -8983.5417    -8937.178   -2149.8933    18306.388    5.5425374 
    4080    418.74363   -8984.2709   -8937.5594   -1190.9633    18287.003    5.5883557 
    4090    406.01133   -8983.2759   -8937.9847    95.732924    18265.511    5.6282075 
    4100    399.26184   -8982.9399   -8938.4016    1446.3301    18244.801    5.6607099 
    4110    406.76715   -8984.1833   -8938.8078    2195.8095     18227.69       5.6846 
    4120    411.55074   -8985.1253   -8939.2162    2308.9302    18215.711    5.6995132 
    4130    413.05567   -8985.6998   -8939.6228    2090.6732    18209.056    5.7045102 
    4140    417.64552   -8986.6294   -8940.0404    1249.1101    18207.034    5.7008985 
    4150    417.65048   -8987.0686    -8940.479     388.2665    18207.797    5.6920144 
    4160    412.25973   -8986.9223   -8940.9341   -35.381525    18209.465    5.6792259 
    4170    405.61521     -8986.63    -8941.383   -274.24875    18211.055    5.6650105 
    4180    409.62287    -8987.506    -8941.812   -997.37071    18211.904    5.6536985 
    4190    417.14254   -8988.7816   -8942.2487   -1904.0464    18210.526    5.6509097 
    4200    413.05212   -8988.7843   -8942.7077   -2649.4888    18205.041     5.661977 
    4210    418.17817   -8989.8471   -8943.1987   -3118.8224    18193.919    5.6899359 
    4220    415.27489   -8990.0482   -8943.7237   -2644.8116    18176.462    5.7336009 
    4230    416.99429   -8990.7802   -8944.2639   -1652.7051    18153.788    5.7856469 
    4240    433.22461   -8993.1651   -8944.8382   -606.37771    18128.124    5.8381091 
    4250     431.9106   -8993.6301   -8945.4498    777.55655    18101.911     5.888518 
    4260    430.62338   -8994.1061   -8946.0694    2235.6456    18078.119    5.9396459 
    4270    441.87864   -8996.0085   -8946.7162    3231.3184    18059.719     5.993643 
    4280    441.71313   -8996.6861   -8947.4124    3761.5975    18048.694     6.049474 
    4290    442.81076   -8997.5453   -8948.1491    3496.1304    18045.891    6.1043789 
    4300    451.22421   -8999.2712   -8948.9365    2618.8562    18050.566    6.1562619 
    4310    447.32006    -8999.659   -8949.7598    1758.6997    18060.779    6.2038866 
    4320     438.4938   -8999.4985   -8950.5839    911.89485    18074.507    6.2462438 
    4330    424.36885   -8998.7045   -8951.3656    287.80077    18089.907     6.282534 
    4340    414.18452   -8998.2714   -8952.0685   -410.40057    18105.522    6.3137507 
    4350     410.2882   -8998.4652    -8952.697   -1152.0268    18119.849    6.3410139 
    4360    410.41423   -8999.0652   -8953.2829   -2104.8117    18131.272    6.3643282 
    4370    424.46561   -9001.2474   -8953.8976   -3273.3294    18137.782    6.3849557 
    4380    424.51975   -9001.9409    -8954.585    -3720.998    18137.158    6.4059062 
    4390    413.13984   -9001.3954   -8955.3091   -3434.3274    18128.602    6.4293184 
    4400    412.98219   -9002.1036   -8956.0348   -2941.8891    18112.861    6.4570707 
    4410     412.8011   -9002.8037   -8956.7552   -2116.1798    18091.255    6.4898191 
    4420    417.53906   -9004.0373   -8957.4602   -1271.7545    18065.652    6.5273479 
    4430    433.67369   -9006.5577   -8958.1807   -119.08349    18038.087    6.5701031 
    4440    425.86739   -9006.4164   -8958.9103    1507.8113    18011.163    6.6174845 
    4450    412.70685   -9005.6434   -8959.6053    2946.4326    17988.242     6.663114 
    4460    418.25324   -9006.9344   -8960.2776    3341.9401    17972.083    6.6975751 
    4470    430.20352   -9008.9756   -8960.9857    2907.9305    17963.351    6.7175631 
    4480    418.30681    -9008.384   -8961.7213    2492.0981     17961.09    6.7271829 
    4490    404.67057   -9007.5719   -8962.4303     1796.695    17964.173    6.7326922 
    4500    414.26065   -9009.3292   -8963.1178    259.72816    17970.834    6.7392939 
    4510    420.97113   -9010.7793   -8963.8193   -1168.1341    17977.924    6.7523034 
    4520    415.54889   -9010.8856   -8964.5305   -2038.6398     17982.44    6.7757481 
    4530    408.02224   -9010.7542   -8965.2387   -2193.7801    17982.598    6.8106735 
    4540    409.19174   -9011.5902   -8965.9443   -1968.3683    17978.103    6.8539264 
    4550    413.53098   -9012.7868   -8966.6568   -1333.3336    17969.611    6.9022625 
    4560     410.7586    -9013.197   -8967.3763   -466.07837    17958.517    6.9528838 
    4570    394.99556   -9012.1134   -8968.0511    886.40294    17946.815    7.0035355 
    4580    404.37683   -9013.7785   -8968.6697     2148.522    17937.313    7.0526073 
    4590    424.57417    -9016.672   -8969.3101     2706.837    17932.514    7.0981353 
    4600    421.79568   -9017.0537   -8970.0017    2767.2141    17933.514    7.1367459 
    4610    418.96383   -9017.4569   -8970.7209    2113.1615    17940.232    7.1633683 
    4620    421.63798   -9018.5113    -8971.477    909.10846    17951.152    7.1752314 
    4630     398.8846   -9016.7203   -8972.2242    365.99996     17963.91    7.1748248 
    4640    399.27164   -9017.4737   -8972.9343   -398.21045    17977.087     7.164947 
    4650    400.42891    -9018.292   -8973.6235   -1509.3489    17989.014    7.1495489 
    4660     402.4928   -9019.1892   -8974.2905   -2495.7614    17997.478    7.1313547 
    4670    412.97082   -9021.0331   -8974.9656   -3603.9341    18000.325     7.114244 
    4680    397.69376   -9019.9984    -8975.635   -3925.0573    17995.524    7.1036011 
    4690    386.59526   -9019.3818   -8976.2565   -3617.7413    17982.568    7.1009781 
    4700    396.65125   -9021.1092   -8976.8621    -3119.202    17962.217    7.1059167 
    4710    387.53439   -9020.6924   -8977.4623   -1380.8602     17936.07    7.1164453 
    4720    373.41975    -9019.659   -8978.0035    651.83381    17907.803    7.1266225 
    4730    390.92412   -9022.1192    -8978.511      1980.73    17881.602    7.1298429 
    4740    399.81232   -9023.6378   -8979.0381    2887.1794    17860.307    7.1228932 
    4750    386.47719   -9022.6735   -8979.5614    3167.8494    17845.627    7.1062143 
    4760    401.40728   -9024.8572   -8980.0797    2631.8855    17837.886    7.0845171 
    4770     402.0027   -9025.4488   -8980.6048    2050.4393    17835.903    7.0644878 
    4780    389.30451   -9024.5423   -8981.1148    1387.1697    17838.258    7.0508945 
    4790    388.61218    -9024.963   -8981.6127    660.92841    17843.437    7.0458465 
    4800    392.18955   -9025.8695   -8982.1202    224.17558    17849.903    7.0479033 
    4810    399.21867   -9027.1974   -8982.6639   -240.64708    17856.618    7.0565037 
    4820    398.35186    -9027.674   -8983.2373   -866.81412      17862.6    7.0748762 
    4830    403.68059   -9028.8611     -8983.83   -1784.7892    17866.515    7.1048705 
    4840    413.29168   -9030.5655   -8984.4622   -2301.1485    17866.652     7.147224 
    4850    414.56895   -9031.3887   -8985.1429     -2381.36    17862.021    7.2031948 
    4860    414.05976   -9032.0475   -8985.8586   -2405.6154    17852.507    7.2714023 
    4870    408.74643   -9032.1613    -8986.565   -2454.1598    17838.228    7.3463031 
    4880    413.30864   -9033.3557   -8987.2505   -2456.3662    17819.262     7.421298 
    4890    427.01284   -9035.5905   -8987.9566   -2458.1026     17795.76     7.493364 
    4900    441.12927     -9037.96   -8988.7513   -2117.6062    17767.964    7.5624498 
    4910    419.90094   -9036.4314   -8989.5909   -875.75407     17736.86    7.6266493 
    4920    405.35521   -9035.5911   -8990.3731    224.06601    17704.965    7.6808439 
    4930    423.61441   -9038.3858    -8991.131    385.45714    17674.454    7.7226977 
    4940    436.43813   -9040.6157   -8991.9303    520.18274    17645.793    7.7545549 
    4950     431.6422   -9040.8937   -8992.7433     780.3157    17619.241    7.7816481 
    4960    435.83621   -9042.1803   -8993.5621    478.07386    17595.104    7.8114041 
    4970     449.1499   -9044.5333     -8994.43   -260.46894    17572.684    7.8510869 
    4980     455.1756   -9046.1614   -8995.3859   -556.34934     17550.61    7.9043334 
    4990    449.83318   -9046.5609   -8996.3813   -520.28592    17528.245    7.9694941 
    5000    468.62038   -9049.6969   -8997.4216   -938.14903    17505.498    8.0429729 
Loop time of 2101.95 on 16 procs for 3000 steps with 864 atoms

Performance: 0.123 ns/day, 194.625 hours/ns, 1.427 timesteps/s
95.9% CPU use with 16 MPI tasks x 1 OpenMP threads

MPI task timing breakdown:
Section |  min time  |  avg time  |  max time  |%varavg| %total
---------------------------------------------------------------
Pair    | 464.81     | 1150.6     | 2100.6     |1471.4 | 54.74
Bond    | 0.00032949 | 0.0006001  | 0.0012743  |   0.0 |  0.00
Neigh   | 0.0219     | 0.051903   | 0.097722   |  10.3 |  0.00
Comm    | 0.6924     | 599.17     | 1533.4     |1805.6 | 28.51
Output  | 0.18647    | 0.19013    | 0.24293    |   3.1 |  0.01
Modify  | 0.30322    | 351.95     | 749.81     |1570.5 | 16.74
Other   |            | 0.01241    |            |       |  0.00

Nlocal:        54.0000 ave          84 max          26 min
Histogram: 3 2 1 0 2 0 4 1 1 2
Nghost:        549.125 ave         725 max         374 min
Histogram: 3 1 1 1 1 2 3 0 2 2
Neighs:         0.00000 ave           0 max           0 min
Histogram: 16 0 0 0 0 0 0 0 0 0
FullNghs:      2997.88 ave        5991 max         667 min
Histogram: 4 2 0 1 2 3 0 1 1 2

Total # of neighbors = 47966
Ave neighs/atom = 55.516204
Ave special neighs/atom = 0.0000000
Neighbor list builds = 300
Dangerous builds = 300
unfix   2

fix     3 all npt temp 375.0 375.0 $(100.0*dt) aniso 1.01325 1.01325 $(1000.0*dt)
fix     3 all npt temp 375.0 375.0 0.10000000000000000555 aniso 1.01325 1.01325 $(1000.0*dt)
fix     3 all npt temp 375.0 375.0 0.10000000000000000555 aniso 1.01325 1.01325 1
run     20000
Per MPI rank memory allocation (min/avg/max) = 8.894 | 8.911 | 8.920 Mbytes
Step Temp PotEng TotEng Press Volume c_msd[4] 
    5000    468.62038   -9049.6969   -8997.4216   -938.14903    17505.498    8.0429729 
    5010     488.0634   -9052.0231   -8997.5789   -2138.3712    17504.021    8.0908917 
    5020    471.28094   -9050.6258   -8998.0537   -2527.0061    17498.302     8.147649 
    5030    463.78242   -9050.5025   -8998.7669   -3517.5384    17487.271    8.2102936 
    5040    487.65463   -9054.0681   -8999.6695     -5071.02     17468.92    8.2792933 
    5050     496.9717   -9056.1389    -9000.701   -5354.8746    17440.478    8.3612773 
    5060    486.90668   -9056.0174   -9001.7023   -4077.0218    17401.501    8.4610448 
    5070    490.41178   -9057.3116   -9002.6054    -2124.912    17354.553    8.5772263 
    5080    494.50602   -9058.6285   -9003.4656    549.41487    17303.765    8.7032408 
    5090     481.0286   -9057.9445    -9004.285    3403.3945     17254.56    8.8276127 
    5100    500.31508    -9060.942   -9005.1311    4870.8259    17212.391    8.9367136 
    5110     527.8393   -9065.0357   -9006.1545    5446.7528    17180.201    9.0246853 
    5120     535.4272   -9067.1046   -9007.3769    5689.0508    17159.043     9.091178 
    5130    529.81178   -9067.8243    -9008.723    5265.9452    17149.159    9.1354811 
    5140     534.5548   -9069.7543   -9010.1239    4000.6794    17149.572    9.1597843 
    5150    563.82736   -9074.5384   -9011.6426    1853.4702     17157.68    9.1699973 
    5160    573.13584   -9077.2618   -9013.3277    99.818873    17169.419    9.1708218 
    5170    551.68589   -9076.5967   -9015.0553   -930.93849    17181.361    9.1648697 
    5180    538.69203   -9076.8194   -9016.7275   -1792.0753    17191.405    9.1579598 
    5190    539.86483   -9078.6173   -9018.3946   -2322.2189    17197.904    9.1583035 
    5200    542.05667    -9080.561   -9020.0938   -2524.4097    17199.813    9.1712103 
    5210    540.68595   -9082.1486   -9021.8343   -2164.4574    17196.842    9.1975655 
    5220    535.28746   -9083.2854   -9023.5733   -1848.1403    17189.646    9.2345787 
    5230    549.55999   -9086.6485   -9025.3442   -2232.3424     17178.77    9.2779077 
    5240    551.87857   -9088.7527   -9027.1898   -2225.2243     17163.75    9.3261851 
    5250    558.54733   -9091.3896   -9029.0828   -1627.5189    17144.655    9.3779238 
    5260    580.52352    -9095.833   -9031.0747   -701.67813    17122.681    9.4300906 
    5270    600.24214   -9100.1975   -9033.2396    292.89821    17099.647     9.478908 
    5280    578.93606   -9100.0661   -9035.4849    1717.1369    17077.591    9.5214292 
    5290    547.77709   -9098.6809   -9037.5756    2758.5319    17059.115    9.5536162 
    5300    563.89006   -9102.5175   -9039.6147    2934.9753    17046.125    9.5773956 
    5310    559.30658   -9104.1013   -9041.7098    2366.8479    17038.866    9.5995618 
    5320    564.38118   -9106.7802   -9043.8227     552.4911    17036.057    9.6225842 
    5330    564.24107   -9108.9479    -9046.006   -1572.5615     17034.29    9.6486406 
    5340    536.23691    -9107.944   -9048.1259    -2504.689    17029.716    9.6783864 
    5350    539.52004   -9110.3579   -9050.1736    -2691.432    17020.472      9.70965 
    5360    541.02783   -9112.5999   -9052.2474   -2118.8071    17006.278    9.7426085 
    5370    537.81342   -9114.2994   -9054.3055   -1248.9799    16988.275    9.7779949 
    5380    537.57355   -9116.3465   -9056.3794   -802.39293    16968.039    9.8133486 
    5390    512.75927    -9115.583    -9058.384    457.50409    16946.709    9.8475896 
    5400    510.02622   -9117.1572    -9060.263    1864.7856    16926.575    9.8772294 
    5410    533.61095   -9121.7001    -9062.175    3122.6095    16910.263     9.899714 
    5420    529.45052   -9123.2191   -9064.1581     4338.392    16900.142    9.9190891 
    5430    525.68982   -9124.8026   -9066.1611    4255.5419    16898.189     9.939672 
    5440    526.10868   -9126.9014   -9068.2132    2973.3181    16904.121    9.9683257 
    5450    506.19034    -9126.705   -9070.2387    1747.2541    16915.691    10.010366 
    5460     500.7118    -9128.033   -9072.1778   -110.39991     16930.34    10.065556 
    5470    487.57489   -9128.3898   -9074.0001   -1730.7778    16944.688    10.129795 
    5480    499.80762   -9131.5071   -9075.7529   -3068.4698    16955.607    10.196242 
    5490    499.82053   -9133.2994   -9077.5436    -3216.996    16960.742    10.255447 
    5500    475.48057   -9132.3337   -9079.2931    -2245.084    16959.873    10.295181 
    5510    470.26531   -9133.4321   -9080.9733   -1647.0038    16954.656    10.310331 
    5520    485.29978   -9136.8072   -9082.6713   -1723.1619    16946.193    10.308203 
    5530    474.50896   -9137.3247   -9084.3925    -1410.026    16934.613    10.301511 
    5540     454.0251   -9136.6708   -9086.0237   -502.91516    16920.596    10.298461 
    5550    455.53053   -9138.3693   -9087.5542    807.19771    16905.888    10.299779 
    5560    456.56956   -9139.9741   -9089.0431    1947.5472    16892.879    10.303145 
    5570    447.69843   -9140.4357   -9090.4943     3213.621    16883.804    10.306893 
    5580    447.55301   -9141.8508   -9091.9256    3460.8086    16880.764    10.305944 
    5590      444.262    -9142.924   -9093.3659    2868.4106    16884.189    10.297367 
    5600     429.9398   -9142.7178   -9094.7574    2879.7882    16893.154     10.28888 
    5610     427.8591   -9143.8285   -9096.1002    2698.9139    16907.447    10.285347 
    5620    423.57037   -9144.6331   -9097.3832    1260.0395    16926.526    10.283194 
    5630    425.35424   -9146.0634   -9098.6145   -1186.4664    16947.607    10.279157 
    5640    418.98145   -9146.5356   -9099.7976   -3299.7335    16966.191    10.274011 
    5650    396.86045   -9145.1837   -9100.9134   -4019.8284    16978.461     10.26767 
    5660    392.70647   -9145.7605   -9101.9535   -4378.2495    16982.896    10.257868 
    5670    401.72368   -9147.8154   -9103.0025   -3999.9014    16979.019    10.243039 
    5680    382.61612   -9146.7053   -9104.0239   -2347.1285    16967.752    10.220808 
    5690    374.18623   -9146.6868   -9104.9458   -772.99603    16952.126    10.188022 
    5700    382.81695   -9148.4844   -9105.7805    568.34752    16935.248    10.145549 
    5710    388.02502   -9149.8348   -9106.5501    2121.1399    16919.788    10.099482 
    5720    408.39929   -9152.8827   -9107.3251    2569.4814    16908.379    10.054232 
    5730    389.21908   -9151.5326   -9108.1147    2596.3731    16902.028    10.009841 
    5740    372.29306   -9150.3893   -9108.8595     1411.032    16900.486    9.9668535 
    5750    389.68059   -9153.0661   -9109.5967   -605.70882    16901.526    9.9312121 
    5760    393.65037   -9154.2778   -9110.3655   -1491.9538    16901.614    9.9098756 
    5770    375.56537   -9153.0167   -9111.1218   -497.91889    16899.208    9.9058134 
    5780    371.56553   -9153.2677    -9111.819    57.840525    16895.778    9.9160456 
    5790    377.62922   -9154.6062   -9112.4811    558.90306    16892.535    9.9324052 
    5800    364.89647   -9153.7997    -9113.095    1606.4765    16890.515    9.9457787 
    5810    366.08665   -9154.4971   -9113.6596    1840.6185    16891.391    9.9505935 
    5820     374.3437    -9155.962   -9114.2034    1331.8538    16895.582    9.9469175 
    5830    368.27274   -9155.8042   -9114.7228    1116.5624    16902.325    9.9381265 
    5840    369.66841     -9156.46    -9115.223    486.93553     16911.02    9.9274606 
    5850    359.06612   -9155.7397   -9115.6853   -813.96581    16920.382    9.9163411 
    5860    358.68373   -9156.1106   -9116.0989   -2457.2254    16927.999    9.9068197 
    5870    366.50815   -9157.3666   -9116.4821    -3770.643    16930.899    9.9039515 
    5880    367.36662   -9157.8381   -9116.8578   -4367.3233     16926.68    9.9111685 
    5890      363.823   -9157.8132   -9117.2282   -3950.8876    16914.374    9.9286136 
    5900    371.20663   -9159.0027    -9117.594   -2818.8516    16894.815    9.9544593 
    5910    360.13013   -9158.1014   -9117.9283   -743.00718    16870.347    9.9896059 
    5920    354.84357     -9157.78   -9118.1967    1396.8707    16844.836    10.032739 
    5930     366.8308   -9159.3291   -9118.4086    2765.6668    16822.192    10.078295 
    5940    365.24906   -9159.3235   -9118.5794    3958.9518      16805.1     10.11948 
    5950     360.5846   -9158.9371   -9118.7134    4450.2444    16795.642    10.148651 
    5960      380.015   -9161.2444   -9118.8532    2991.8871    16794.324    10.160899 
    5970    371.85727    -9160.492   -9119.0108    1299.3433     16798.62    10.158589 
    5980    364.56203   -9159.8268   -9119.1593   -802.06831    16805.214    10.147118 
    5990    386.90891   -9162.4654   -9119.3051   -3249.3582    16810.139    10.134317 
    6000    378.03703   -9161.6407   -9119.4701   -3938.5554    16809.247    10.130689 
    6010    383.42756   -9162.4359    -9119.664   -3928.4458     16801.04    10.140406 
    6020    402.09101   -9164.7586   -9119.9047   -2845.2716    16785.744    10.162523 
    6030    379.07161   -9162.4553   -9120.1693    238.56025     16765.69    10.191645 
    6040    370.07484   -9161.6804    -9120.398    2666.2224    16746.256    10.218081 
    6050    389.69292   -9164.1034   -9120.6326    2969.9952    16731.708    10.234688 
    6060    379.66301   -9163.2446   -9120.8927    3133.0567    16722.913    10.240116 
    6070    384.62658   -9164.0814   -9121.1757    2545.4462     16719.93    10.233632 
    6080     393.7244   -9165.4179   -9121.4973    1303.9077    16721.639     10.21464 
    6090    384.99508   -9164.8031   -9121.8563   -29.221372    16725.759    10.185116 
    6100    386.33572   -9165.3352   -9122.2388   -1605.7081    16729.742    10.151415 
    6110    392.51697   -9166.4331   -9122.6472    -2984.862    16730.724    10.122873 
    6120    392.95926    -9166.929   -9123.0938   -3354.1811    16726.308    10.108975 
    6130    388.34908   -9166.9042   -9123.5833   -3094.2604    16715.777    10.114718 
    6140    377.59036   -9166.2147   -9124.0939   -2566.1968     16699.65    10.139604 
    6150    368.14146   -9165.6508   -9124.5841   -1682.9505    16678.975    10.179856 
    6160    375.75106   -9166.9549   -9125.0393    -33.89888    16655.547     10.22955 
    6170    372.73245   -9167.0249   -9125.4461    2347.9413    16632.509    10.280238 
    6180    376.64257   -9167.8343   -9125.8193    3427.4403    16613.863    10.320089 
    6190    388.77246   -9169.5894   -9126.2212     2845.773    16601.469    10.340411 
    6200    384.13966   -9169.5105   -9126.6591    2283.2871    16594.472    10.342155 
    6210    376.72217   -9169.1339   -9127.1099    2196.1455    16591.791    10.330727 
    6220    372.99103   -9169.1636   -9127.5559    2495.8871    16593.235    10.311256 
    6230     380.5322   -9170.4566   -9128.0076    2058.6037    16599.116    10.285911 
    6240     383.7696   -9171.2839   -9128.4738    726.31931    16608.589    10.255523 
    6250    382.67666   -9171.6228   -9128.9346   -1087.7392    16619.232     10.22031 
    6260    384.08458   -9172.2387   -9129.3935   -2860.2619    16627.753    10.183753 
    6270    376.05038   -9171.8028   -9129.8538   -3766.4706    16631.057    10.153714 
    6280    373.26968   -9171.9573   -9130.3185   -4063.0983    16627.443    10.134728 
    6290    371.44513   -9172.2219   -9130.7866   -3668.9964    16616.466    10.129896 
    6300    366.99921   -9172.1745   -9131.2352   -2288.7565    16599.051    10.140946 
    6310    384.85493   -9174.6104   -9131.6792   -1019.6394    16577.579    10.166794 
    6320    385.93985   -9175.1815   -9132.1294    839.54689    16554.561    10.207787 
    6330    364.54216   -9173.2029   -9132.5377    3090.0861    16533.384    10.257763 
    6340    368.99126   -9174.0656   -9132.9041    3964.5889    16517.815    10.303825 
    6350    375.26092   -9175.1345   -9133.2735    3806.6725    16509.454    10.338805 
    6360    365.30807   -9174.3929   -9133.6423    3357.6976    16508.068    10.363609 
    6370    366.27352   -9174.8574   -9133.9991    1981.7277    16512.676    10.381516 
    6380    364.62165   -9175.0008   -9134.3267   -390.79562    16520.686    10.397778 
    6390    367.59912    -9175.615   -9134.6088    -2606.194    16527.906    10.417807 
    6400    371.32061   -9176.2962   -9134.8748   -3362.9576    16530.532    10.446343 
    6410     350.1122   -9174.1806    -9135.125   -2831.7472    16527.214    10.482563 
    6420    349.21181   -9174.2864   -9135.3313   -2601.8285    16518.696    10.519263 
    6430    379.30827   -9177.8302   -9135.5177   -2382.6399    16505.527    10.550133 
    6440    372.24702   -9177.2217    -9135.697   -734.47207    16488.438    10.575972 
    6450    364.50063   -9176.5099   -9135.8493    909.90644    16470.154    10.598654 
    6460    373.55475   -9177.6431   -9135.9725     1810.874    16453.578    10.618968 
    6470    381.54382   -9178.6547   -9136.0929    2474.7329    16440.446    10.637355 
    6480    391.53532   -9179.9111   -9136.2348    2606.9368    16431.846    10.650312 
    6490    412.54642   -9182.4645   -9136.4443    2063.2119    16427.923     10.65518 
    6500    399.09006   -9181.2598   -9136.7407    1525.4885     16427.74    10.654965 
    6510    373.47169    -9178.733   -9137.0717    913.53407    16430.293    10.654175 
    6520    380.86792   -9179.8878   -9137.4014   -221.73622    16434.414    10.656028 
    6530    368.82129   -9178.8659   -9137.7233   -733.61529    16438.194    10.664568 
    6540    349.22144   -9176.9528   -9137.9966   -387.58408    16440.761     10.67859 
    6550    370.96298   -9179.6207   -9138.2392   -658.17586     16442.47    10.692627 
    6560    367.72803   -9179.4907   -9138.4701   -415.72453    16443.071    10.706187 
    6570    368.37923   -9179.7922    -9138.699   -246.46268    16442.916    10.719251 
    6580    373.17519   -9180.5664   -9138.9382   -295.83329    16442.282    10.732616 
    6590    362.46276   -9179.6014   -9139.1681   -272.82844    16441.135    10.749893 
    6600    379.55212   -9181.7126   -9139.3729   -1059.7674    16439.338    10.773282 
    6610    392.28102   -9183.3355    -9139.576   -1617.3959    16435.662    10.803333 
    6620    385.82941   -9182.8378   -9139.7979   -1341.9775    16429.241    10.839772 
    6630    398.84816   -9184.5403   -9140.0482    -915.9124    16420.436    10.881314 
    6640    406.37217   -9185.6791   -9140.3476     32.07757    16410.112    10.925023 
    6650    400.68545   -9185.4061    -9140.709    1038.6149    16399.931    10.966523 
    6660    390.03031   -9184.6404    -9141.132    1666.3065    16391.654    11.004061 
    6670    373.03357   -9183.1842   -9141.5718    1772.5062    16386.365    11.036735 
    6680    382.99591   -9184.7392   -9142.0155    712.60463    16384.058    11.061071 
    6690     388.0513     -9185.76   -9142.4723   -134.13287    16383.091     11.07752 
    6700    382.30519   -9185.5795   -9142.9327   -367.41805    16381.989    11.090435 
    6710    383.93181   -9186.2223   -9143.3941   -537.81509    16380.229    11.103267 
    6720    390.15353   -9187.3935   -9143.8713   -684.73482    16377.512     11.11715 
    6730    392.17638   -9188.1219    -9144.374   -102.61108    16373.698    11.131432 
    6740    389.33058   -9188.3321   -9144.9017    1056.0652    16369.808    11.143665 
    6750    382.15744   -9188.0728   -9145.4426     1732.316    16367.758    11.149955 
    6760    383.01801   -9188.7179   -9145.9917    1591.6464    16368.709    11.146484 
    6770    385.75282   -9189.5852   -9146.5539    848.59593     16372.42    11.131968 
    6780    385.48484   -9190.1211   -9147.1197    -244.5176    16377.592    11.109738 
    6790    379.10243   -9189.9692   -9147.6798    -1121.103    16382.325    11.085665 
    6800    363.55331   -9188.7533   -9148.1984   -835.09552     16385.23    11.064086 
    6810    368.49124   -9189.7772   -9148.6715   -640.88008    16386.597    11.046833 
    6820    375.00037   -9190.9594   -9149.1275   -904.36808    16386.727    11.037347 
    6830    362.40994    -9189.977   -9149.5496   -822.98424    16385.314    11.038284 
    6840    367.83492   -9190.9599   -9149.9273    -760.5923    16382.439    11.048808 
    6850    372.81675    -9191.875   -9150.2867   -786.28761    16378.188    11.067306 
    6860    375.87805   -9192.5693   -9150.6395   -658.95618    16372.565    11.091584 
    6870    389.16414   -9194.4306   -9151.0188    17.482449    16365.853    11.119254 
    6880    363.92743   -9191.9973   -9151.4007    1687.5693    16359.378     11.14723 
    6890    361.29497   -9192.0505   -9151.7475    2185.8958    16355.742    11.169202 
    6900    383.84548   -9194.9105   -9152.0919    1638.0634    16355.879      11.1808 
    6910     376.2639   -9194.4222   -9152.4494     1613.402    16359.075     11.17859 
    6920    367.00612   -9193.7545   -9152.8144    1327.5056    16365.122    11.159438 
    6930    356.65873   -9192.9461   -9153.1603    570.28771    16373.448    11.127231 
    6940    353.61988   -9192.9058   -9153.4589   -63.718932    16382.783    11.089461 
    6950    359.89789    -9193.832   -9153.6849   -534.36544    16391.962    11.051193 
    6960    366.79874   -9194.7684   -9153.8514   -488.27968    16400.227    11.017898 
    6970     363.7105   -9194.5507   -9153.9782    -424.2213      16407.6    10.994163 
    6980    365.28489   -9194.8261   -9154.0781   -815.34143    16414.092    10.980589 
    6990    350.49889   -9193.2505   -9154.1518    -745.8334    16419.185    10.973904 
    7000    345.80614   -9192.7734   -9154.1982   -643.27656    16422.911    10.968468 
    7010    367.28204   -9195.1913   -9154.2205   -734.71563    16425.412    10.961098 
    7020    365.49458   -9194.9918   -9154.2204   -109.36137    16426.723    10.952995 
    7030    354.30197    -9193.718   -9154.1951    83.532237    16427.727    10.944618 
    7040    352.11646    -9193.406   -9154.1269   -87.461544    16428.856    10.934885 
    7050    358.95191   -9194.0522   -9154.0106   -562.35967    16429.793    10.922305 
    7060    363.64316   -9194.4252   -9153.8603   -827.64311     16429.76    10.905549 
    7070    359.02978   -9193.7334   -9153.6831   -412.35992    16428.367    10.884255 
    7080    367.10493   -9194.4211     -9153.47    170.47529    16426.255    10.859648 
    7090    382.16833    -9195.851   -9153.2196    978.39898    16424.507    10.835695 
    7100    384.37734   -9195.8412   -9152.9633    2130.6297     16424.59    10.815712 
    7110    385.32477    -9195.723   -9152.7395    3044.1434     16428.47      10.7968 
    7120    369.85742   -9193.8134   -9152.5553    3468.5307    16437.746    10.771632 
    7130     363.1893   -9192.9028   -9152.3885    2719.3346    16453.056    10.733963 
    7140    386.07063   -9195.2662   -9152.1994    436.92047    16472.977    10.682888 
    7150    398.36706   -9196.4339   -9151.9955   -1932.8689    16493.611    10.625355 
    7160    384.94248   -9194.7562   -9151.8153   -4006.3864    16510.681    10.572846 
    7170    395.55808   -9195.7999   -9151.6748   -5462.3648    16520.467    10.536771 
    7180    391.21483   -9195.2274   -9151.5868   -4585.4173    16520.634    10.524342 
    7190    392.13424   -9195.2967   -9151.5536   -2337.4124    16512.642    10.534544 
    7200    398.64258   -9196.0285   -9151.5594    534.31509    16500.515    10.560564 
    7210    371.38918   -9193.0114   -9151.5824    3784.2216    16489.495    10.590537 
    7220    372.00325   -9193.1124   -9151.6149    4652.9364    16485.047    10.610384 
    7230    389.73703   -9195.1438   -9151.6681    2976.6155    16488.706    10.613086 
    7240    389.28509   -9195.1716   -9151.7462      591.358    16497.669    10.601925 
    7250    398.86318   -9196.3478    -9151.854   -1437.4268    16507.737    10.585463 
    7260      399.085   -9196.5342   -9152.0157   -1964.5662    16515.397    10.573972 
    7270    379.80443   -9194.5939   -9152.2261   -1057.5248     16519.71    10.571499 
    7280    376.18736   -9194.4143     -9152.45   -837.87569    16521.937    10.573027 
    7290    376.82864    -9194.709   -9152.6732   -1005.8111    16522.602    10.575378 
    7300     378.3683   -9195.1072   -9152.8997   -1660.9954    16521.366    10.578781 
    7310    391.03947   -9196.7695   -9153.1484   -2361.2295    16517.128    10.586317 
    7320    385.54977    -9196.438   -9153.4294   -1721.9656    16508.829    10.603122 
    7330    382.98128   -9196.4451    -9153.723   -503.53562    16497.511    10.628597 
    7340    396.37062   -9198.2618    -9154.046    61.011718    16485.177    10.657688 
    7350     387.6054   -9197.6481   -9154.4101    1005.7829    16473.056    10.690289 
    7360    377.10128   -9196.8535   -9154.7873    1772.7914    16462.772    10.727883 
    7370    388.81684   -9198.5568   -9155.1837    1801.2885    16455.599    10.768936 
    7380    377.69569   -9197.7179   -9155.5854    2096.2542    16451.774    10.812308 
    7390    374.28203   -9197.7178   -9155.9661    2001.9222    16451.677    10.856348 
    7400    379.95361   -9198.7286   -9156.3442    1282.9357    16455.109    10.897123 
    7410    357.10612   -9196.5324   -9156.6966     647.7412    16460.903     10.92868 
    7420    360.85684   -9197.2522   -9156.9981   -667.75926    16467.766    10.943562 
    7430    388.51391   -9200.6317   -9157.2924   -2690.6408    16473.284    10.941026 
    7440    380.55654   -9200.0664   -9157.6148   -3174.9706    16474.194    10.930175 
    7450    369.79288   -9199.2003   -9157.9494   -2843.5505    16469.449    10.922473 
    7460    369.76373   -9199.5244   -9158.2767   -2042.6686    16459.613    10.926333 
    7470    365.81684   -9199.3843   -9158.5769   -361.47614    16446.203    10.944025 
    7480    377.14978   -9200.9209   -9158.8493    1247.8261    16432.127    10.969191 
    7490    387.53954   -9202.3585   -9159.1279    2815.2684    16420.333    10.989067 
    7500     379.2772    -9201.733   -9159.4241    3862.7892    16413.557    10.991455 
    7510    377.55673   -9201.8545   -9159.7374    2932.1751    16413.419    10.973975 
    7520    372.33466   -9201.5774   -9160.0429    984.31475    16418.442    10.948197 
    7530    380.17083   -9202.7505   -9160.3419   -1415.9206    16425.164    10.930992 
    7540    379.46694   -9202.9877   -9160.6576   -2933.5459     16429.46    10.933857 
    7550    360.92697   -9201.2332   -9160.9713   -2835.8772    16428.736     10.95894 
    7560    360.03167   -9201.4196   -9161.2575   -2165.0974     16422.93    11.002121 
    7570     360.3882   -9201.6975   -9161.4956    -445.6848    16413.387    11.054416 
    7580    352.27545   -9200.9729    -9161.676    1386.7125    16403.064    11.103475 
    7590    359.23841   -9201.8797   -9161.8061    1791.5355    16395.012    11.138895 
    7600    382.32781   -9204.5749   -9161.9256     404.7897     16389.88     11.15841 
    7610    375.76948   -9203.9767    -9162.059   -730.44795    16385.535     11.16832 
    7620    362.41231   -9202.6232   -9162.1955   -1491.9372    16379.882    11.175325 
    7630    360.99748   -9202.5861   -9162.3163   -1515.7728    16371.657    11.182538 
    7640    359.03376   -9202.4641   -9162.4133   -634.82601    16360.831    11.189815 
    7650    348.21601   -9201.3083   -9162.4643    1254.8726    16349.011    11.195538 
    7660    347.70502   -9201.2308   -9162.4438     3156.548    16339.434    11.195713 
    7670    364.16269   -9202.9957   -9162.3729    3656.1759    16335.253    11.185011 
    7680    357.80278   -9202.1859   -9162.2724    3105.1881    16337.457    11.163295 
    7690    358.20369   -9202.0983   -9162.1402    1414.2799    16345.041    11.136473 
    7700    377.36852   -9204.0581    -9161.962   -973.21966    16355.069    11.113362 
    7710    380.95332   -9204.2655   -9161.7696   -2486.5667    16363.489    11.100897 
    7720    378.35653   -9203.8083   -9161.6021   -3050.0581    16367.592    11.103299 
    7730    389.49766   -9204.9214   -9161.4723    -2602.231    16366.391    11.123857 
    7740    379.04673     -9203.66   -9161.3768   -1065.2202    16360.663    11.163764 
    7750    370.14693   -9202.5786   -9161.2882    139.93788    16352.935    11.220165 
    7760    382.34232   -9203.8288   -9161.1779    213.73409    16345.275    11.287238 
    7770    382.76749   -9203.7615   -9161.0632    460.52753    16338.032     11.35789 
    7780    371.67045   -9202.4168   -9160.9564    1201.4985    16331.702    11.426867 
    7790    378.39833    -9203.063   -9160.8521    1300.3505    16327.366    11.491284 
    7800    378.33373   -9202.9473   -9160.7436    1498.1774    16325.379    11.547149 
    7810    382.42816   -9203.3085   -9160.6481    1779.7035    16326.111    11.587424 
    7820    398.73189   -9205.0626   -9160.5835    1697.0524    16329.964     11.60787 
    7830    400.75985   -9205.2815   -9160.5762    1229.6491     16336.82     11.61165 
    7840    379.13594   -9202.9134   -9160.6203    774.22091    16345.963    11.605281 
    7850    370.25727    -9201.976   -9160.6733   -222.38985    16356.442    11.593513 
    7860     369.5308   -9201.9322   -9160.7105   -1840.8501    16366.485    11.579015 
    7870     360.9051   -9200.9837   -9160.7242   -3788.5748    16373.223    11.566239 
    7880    377.11475   -9202.7999   -9160.7322    -4909.947    16373.284    11.562921 
    7890     394.2892   -9204.7527   -9160.7692   -3831.7337    16364.889    11.574261 
    7900    388.46346   -9204.1771   -9160.8434   -1496.1077    16349.764     11.59728 
    7910    376.97172   -9202.9749   -9160.9232    862.06646    16331.895    11.623231 
    7920    381.04628   -9203.4993    -9160.993    2354.8655    16315.366     11.64203 
    7930    392.29079   -9204.8369   -9161.0762    2973.9156    16302.878    11.648198 
    7940    400.19756   -9205.8532   -9161.2105    2360.5906    16295.495    11.645272 
    7950    398.14069    -9205.834   -9161.4208    993.78549    16292.188    11.643579 
    7960    381.93926   -9204.2889    -9161.683    -581.1386    16290.598    11.653625 
    7970    371.77465   -9203.4302   -9161.9582   -1610.3705    16288.059    11.681528 
    7980    370.54202   -9203.5468   -9162.2122   -1732.8169    16282.771    11.725265 
    7990    386.34526   -9205.5567   -9162.4593   -1349.2327    16274.449    11.775975 
    8000    386.05075   -9205.7857   -9162.7212   -88.720134    16263.857    11.825134 
    8010    377.08318   -9205.0595   -9162.9953    1337.4293    16253.089    11.865225 
    8020    373.72895   -9204.9579   -9163.2679    1921.5824    16244.544    11.888303 
    8030    382.00324   -9206.1599   -9163.5469    1463.1509     16239.18    11.890438 
    8040    382.86381   -9206.5497   -9163.8406    1459.7626     16236.44    11.875283 
    8050    369.18263    -9205.316   -9164.1331    1832.6936    16236.325    11.849942 
    8060    360.70426   -9204.6435   -9164.4064    1678.3986    16239.379    11.819811 
    8070    357.18002   -9204.4979   -9164.6539    798.43735    16245.305    11.785893 
    8080    357.83369   -9204.7815   -9164.8646   -434.59318    16252.638    11.747705 
    8090    371.20124   -9206.4429   -9165.0348   -1634.0039    16259.214    11.710017 
    8100    375.67491   -9207.1002   -9165.1931    -1455.911    16263.136    11.679733 
    8110    351.36477   -9204.5206   -9165.3254   -326.32361    16264.661    11.659602 
    8120    358.03075   -9205.3527   -9165.4138   -117.34198    16265.456    11.648248 
    8130    383.50144   -9208.2661   -9165.4859   -339.15998    16265.978    11.643494 
    8140    375.42443   -9207.4506   -9165.5714    150.78282    16266.037    11.644018 
    8150     360.6198   -9205.8852   -9165.6575    647.62559    16266.363    11.647267 
    8160    363.60563   -9206.2828    -9165.722    450.87718    16267.708    11.652154 
    8170    364.78992   -9206.4529     -9165.76    269.98351    16269.868    11.660773 
    8180    369.10278   -9206.9501   -9165.7761    292.36394    16272.551    11.674267 
    8190    377.18978   -9207.8543   -9165.7782    350.25976    16275.786    11.692063 
    8200    378.72786   -9208.0278   -9165.7802    35.234063    16279.584    11.711271 
    8210    373.09291   -9207.4054   -9165.7863   -338.03905     16283.51     11.72881 
    8220    369.21462   -9206.9756   -9165.7891   -1494.2705    16286.714    11.743832 
    8230    360.99739   -9206.0477   -9165.7779   -2762.2964    16287.272    11.758893 
    8240    351.42739   -9204.9489   -9165.7467   -3491.1804    16283.021    11.778097 
    8250    348.48098    -9204.557   -9165.6834   -3442.8353    16272.618    11.805349 
    8260    362.13024   -9205.9664   -9165.5702   -1780.5666    16256.287    11.840535 
    8270    384.10484   -9208.2486   -9165.4011    1533.6882    16236.922    11.875921 
    8280    377.39854   -9207.3004    -9165.201    5592.3182    16220.284    11.896332 
    8290    379.84132   -9207.4153   -9165.0435    8037.0454    16213.186    11.886457 
    8300    360.37215   -9205.1488   -9164.9487    7744.7993    16219.815    11.839717 
    8310    369.25275   -9206.0745   -9164.8838    4690.0287    16239.823    11.759957 
    8320    392.59534   -9208.5282   -9164.7336   -428.18971    16268.015    11.661029 
    8330    384.02835   -9207.3304   -9164.4915    -5807.894    16295.579    11.563041 
    8340    387.12734   -9207.4362   -9164.2516    -9070.497    16313.252    11.486865 
    8350     384.5305   -9206.8312   -9163.9363   -8645.4866    16315.405    11.444468 
    8360    368.40584   -9204.9866   -9163.8903   -6124.3157    16302.382    11.436473 
    8370    384.40829   -9206.7288   -9163.8475   -1938.3008    16278.653    11.456714 
    8380    367.70233   -9204.7649   -9163.7472    2659.4259    16251.488    11.495894 
    8390      379.192   -9205.8824   -9163.5829    6312.3806     16228.85    11.538238 
    8400    382.24933    -9206.079   -9163.4385    7453.5908    16216.924    11.568266 
    8410    390.81164   -9206.9621   -9163.3665    6520.9228    16217.835     11.57474 
    8420    394.72105   -9207.4019   -9163.3702    4323.8556    16230.117    11.556258 
    8430    391.62254   -9207.0862   -9163.4001    1476.2083    16250.001    11.519606 
    8440    407.04791   -9208.8685   -9163.4617   -1271.4678    16272.617    11.476041 
    8450    381.04296   -9206.0436   -9163.5377   -2915.7119    16293.229    11.437622 
    8460    379.23771   -9205.9503   -9163.6458   -3555.1041    16308.877     11.41177 
    8470    378.26872   -9205.9643   -9163.7679   -4087.9633    16318.221    11.400199 
[...]
   22890    381.49418   -9226.8998   -9184.3435   -1720.3147     16496.24    12.298016 
   22900    377.52637    -9226.426   -9184.3124   -3064.1919    16500.146    12.284881 
   22910    365.19737    -9225.056   -9184.3177   -2718.0272    16498.761    12.278655 
   22920     387.3162   -9227.5562   -9184.3505   -2307.2218    16492.401    12.278777 
   22930    371.23623   -9225.7641   -9184.3521    -1244.257    16481.901    12.283642 
   22940    360.77029   -9224.6005    -9184.356   -277.43423    16469.064    12.288973 
   22950     381.3202   -9226.8844   -9184.3476   -162.71198    16455.513     12.29721 
   22960    366.48607   -9225.1918   -9184.3098    522.26406    16441.678     12.31467 
   22970    362.84393   -9224.7428    -9184.267    1864.8674    16428.833    12.341249 
   22980     387.9417   -9227.4988   -9184.2233    2675.5636    16419.188    12.374615 
   22990    380.67404   -9226.6426   -9184.1778    3677.5488    16414.385     12.41072 
   23000    384.81255    -9227.098   -9184.1716    3464.4449    16415.995    12.444499 
   23010    387.20671   -9227.3981   -9184.2046    2670.6386    16423.825    12.477859 
   23020     361.5561   -9224.5573   -9184.2252    1408.1023    16436.469    12.509998 
   23030    369.57336   -9225.4265      -9184.2   -849.49495     16451.61    12.536605 
   23040     375.9156   -9226.0601   -9184.1261   -3148.3124     16465.31    12.553993 
   23050    369.05866    -9225.212    -9184.043   -4501.9164    16473.489    12.558497 
   23060    374.59703   -9225.7814   -9183.9946   -4560.2965    16473.746    12.554983 
   23070    377.48445    -9226.079     -9183.97   -3919.7194    16465.827    12.553521 
   23080     384.3506   -9226.8452   -9183.9703   -3246.2012    16450.722    12.558713 
   23090    388.98083   -9227.3846   -9183.9932   -1341.1631    16429.911    12.573322 
   23100    374.45482   -9225.7712   -9184.0002    857.30302    16406.609    12.593902 
   23110     369.6357   -9225.2004   -9183.9669    3030.4011    16384.794    12.612836 
   23120    385.56948   -9226.9528   -9183.9419    4984.9625    16368.376    12.623309 
   23130    376.24219    -9225.887   -9183.9166     5674.865    16360.653    12.619477 
   23140    375.37974   -9225.8297   -9183.9555    4974.5649    16362.921    12.602484 
   23150    383.32495   -9226.8105   -9184.0501    3169.4209    16373.996    12.578296 
   23160    375.44989   -9225.9947   -9184.1127    1049.2342    16390.772    12.550088 
   23170    379.53044   -9226.5284   -9184.1912   -993.08214    16409.578    12.524382 
   23180     379.3348   -9226.5929   -9184.2775   -3039.6068    16426.712     12.50967 
   23190    364.18129   -9224.9697   -9184.3447   -4886.6849    16438.411    12.510655 
   23200    382.52332   -9227.1317   -9184.4607   -6083.2633     16441.41    12.531386 
   23210    387.96903    -9227.927   -9184.6485   -5821.9581    16433.615    12.571047 
   23220    376.14971   -9226.8389   -9184.8788    -3669.738    16415.522    12.624978 
   23230    373.72715   -9226.7839   -9185.0941    135.44257    16391.026    12.687709 
   23240    363.35263   -9225.7578   -9185.2253    4518.8316     16366.85      12.7428 
   23250    373.65549   -9227.0016   -9185.3197    7348.4522    16350.501    12.777706 
   23260    379.70561   -9227.8419   -9185.4852     8084.501    16347.014    12.787922 
   23270    361.19538   -9226.0097   -9185.7178    6311.4666    16357.662    12.765668 
   23280     369.2502    -9227.157   -9185.9666    2098.8564    16379.316    12.714433 
   23290    383.97689   -9228.9959   -9186.1627    -2283.143    16404.827    12.649829 
   23300    365.94863   -9227.1431    -9186.321   -4895.2326    16426.585    12.587708 
   23310    353.75082    -9225.919   -9186.4576   -6484.1405    16439.672    12.541289 
   23320    368.95986   -9227.7686   -9186.6106    -6601.214    16441.276    12.514744 
   23330    359.72378   -9226.8969   -9186.7692   -4836.8255    16431.227    12.508705 
   23340     349.9677   -9225.9257   -9186.8863   -2938.4578    16412.412    12.521128 
   23350     364.1044   -9227.5574    -9186.941   -1155.0818    16388.307    12.541701 
   23360    378.72423   -9229.1893   -9186.9421    703.41684    16362.155    12.567115 
   23370    365.94374   -9227.7288   -9186.9072    2882.2705    16337.372    12.597874 
   23380    364.55596   -9227.5291   -9186.8623    5021.3407    16317.844    12.628446 
   23390    381.56644   -9229.3934   -9186.8291    5618.0788    16307.063    12.662046 
   23400    387.69207   -9230.0928   -9186.8452    5352.9098    16306.148    12.697242 
   23410    377.89875   -9229.0689   -9186.9137     4840.225    16314.757    12.724774 
   23420     374.6754   -9228.7775   -9186.9819    2716.3669    16331.703    12.744795 
   23430    358.00161   -9226.9443   -9187.0086     76.21897    16353.411    12.756244 
   23440    351.01839   -9226.1301   -9186.9735   -2116.3615     16375.31    12.759991 
   23450    361.20546   -9227.1677   -9186.8746   -3827.5587    16393.432    12.761795 
   23460    350.97559   -9225.8755   -9186.7237   -4599.7365    16404.806    12.760876 
   23470    358.44821   -9226.5295    -9186.544   -4698.6838    16408.019    12.757305 
   23480    369.55991   -9227.5477   -9186.3228   -4022.4132    16402.859    12.753761 
   23490    372.80017   -9227.6449   -9186.0585   -1803.3161    16390.762    12.751315 
   23500    392.04797   -9229.4964   -9185.7629    671.33987    16375.535     12.75454 
   23510    389.88401   -9228.9084   -9185.4162    2182.1868    16361.409    12.758866 
   23520    385.57255   -9228.1091   -9185.0979    2755.1466    16351.127    12.753143 
   23530    386.24568   -9227.9227   -9184.8364    2786.6758    16345.773    12.734405 
   23540    376.14628   -9226.5152   -9184.5555    2395.1076    16345.337     12.69743 
   23550    382.63696   -9226.9893   -9184.3056    2031.7836     16349.19    12.646288 
   23560    388.08293   -9227.3741   -9184.0829    1632.5986    16356.676    12.595093 
   23570    377.11651   -9225.9404   -9183.8725    970.84918    16367.015    12.545959 
   23580    378.69112   -9225.9426    -9183.699    198.43973    16379.066     12.49994 
   23590    379.14314   -9225.8465   -9183.5526   -661.80616     16391.43    12.462728 
   23600    373.77359   -9225.0898   -9183.3947   -1939.4732    16402.489    12.433705 
   23610    384.52192   -9226.1373   -9183.2433   -2770.3268    16410.116    12.414955 
   23620    372.23787   -9224.6228   -9183.0991    -2573.355    16412.892     12.40507 
   23630    372.15176   -9224.4837   -9182.9696   -1651.9912    16411.178    12.400457 
   23640    392.70629   -9226.6741   -9182.8672   -1143.3086    16406.447    12.404937 
   23650    395.21653    -9226.874    -9182.787   -899.82793    16399.659    12.417152 
   23660    388.17182   -9226.0775   -9182.7763   -660.91465    16391.284      12.4417 
   23670    384.62876   -9225.7245   -9182.8186   -118.87424    16381.828    12.490111 
   23680    383.02838    -9225.552   -9182.8246    180.83832    16372.119    12.551448 
   23690    379.76258   -9225.2095   -9182.8464    644.31749    16362.832    12.608151 
   23700     391.3681   -9226.5473   -9182.8896    1158.8483    16354.801    12.654321 
   23710    395.75514   -9227.1056   -9182.9585    1432.8517    16348.822    12.684109 
   23720    384.72364   -9226.0064   -9183.0899    2208.4978    16345.549    12.696841 
   23730    381.85624    -9225.856   -9183.2594    2901.2433    16346.231    12.693401 
   23740    384.04678   -9226.3177   -9183.4767    2713.9644    16351.971    12.668631 
   23750    380.49174   -9226.1876   -9183.7432    1454.3408    16362.398    12.624981 
   23760    376.26578   -9225.9741   -9184.0011    -514.1744    16375.271    12.567661 
   23770    382.62625   -9226.9507   -9184.2682   -2511.9067    16387.177     12.50485 
   23780    384.09979   -9227.4077   -9184.5608   -3730.5124    16394.667    12.450955 
   23790    382.28722   -9227.4985   -9184.8538   -4296.2585    16395.464    12.406387 
   23800    375.18436   -9227.0473    -9185.195   -3227.3125    16388.823    12.369554 
   23810     367.5998   -9226.5288   -9185.5225    -1098.972    16376.608    12.345254 
   23820    366.94954   -9226.6816   -9185.7479    339.35935    16362.329    12.331237 
   23830    375.23763   -9227.8191   -9185.9608    1761.0274    16348.778    12.328577 
   23840    388.95956   -9229.5524   -9186.1634    2919.1994    16338.433    12.340404 
   23850    383.60588   -9229.1509   -9186.3591    3427.2619    16333.238     12.36098 
   23860    360.03447   -9226.7039   -9186.5415    3584.3915    16334.146    12.386896 
   23870    366.01247   -9227.5017   -9186.6724    2365.4866    16341.204    12.413976 
   23880     364.7228   -9227.4202   -9186.7348    632.19131    16352.327    12.435737 
   23890    363.37118   -9227.2905   -9186.7559   -275.83347    16364.696    12.454221 
   23900    379.01065   -9229.0312    -9186.752   -1224.2856     16376.48     12.46829 
   23910    360.46611   -9226.9393   -9186.7287   -1983.3657    16386.039    12.477837 
   23920    369.39177   -9227.9044   -9186.6982   -3326.5544    16391.939     12.48652 
   23930    376.06364   -9228.6103   -9186.6598   -4796.1623    16391.778    12.492562 
   23940    364.32875   -9227.2868   -9186.6454   -4079.6536    16383.375    12.499954 
   23950    382.77665   -9229.3491   -9186.6497   -1659.8572    16367.977     12.51475 
   23960    380.09177   -9229.0179   -9186.6181    1955.3029    16349.932    12.528677 
   23970     363.9558   -9227.1673   -9186.5675    4766.2693    16335.383    12.534316 
   23980    375.65598   -9228.4334   -9186.5284    5871.9256    16329.185    12.528262 
   23990    371.86303   -9227.9706   -9186.4888    5355.5201     16333.24    12.503523 
   24000    371.24159   -9227.8902   -9186.4776    3363.9879    16346.574    12.461431 
   24010    392.01906   -9230.2048   -9186.4745    1148.7754    16365.818    12.408016 
   24020    380.12336   -9228.8362   -9186.4329   -825.07295    16387.017    12.351225 
   24030    371.57891   -9227.8488   -9186.3986   -2588.3618    16406.645    12.301839 
   24040    378.17763   -9228.5528   -9186.3665   -4181.4128    16421.489    12.263786 
   24050    367.11942   -9227.2671   -9186.3144    -5000.322    16428.775    12.244934 
   24060    372.45927   -9227.8428   -9186.2944   -4543.3245    16427.212    12.253963 
   24070    377.76463   -9228.4431   -9186.3029   -2981.2377    16417.699    12.283083 
   24080     366.2866   -9227.1415   -9186.2817   -1240.7997     16402.93    12.326325 
   24090    373.64201   -9227.9251   -9186.2447    866.51734    16386.194    12.379166 
   24100    376.76186   -9228.2084   -9186.1801    2929.2023    16371.208    12.428978 
   24110     371.1064   -9227.4856   -9186.0881    3857.8126    16361.416    12.470407 
   24120    381.25604   -9228.5398   -9186.0101    3856.1087    16358.527    12.501882 
   24130    385.83376   -9228.9889   -9185.9486     2802.317    16362.361    12.519128 
   24140    367.36073   -9226.8742   -9185.8946    1688.8654    16371.154    12.523963 
   24150    369.91836   -9227.1068   -9185.8419    155.00813    16382.804    12.518174 
   24160    378.35645   -9227.9713   -9185.7651   -1403.4656    16394.587    12.504511 
   24170     368.0005   -9226.7211   -9185.6701   -1863.7615    16403.925    12.487378 
   24180     377.1692   -9227.6548    -9185.581   -1426.8973    16409.964    12.462424 
   24190    378.80001    -9227.742   -9185.4863   -1054.7148    16413.314    12.426825 
   24200     373.7848    -9227.075   -9185.3787   -567.01652    16414.753    12.381234 
   24210    383.47545   -9228.0502   -9185.2729   -634.57792    16415.078    12.328173 
   24220    381.75876   -9227.6702   -9185.0845   -1630.4627    16414.103    12.282285 
   24230     372.8234   -9226.5313   -9184.9422   -1989.8035    16410.349    12.255759 
   24240    373.94286   -9226.5535   -9184.8396   -1303.8975    16403.256    12.248631 
   24250    373.40468   -9226.2869   -9184.6331    -224.4462    16393.948    12.262813 
   24260    379.20642    -9226.729    -9184.428    1241.6123    16384.465    12.290021 
   24270    379.71426   -9226.6381   -9184.2804    3032.7763     16377.42    12.313037 
   24280    365.55057   -9224.7879   -9184.0102    3576.3728    16375.646    12.325607 
   24290    384.06174   -9226.6386   -9183.7959    2453.0286    16380.068    12.323717 
   24300    402.64111   -9228.5139   -9183.5987    610.74828    16388.705    12.305293 
   24310    392.09173   -9227.1281   -9183.3897   -487.00453    16398.397    12.275979 
   24320    393.13761   -9227.0901    -9183.235   -948.53184    16407.188    12.241607 
   24330    388.46465   -9226.4459   -9183.1121   -967.74787    16414.233    12.210898 
   24340    375.41351   -9224.8584   -9182.9805   -797.08271    16419.423    12.186883 
   24350     390.9393   -9226.4808   -9182.8709    -713.1555    16423.117    12.163549 
   24360     393.8339   -9226.7269   -9182.7941    -434.0594    16425.538    12.142006 
   24370    390.37075    -9226.311   -9182.7645   -34.742602    16427.189    12.123653 
   24380     396.1838   -9226.9624   -9182.7675    397.03132    16428.797    12.105847 
   24390    385.95314   -9225.8774   -9182.8237    474.21575    16431.014    12.091038 
   24400    382.21707   -9225.5514   -9182.9146   -124.59634    16433.936    12.077755 
   24410    398.38799   -9227.4946   -9183.0538   -895.03689    16436.601    12.060048 
   24420    394.72775   -9227.2791   -9183.2466   -1089.0214    16437.698    12.041594 
   24430    382.39069   -9226.1654   -9183.5092   -270.20829    16437.024    12.024595 
   24440     398.6922   -9228.3312   -9183.8565    52.562318    16435.778    12.007074 
   24450    389.25065   -9227.6676   -9184.2461    342.25264     16434.64    11.991295 
   24460    367.99512   -9225.7409   -9184.6905    700.26558    16434.164     11.97469 
   24470    374.39069   -9226.9053   -9185.1414    738.46399    16434.894    11.955403 
   24480    368.61665   -9226.6217    -9185.502     654.3073    16436.884    11.933814 
   24490    376.51081   -9227.8349   -9185.8346    381.25284    16439.999    11.908808 
   24500    391.75101   -9229.8333   -9186.1328    -354.9438    16443.678    11.885433 
   24510    378.65897   -9228.6214   -9186.3814    -1050.603    16446.636     11.86617 
   24520    366.50714   -9227.4871   -9186.6027   -1160.2111    16447.771    11.849322 
   24530    363.72179   -9227.3469   -9186.7731   -925.23075    16446.869    11.840701 
   24540    369.28533   -9228.0907   -9186.8963   -680.89887    16444.313    11.842212 
   24550     383.6942   -9229.8102   -9187.0086   -671.05317    16440.554    11.851351 
   24560    378.31313   -9229.3196   -9187.1182    90.235064      16435.8    11.867349 
   24570    360.57812   -9227.4158   -9187.1928    1371.5957    16431.361    11.879279 
   24580    365.11535   -9227.9708   -9187.2417    2314.3602    16429.431    11.876463 
   24590    367.49181   -9228.2659   -9187.2716    2108.6266    16431.508    11.857346 
   24600    370.49457   -9228.6141   -9187.2849    507.33325    16437.106     11.82594 
   24610    369.55337   -9228.5165   -9187.2923   -1256.2051    16443.534    11.796181 
   24620    354.57592   -9226.8328   -9187.2793   -2354.6795    16447.717    11.780718 
   24630    359.21782    -9227.303   -9187.2317   -2735.4951    16447.649    11.782042 
   24640    365.77305   -9227.9671   -9187.1646   -1292.4484    16443.002    11.798161 
   24650    367.34304   -9228.0521   -9187.0744    193.19626    16436.107    11.819362 
   24660    374.12303   -9228.6913   -9186.9573    213.36631    16429.395    11.839735 
   24670    364.19557   -9227.4519   -9186.8253    181.42616    16423.238    11.860603 
   24680    366.61094   -9227.5586   -9186.6626    16.518208    16417.466    11.877834 
   24690    366.42065   -9227.3561   -9186.4813    488.58975    16411.935    11.894059 
   24700    374.37242    -9228.064   -9186.3022    1041.7301    16407.394    11.914226 
   24710    381.15526   -9228.6131   -9186.0946    1084.2534    16404.679    11.932012 
   24720    373.94132   -9227.6085   -9185.8947    433.99554    16403.809    11.942943 
   24730    380.70178   -9228.1889    -9185.721   -758.00411    16403.652    11.944988 
   24740    386.42175   -9228.6338   -9185.5279   -1992.6127    16402.086    11.937878 
   24750    386.15574   -9228.4509   -9185.3746   -2082.9126    16397.167    11.928625 
   24760    387.78283   -9228.5265   -9185.2688   -762.14894    16388.836    11.920483 
   24770    385.33915   -9228.1372    -9185.152    311.56526    16379.156    11.913763 
   24780    380.23998   -9227.4846   -9185.0683    1119.0084    16370.148    11.911917 
   24790      381.947   -9227.6159   -9185.0091    1842.9301    16363.265    11.914503 
   24800    375.08971   -9226.7905   -9184.9487    2248.6756    16359.705    11.921883 
   24810    377.34558   -9227.0021   -9184.9086    2494.4561     16360.21    11.936531 
   24820    376.34568   -9226.8652   -9184.8833    2383.4596    16365.108    11.956306 
   24830    373.05792    -9226.473   -9184.8578    1489.3506    16374.091    11.982482 
   24840    390.27119   -9228.3605   -9184.8251   -382.49572     16385.51    12.015308 
   24850    391.72695   -9228.4739   -9184.7762   -2504.1036    16396.077    12.050502 
   24860    373.37225   -9226.3914   -9184.7411   -3883.3041    16402.154    12.086266 
   24870    381.25855    -9227.265    -9184.735   -4328.8987    16401.354    12.115148 
   24880    394.26581   -9228.7411   -9184.7601    -3666.971    16392.955    12.132299 
   24890    381.21475    -9227.364   -9184.8389   -1577.8307    16378.337    12.143174 
   24900    377.53318   -9227.0683   -9184.9539    890.06439    16361.205    12.150016 
   24910    382.65283   -9227.7387   -9185.0532    2251.1733    16345.689    12.156051 
   24920    397.17249   -9229.5386   -9185.2335    3239.3525    16334.355    12.160312 
   24930    394.13709   -9229.4966     -9185.53    4281.5601     16328.96    12.149999 
   24940    378.38083    -9228.118   -9185.9091    5082.6281     16331.19    12.118891 
   24950    386.09909   -9229.4545   -9186.3845    3868.0616    16342.093    12.069218 
   24960    380.00801   -9229.2713   -9186.8809    882.43758    16359.498    12.008455 
   24970    359.36266   -9227.3834    -9187.296   -2741.2937    16378.182    11.955085 
   24980    361.17175   -9227.9251   -9187.6359   -6334.4065    16391.727    11.921892 
   24990    364.63873   -9228.6158   -9187.9398   -7716.6449     16394.11      11.9171 
   25000    359.96022   -9228.3875   -9188.2334   -6268.7454    16383.096    11.944962 
Loop time of 13802.4 on 16 procs for 20000 steps with 864 atoms

Performance: 0.125 ns/day, 191.701 hours/ns, 1.449 timesteps/s
95.8% CPU use with 16 MPI tasks x 1 OpenMP threads

MPI task timing breakdown:
Section |  min time  |  avg time  |  max time  |%varavg| %total
---------------------------------------------------------------
Pair    | 2436.4     | 7400.8     | 13786      |4366.0 | 53.62
Bond    | 0.002243   | 0.0039478  | 0.0059454  |   1.8 |  0.00
Neigh   | 0.13113    | 0.37331    | 0.65015    |  29.8 |  0.00
Comm    | 1.1109     | 4710.6     | 10384      |4297.4 | 34.13
Output  | 1.225      | 1.2407     | 1.4662     |   5.2 |  0.01
Modify  | 13.338     | 1689.4     | 5607.9     |4694.3 | 12.24
Other   |            | 0.08277    |            |       |  0.00

Nlocal:        54.0000 ave          83 max          25 min
Histogram: 3 1 2 1 0 2 1 1 2 3
Nghost:        568.375 ave         808 max         368 min
Histogram: 4 0 1 1 4 0 3 1 0 2
Neighs:         0.00000 ave           0 max           0 min
Histogram: 16 0 0 0 0 0 0 0 0 0
FullNghs:      3062.88 ave        5943 max         702 min
Histogram: 4 2 0 1 2 1 1 2 0 3

Total # of neighbors = 49006
Ave neighs/atom = 56.719907
Ave special neighs/atom = 0.0000000
Neighbor list builds = 2000
Dangerous builds = 2000
unfix   3
                
Total wall time: 4:48:23
