LAMMPS (2 Aug 2023)
OMP_NUM_THREADS environment is not set. Defaulting to 1 thread. (src/comm.cpp:98)
  using 1 OpenMP thread(s) per MPI task
units          metal
atom_style     full

read_data      initial-solid.data
Reading data file ...
  orthogonal box = (0 0 0) to (86.145907 21.536477 43.072953)
  1 by 1 by 1 MPI processor grid
  reading atoms ...
  4096 atoms
Finding 1-2 1-3 1-4 neighbors ...
  special bond factors lj:    0        0        0       
  special bond factors coul:  0        0        0       
     0 = max # of 1-2 neighbors
     0 = max # of 1-3 neighbors
     0 = max # of 1-4 neighbors
     1 = max # of special neighbors
  special bonds CPU = 0.002 seconds
  read_data CPU = 0.043 seconds
velocity       all create 300.0 1312343 dist gaussian

pair_style     chgnet/gpu /ocean/projects/cts180021p/wuziqi/clease/lammps-ASC/potentials/CHGNET
pair_coeff     * * /ocean/projects/cts180021p/wuziqi/chgnet/fine-tunning2/04-12-2024/epoch999_e52_f152_s406_mNA.pth.tar Cl K Li

variable myZlo equal zlo
variable myZhi equal zhi
variable myMid equal (${myZlo}+${myZhi})/2
variable myMid equal (0+${myZhi})/2
variable myMid equal (0+43.072953268606)/2

region   solid block INF INF INF INF ${myZlo} ${myMid}
region   solid block INF INF INF INF 0 ${myMid}
region   solid block INF INF INF INF 0 21.536476634303
region   liquid block INF INF INF INF ${myMid} ${myZhi}
region   liquid block INF INF INF INF 21.536476634303 ${myZhi}
region   liquid block INF INF INF INF 21.536476634303 43.072953268606
group    gSolid region solid
2048 atoms in group gSolid
group    gLiquid region liquid
2048 atoms in group gLiquid

neighbor        0.3 bin
neigh_modify    delay 10

timestep        0.0005
compute msd all msd
thermo_style    custom step temp pe etotal press vol c_msd[4]
thermo          10
dump            1 all custom 10 xyz-npt.dump type id x y z
#dump           2 all custom 10 force-npt.dump type id fx fy fz

fix             1 all npt temp 300.0 300.0 $(100.0*dt) aniso 1.01325 1.01325 $(1000.0*dt)
fix             1 all npt temp 300.0 300.0 0.050000000000000002776 aniso 1.01325 1.01325 $(1000.0*dt)
fix             1 all npt temp 300.0 300.0 0.050000000000000002776 aniso 1.01325 1.01325 0.5
run             10000
Neighbor list info ...
  update: every = 1 steps, delay = 10 steps, check = yes
  max neighbors/atom: 2000, page size: 100000
  master list distance cutoff = 6.3
  ghost atom cutoff = 6.3
  binsize = 3.15, bins = 28 7 14
  1 neighbor lists, perpetual/occasional/extra = 1 0 0
  (1) pair chgnet/gpu, perpetual
      attributes: full, newton on
      pair build: full/bin
      stencil: full/bin/3d
      bin: standard
Per MPI rank memory allocation (min/avg/max) = 7.478 | 7.478 | 7.478 Mbytes
   Step          Temp          PotEng         TotEng         Press          Volume        c_msd[4]   
         0   300           -15225.378     -15066.582      48783.108      79912.359      0            
        10   294.97832     -15231.09      -15074.952      48067.185      80188.099      0.0023930713 
        20   283.06904     -15247.907     -15098.073      44645.385      80989.304      0.021281385  
        30   268.19443     -15270.079     -15128.118      39877.138      82137.215      0.078938049  
        40   254.31369     -15289.363     -15154.75       35287.999      83295.308      0.17327417   
        50   245.44614     -15304.893     -15174.973      31701.003      84304.434      0.28443017   
        60   243.5472      -15320.346     -15191.431      28715.397      85238.096      0.40938308   
        70   248.49145     -15337.611     -15206.08       26064.542      86163.15       0.551864     
        80   259.04837     -15356.34      -15219.22       23745.365      87073.488      0.7087104    
        90   273.38152     -15375.265     -15230.558      21708.161      87936.331      0.87155295   
       100   289.15568     -15393.143     -15240.087      20038.136      88732.303      1.0331342    
       110   304.24655     -15409.211     -15248.167      18704.774      89464.003      1.1905315    
       120   317.08108     -15423.114     -15255.277      17627.126      90145.234      1.3441478    
       130   326.91444     -15434.859     -15261.817      16682.474      90790.237      1.4955038    
       140   334.0002      -15444.846     -15268.053      15788.338      91409.059      1.6458997    
       150   339.31277     -15453.77      -15274.164      14926.842      92007.274      1.795995     
       160   344.19094     -15462.461     -15280.274      14089.216      92587.442      1.9459372    
       170   349.72659     -15471.576     -15286.459      13273.66       93150.497      2.0955675    
       180   356.49709     -15481.415     -15292.714      12510.151      93696.67       2.2444991    
       190   364.6235      -15491.949     -15298.947      11800.262      94226.222      2.3922991    
       200   373.91498     -15502.973     -15305.052      11146.46       94739.647      2.5385527    
       210   383.53947     -15514.044     -15311.029      10538.185      95237.598      2.6829063    
       220   392.34282     -15524.642     -15316.967      10019.145      95720.817      2.8250307    
       230   399.46274     -15534.375     -15322.931      9573.3665      96190.562      2.9647405    
       240   404.47146     -15543.041     -15328.946      9175.4499      96648.318      3.1019837    
       250   407.46715     -15550.688     -15335.007      8828.3137      97095.434      3.2367561    
       260   408.93404     -15557.554     -15341.097      8518.9004      97533.155      3.3691434    
       270   409.54461     -15563.98      -15347.2        8226.6394      97962.564      3.4993149    
       280   409.90243     -15570.272     -15353.303      7933.3174      98384.389      3.6274415    
       290   410.47519     -15576.67      -15359.397      7655.288       98798.909      3.7536276    
       300   411.23751     -15583.174     -15365.497      7373.4999      99206.277      3.8779447    
       310   411.86013     -15589.594     -15371.588      7063.3199      99606.322      4.0002728    
       320   411.92113     -15595.703     -15377.665      6773.3324      99998.486      4.1202654    
       330   411.09427     -15601.312     -15383.712      6497.0469      100382.43      4.2376876    
       340   409.07723     -15606.253     -15389.72       6245.8302      100758.05      4.3524045    
       350   406.02982     -15610.57      -15395.65       6013.1051      101125.52      4.4644563    
       360   402.58844     -15614.587     -15401.489      5788.7544      101485.13      4.5740335    
       370   399.25427     -15618.548     -15407.214      5574.7339      101837.11      4.6814015    
       380   396.23567     -15622.568     -15412.833      5365.4532      102181.66      4.7868583    
       390   393.7011      -15626.744     -15418.35       5167.0436      102518.99      4.8906663    
       400   391.76647     -15631.143     -15423.773      4977.4558      102849.31      4.9930953    
       410   390.01935     -15635.547     -15429.102      4770.4878      103172.77      5.0943501    
       420   387.94204     -15639.696     -15434.351      4576.6044      103489.25      5.194396     
       430   385.37949     -15643.498     -15439.509      4382.4195      103798.68      5.2931447    
       440   382.29015     -15646.926     -15444.572      4204.6162      104101.02      5.3904887    
       450   378.77776     -15650.023     -15449.529      4025.4245      104396.36      5.4862887    
       460   374.6802      -15652.697     -15454.371      3863.91        104684.74      5.5803363    
       470   370.01875     -15654.949     -15459.091      3704.5877      104966.29      5.672378     
       480   365.04458     -15656.903     -15463.678      3555.5247      105241.13      5.7621545    
       490   360.26539     -15658.813     -15468.118      3405.5638      105509.35      5.8493945    
       500   355.8333      -15660.784     -15472.434      3243.7343      105770.93      5.9338501    
       510   351.53734     -15662.684     -15476.608      3081.3978      106025.55      6.0152384    
       520   347.28281     -15664.468     -15480.644      2914.4949      106272.87      6.0933597    
       530   343.19846     -15666.2       -15484.538      2777.0764      106512.55      6.1681588    
       540   339.26154     -15667.876     -15488.298      2650.0165      106744.66      6.2398104    
       550   335.35036     -15669.427     -15491.919      2526.2322      106969.38      6.3085558    
       560   331.4851      -15670.857     -15495.396      2411.4324      107186.86      6.3746802    
       570   327.8271      -15672.254     -15498.728      2302.9089      107397.29      6.4385721    
       580   324.53744     -15673.688     -15501.903      2209.0462      107601         6.5006391    
       590   321.62285     -15675.182     -15504.94       2107.949       107798.34      6.5612686    
       600   319.1417      -15676.774     -15507.846      1974.3067      107989.4       6.6206447    
       610   317.05202     -15678.434     -15510.612      1827.6171      108173.76      6.6785881    
       620   315.35699     -15680.193     -15513.269      1674.2318      108350.79      6.7347501    
       630   313.64443     -15681.834     -15515.816      1515.8205      108519.82      6.7887564    
       640   311.64268     -15683.207     -15518.248      1366.0805      108680.17      6.8402678    
       650   309.37935     -15684.324     -15520.563      1229.1476      108831.41      6.8891046    
       660   306.7313      -15685.131     -15522.772      1121.3523      108973.47      6.9352758    
       670   303.57065     -15685.542     -15524.856      1010.979       109106.64      6.9789333    
       680   300.10645     -15685.656     -15526.804      915.48599      109231.18      7.0201822    
       690   296.88333     -15685.751     -15528.605      815.38201      109347.42      7.0591622    
       700   294.34096     -15686.058     -15530.257      726.35325      109455.58      7.0959446    
       710   292.65422     -15686.662     -15531.754      643.30265      109555.89      7.130608     
       720   291.80888     -15687.566     -15533.106      539.09437      109648.56      7.1632516    
       730   291.71684     -15688.74      -15534.329      446.93373      109733.44      7.1938914    
       740   292.03008     -15690.007     -15535.429      358.54257      109810.48      7.2226188    
       750   292.2428      -15691.111     -15536.421      285.32063      109879.73      7.2495698    
       760   291.89196     -15691.812     -15537.308      244.88616      109941.46      7.2749264    
       770   290.92312     -15692.09      -15538.098      225.31914      109996.43      7.2989551    
       780   289.45472     -15691.992     -15538.778      239.32676      110045.69      7.3219753    
       790   287.75361     -15691.649     -15539.336      255.74003      110090.59      7.3443935    
       800   286.1582      -15691.234     -15539.765      280.45982      110132.4       7.3665395    
       810   285.06542     -15690.947     -15540.056      321.50167      110172.27      7.38869      
       820   284.73968     -15690.902     -15540.184      361.62474      110211.41      7.4111065    
       830   285.19162     -15691.113     -15540.156      375.21426      110250.77      7.4339543    
       840   286.20922     -15691.479     -15539.983      370.84559      110290.65      7.4572645    
       850   287.52981     -15691.859     -15539.664      360.39444      110331.01      7.4810745    
       860   288.93783     -15692.149     -15539.209      339.43415      110371.56      7.5054746    
       870   290.44035     -15692.373     -15538.637      317.51752      110411.96      7.5305652    
       880   292.09166     -15692.582     -15537.972      302.36547      110451.9       7.5564661    
       890   294.00351     -15692.854     -15537.232      277.15099      110491.17      7.5833344    
       900   296.08768     -15693.15      -15536.425      256.03952      110529.5       7.6112795    
       910   298.14064     -15693.402     -15535.59       238.55556      110566.7       7.6404013    
       920   300.26128     -15693.691     -15534.757      210.11956      110602.63      7.670742     
       930   302.5423      -15694.07      -15533.929      175.16134      110636.99      7.7021572    
       940   304.55835     -15694.346     -15533.137      137.17165      110669.37      7.7343358    
       950   305.85906     -15694.295     -15532.398      103.2462       110699.39      7.7669143    
       960   306.4439      -15693.941     -15531.734      78.389363      110726.78      7.7995615    
       970   306.35668     -15693.299     -15531.138      67.82413       110751.54      7.8320301    
       980   305.81518     -15692.483     -15530.609      61.343521      110773.85      7.864193     
       990   305.23388     -15691.717     -15530.15       63.586705      110794         7.8959937    
      1000   305.08029     -15691.229     -15529.744      57.168445      110812.36      7.9274307    
      1010   305.62182     -15691.171     -15529.399      33.45102       110829.08      7.9584886    
      1020   306.60824     -15691.403     -15529.109      12.928051      110843.98      7.989139     
      1030   307.48502     -15691.64      -15528.882     -11.449857      110856.92      8.0193961    
      1040   307.96428     -15691.747     -15528.735     -24.941417      110867.72      8.0492472    
      1050   308.14815     -15691.779     -15528.67      -41.357433      110876.4       8.0786886    
      1060   308.17541     -15691.814     -15528.691     -47.542301      110882.99      8.1076844    
      1070   308.01836     -15691.84      -15528.799     -60.58017       110887.67      8.1362214    
      1080   307.66802     -15691.842     -15528.987     -80.50484       110890.44      8.1642593    
      1090   307.37863     -15691.956     -15529.254     -102.77038      110891.13      8.191736     
      1100   307.48256     -15692.362     -15529.606     -145.61951      110889.57      8.2186871    
      1110   307.71998     -15692.917     -15530.035     -215.07813      110885.21      8.2451492    
      1120   307.46871     -15693.293     -15530.544     -272.56231      110877.09      8.2710963    
      1130   306.41422     -15693.32      -15531.129     -311.82776      110864.54      8.2965337    
      1140   304.74953     -15693.081     -15531.771     -338.27966      110847.39      8.3215307    
      1150   302.95794     -15692.826     -15532.464     -361.91397      110825.66      8.3461697    
      1160   301.59032     -15692.811     -15533.173     -389.50044      110799.42      8.3705133    
      1170   300.87142     -15693.146     -15533.889     -403.94093      110768.7       8.3946015    
      1180   300.54082     -15693.687     -15534.604     -395.76818      110733.83      8.4184555    
      1190   300.10448     -15694.162     -15535.311     -371.07207      110695.44      8.4420845    
      1200   299.13009     -15694.348     -15536.012     -324.42211      110654.49      8.4654831    
      1210   297.62457     -15694.223     -15536.684     -244.71799      110612.24      8.488663     
      1220   295.86583     -15693.925     -15537.317     -154.89298      110570.34      8.5118034    
      1230   294.30494     -15693.678     -15537.896     -60.330386      110530.57      8.53519      
      1240   293.27311     -15693.639     -15538.403      15.160914      110494.47      8.5591295    
      1250   293.07965     -15693.975     -15538.842      84.909026      110463.05      8.583925     
      1260   293.90494     -15694.779     -15539.209      133.51687      110437.09      8.6099174    
      1270   295.17879     -15695.76      -15539.516      158.78471      110416.88      8.6373417    
      1280   295.74681     -15696.317     -15539.773      179.82918      110402.29      8.6662796    
      1290   295.13959     -15696.207     -15539.984      216.72834      110393.1       8.6967233    
      1300   293.88334     -15695.695     -15540.137      247.93498      110389.33      8.7287162    
      1310   292.92319     -15695.292     -15540.242      258.04853      110391         8.7623186    
      1320   293.08027     -15695.392     -15540.258      215.22827      110397.62      8.7975371    
      1330   294.66748     -15696.187     -15540.213      149.58135      110407.84      8.8342398    
      1340   296.89375     -15697.262     -15540.11       66.7455        110419.92      8.8721989    
      1350   298.55013     -15698.003     -15539.974     -16.501102      110431.99      8.9110616    
      1360   299.02264     -15698.096     -15539.817     -87.71284       110442.37      8.950405     
      1370   298.55219     -15697.676     -15539.646     -142.23928      110449.83      8.9897903    
      1380   297.68321     -15697.037     -15539.467     -180.10126      110453.62      9.0288135    
      1390   297.11212     -15696.528     -15539.261     -246.68851      110453.25      9.0670617    
      1400   297.23076     -15696.357     -15539.027     -309.53924      110447.86      9.1040479    
      1410   297.74562     -15696.369     -15538.766     -351.32788      110436.73      9.1394374    
      1420   298.20296     -15696.325     -15538.48      -386.68485      110419.58      9.1731536    
      1430   298.35145     -15696.1       -15538.176     -386.54892      110396.38      9.2052686    
      1440   298.54515     -15695.881     -15537.855     -390.0557       110367.67      9.2359928    
      1450   299.05762     -15695.816     -15537.519     -378.01756      110333.95      9.2654882    
      1460   299.80453     -15695.873     -15537.18      -369.417        110295.94      9.2939078    
      1470   300.54107     -15695.914     -15536.832     -358.71813      110254.22      9.3213569    
      1480   301.11616     -15695.87      -15536.483     -308.84233      110209.45      9.3479213    
      1490   301.50951     -15695.745     -15536.15      -251.50811      110162.82      9.3737506    
      1500   301.5261      -15695.437     -15535.833     -172.58583      110115.71      9.3990266    
      1510   301.21652     -15694.96      -15535.52      -73.769137      110069.73      9.4239785    
      1520   300.71906     -15694.404     -15535.228      40.407452      110026.79      9.4488579    
      1530   299.90217     -15693.684     -15534.939      143.12356      109988.84      9.4739921    
      1540   298.81963     -15692.82      -15534.649      229.87132      109957.44      9.4997009    
      1550   297.98687     -15692.078     -15534.348      297.83864      109933.68      9.5262688    
      1560   297.80501     -15691.66      -15534.026      330.33167      109918.2       9.5539346    
      1570   298.48932     -15691.679     -15533.682      334.24481      109910.87      9.5828877    
      1580   300.11808     -15692.187     -15533.328      287.04194      109910.91      9.6132124    
      1590   302.58463     -15693.14      -15532.975      208.20766      109916.7       9.6448819    
      1600   305.32811     -15694.263     -15532.646      112.48078      109926.13      9.6778027    
      1610   307.65832     -15695.223     -15532.373      23.74109       109936.97      9.71186      
      1620   309.11009     -15695.799     -15532.181     -58.724542      109947.28      9.7469216    
      1630   309.55627     -15695.937     -15532.082     -94.433817      109955.55      9.7829404    
      1640   309.1318      -15695.725     -15532.095     -135.93151      109961.11      9.8200005    
      1650   308.16414     -15695.316     -15532.199     -181.28824      109963.39      9.8580916    
      1660   306.96796     -15694.889     -15532.404     -226.29375      109961.72      9.8970872    
      1670   305.88947     -15694.584     -15532.67      -265.65565      109955.54      9.9367893    
      1680   305.12603     -15694.521     -15533.012     -283.07306      109944.52      9.976955     
      1690   305.2194      -15694.968     -15533.409     -313.55781      109928.63      10.017355    
      1700   306.11863     -15695.9       -15533.866     -346.97628      109907.7       10.057789    
      1710   306.82927     -15696.801     -15534.39      -363.18661      109881.5       10.098055    
      1720   306.20634     -15697.064     -15534.983     -336.306        109850.16      10.137989    
      1730   303.97852     -15696.537     -15535.635     -277.77421      109814.63      10.177497    
      1740   300.89479     -15695.581     -15536.311     -212.2743       109776.42      10.216552    
      1750   298.16834     -15694.805     -15536.978     -146.56997      109737.14      10.255179    
      1760   296.71718     -15694.677     -15537.618     -103.74882      109698.14      10.293472    
      1770   297.05184     -15695.441     -15538.206     -91.80922       109660.27      10.331607    
      1780   298.97393     -15697.026     -15538.773     -101.77791      109623.69      10.369868    
      1790   301.53459     -15698.94      -15539.332     -135.70266      109588.06      10.408551    
      1800   303.39124     -15700.496     -15539.905     -162.51666      109552.68      10.447873    
      1810   303.4659      -15701.149     -15540.519     -167.7957       109516.94      10.48793     
      1820   301.579       -15700.778     -15541.146     -158.66292      109480.77      10.528729    
      1830   298.85229     -15699.977     -15541.788     -129.17287      109444.45      10.570173    
      1840   296.74765     -15699.48      -15542.406     -112.7761       109408.51      10.61213     
      1850   295.8277      -15699.568     -15542.981     -100.65455      109373.29      10.654515    
      1860   295.82531     -15700.097     -15543.51      -79.33704       109338.95      10.697326    
      1870   296.06139     -15700.705     -15543.994     -43.998758      109305.87      10.740655    
      1880   295.80191     -15700.999     -15544.425      9.6163157      109274.71      10.784606    
      1890   294.9307      -15700.928     -15544.815      63.669224      109246.3       10.829261    
      1900   293.70754     -15700.61      -15545.145      125.93638      109221.5       10.874603    
      1910   292.61677     -15700.292     -15545.404      167.111        109201.24      10.92055     
      1920   292.27339     -15700.297     -15545.591      190.44643      109186.01      10.966895    
      1930   293.23518     -15700.911     -15545.696      171.7912       109175.8       11.013297    
      1940   295.34496     -15702.067     -15545.735      134.23597      109169.87      11.059415    
      1950   297.82069     -15703.369     -15545.727      83.631551      109167.06      11.105109    
      1960   299.61542     -15704.281     -15545.689      54.129599      109166.19      11.150449    
      1970   299.93474     -15704.413     -15545.652      52.202389      109166.52      11.195617    
      1980   298.85184     -15703.795     -15545.607      93.07259       109167.94      11.240871    
      1990   297.12416     -15702.824     -15545.55       129.93645      109171.09      11.286478    
      2000   295.55742     -15701.913     -15545.469      163.23645      109176.62      11.332589    
      2010   294.8167      -15701.392     -15545.339      178.11415      109184.97      11.379269    
      2020   295.12117     -15701.375     -15545.161      175.83316      109196.22      11.426529    
      2030   296.07589     -15701.646     -15544.927      157.75827      109210.11      11.474391    
      2040   297.29878     -15702.014     -15544.647      112.35513      109226.02      11.522866    
      2050   298.26543     -15702.221     -15544.343      59.257693      109242.93      11.571906    
      2060   298.78601     -15702.167     -15544.013      25.834708      109259.75      11.621413    
      2070   299.31529     -15702.115     -15543.682     -9.9075752      109275.71      11.671204    
      2080   300.2674      -15702.27      -15543.332     -48.558378      109290.21      11.721035    
      2090   301.37128     -15702.501     -15542.979     -92.441323      109302.58      11.77055     
      2100   302.24866     -15702.639     -15542.652     -124.81605      109312.12      11.819328    
      2110   302.81744     -15702.625     -15542.338     -152.73309      109318.4       11.866971    
      2120   303.07352     -15702.475     -15542.052     -167.703        109321.14      11.913169    
      2130   302.98166     -15702.179     -15541.804     -182.52956      109320.26      11.95775     
      2140   302.49887     -15701.699     -15541.58      -178.37227      109315.77      12.000649    
      2150   301.75683     -15701.111     -15541.385     -169.18957      109307.97      12.041963    
      2160   301.28678     -15700.696     -15541.219     -156.81157      109297.31      12.081931    
      2170   301.58285     -15700.695     -15541.061     -161.52031      109284.22      12.120848    
      2180   302.36197     -15700.965     -15540.919     -174.17865      109268.77      12.15904     
      2190   302.95694     -15701.171     -15540.81      -169.91112      109250.96      12.196929    
      2200   302.94853     -15701.08      -15540.723     -158.25224      109230.99      12.235061    
      2210   302.39206     -15700.737     -15540.675     -135.7444       109209.25      12.273902    
      2220   301.78396     -15700.387     -15540.646     -102.99828      109186.33      12.313712    
      2230   301.46679     -15700.214     -15540.641     -81.581548      109162.97      12.354556    
      2240   301.35327     -15700.161     -15540.649     -66.20608       109139.65      12.396279    
      2250   301.06762     -15700.033     -15540.672     -43.580581      109116.71      12.438683    
      2260   300.50522     -15699.762     -15540.698     -8.0388962      109094.55      12.481717    
      2270   300.04792     -15699.563     -15540.742      31.962728      109073.82      12.525435    
      2280   299.97702     -15699.563     -15540.78       58.153194      109055.17      12.570013    
      2290   300.21745     -15699.73      -15540.819      64.426653      109038.98      12.61554     
      2300   300.23721     -15699.78      -15540.859      66.726936      109025.24      12.661867    
      2310   299.59924     -15699.492     -15540.908      55.949252      109013.78      12.708669    
      2320   298.84035     -15699.121     -15540.939      47.950831      109004.25      12.755482    
      2330   298.9799      -15699.225     -15540.968      9.244026       108996.23      12.801791    
      2340   300.41954     -15700.001     -15540.983     -63.200555      108988.85      12.847125    
      2350   302.29783     -15701.018     -15541.005     -135.15188      108980.68      12.891086    
      2360   303.49762     -15701.698     -15541.051     -192.2323       108970.33      12.933451    
      2370   303.60921     -15701.839     -15541.132     -224.44981      108956.81      12.974161    
      2380   302.70521     -15701.479     -15541.251     -250.72261      108939.62      13.0133      
      2390   301.12101     -15700.79      -15541.401     -242.88909      108918.55      13.050963    
      2400   299.46793     -15700.074     -15541.56      -224.01496      108893.97      13.087248    
      2410   298.42731     -15699.68      -15541.716     -215.78943      108866.44      13.122256    
      2420   298.3696      -15699.789     -15541.856     -192.11892      108836.34      13.156087    
      2430   299.1218      -15700.315     -15541.984     -165.34006      108804.3       13.188927    
      2440   300.32689     -15701.063     -15542.094     -138.73459      108770.98      13.221103    
      2450   301.84249     -15701.986     -15542.215     -114.98617      108737         13.253017    
      2460   303.39022     -15702.952     -15542.362     -93.636129      108702.92      13.285042    
      2470   304.22975     -15703.572     -15542.537     -68.938382      108669.16      13.317472    
      2480   303.86344     -15703.595     -15542.754     -17.128124      108636.24      13.350474    
      2490   302.44998     -15703.107     -15543.015      33.500275      108605.06      13.384138    
      2500   300.76373     -15702.501     -15543.301      86.403287      108576.55      13.418408    
      2510   299.63986     -15702.197     -15543.592      121.2793       108551.54      13.453189    
      2520   299.53375     -15702.427     -15543.877      130.94134      108530.45      13.488411    
      2530   300.20718     -15703.065     -15544.16       129.74271      108513.28      13.52405     
      2540   300.8235      -15703.686     -15544.454      119.57472      108499.77      13.560146    
      2550   300.71979     -15703.927     -15544.75       117.62525      108489.52      13.596723    
      2560   299.65885     -15703.674     -15545.058      128.96051      108482.26      13.633747    
      2570   297.97024     -15703.082     -15545.36       131.52206      108478.03      13.671166    
      2580   296.29403     -15702.474     -15545.639      119.83886      108476.69      13.709065    
      2590   295.43096     -15702.248     -15545.87       99.79241       108477.83      13.747669    
      2600   295.66863     -15702.567     -15546.064      54.737535      108480.85      13.787261    
      2610   296.88046     -15703.359     -15546.215      19.033122      108484.83      13.8282      
      2620   298.51125     -15704.344     -15546.336     -18.908149      108488.94      13.870816    
      2630   299.87267     -15705.164     -15546.435     -46.576457      108492.43      13.91548     
      2640   300.42885     -15705.568     -15546.545     -59.456908      108494.79      13.962437    
      2650   300.03773     -15705.464     -15546.648     -51.56258       108495.83      14.011876    
      2660   298.89254     -15704.975     -15546.765     -48.837519      108495.72      14.063891    
      2670   297.46475     -15704.316     -15546.862     -34.686411      108494.68      14.118491    
      2680   296.27943     -15703.767     -15546.94      -19.07219       108493.04      14.175611    
      2690   295.81865     -15703.569     -15546.987     -2.1339267      108491.12      14.235183    
      2700   296.38294     -15703.863     -15546.982      16.600987      108489.29      14.297155    
      2710   297.96276     -15704.668     -15546.95       11.87359       108487.86      14.361387    
      2720   299.92534     -15705.653     -15546.897      4.690888       108486.74      14.427647    
      2730   301.57798     -15706.471     -15546.839     -14.304012      108485.7       14.495517    
      2740   302.46029     -15706.892     -15546.793     -24.632455      108484.43      14.564464    
      2750   302.50186     -15706.894     -15546.773     -46.984469      108482.71      14.633842    
      2760   302.06675     -15706.674     -15546.784     -69.061707      108480.15      14.703019    
      2770   301.16993     -15706.215     -15546.799     -91.408332      108476.34      14.771484    
      2780   299.45603     -15705.341     -15546.833     -100.23944      108470.92      14.838939    
      2790   297.04821     -15704.086     -15546.852     -88.355146      108463.81      14.905219    
      2800   294.52029     -15702.744     -15546.849     -78.649283      108455.37      14.970241    
      2810   292.87418     -15701.805     -15546.78      -65.670405      108445.89      15.034054    
      2820   292.76886     -15701.612     -15546.644     -61.486085      108435.65      15.096806    
      2830   293.94213     -15702.021     -15546.432     -70.779919      108424.78      15.158707    
      2840   295.56532     -15702.601     -15546.152     -65.426325      108413.2       15.220024    
      2850   297.0371      -15703.057     -15545.829     -52.202723      108401.03      15.280917    
      2860   298.07188     -15703.24      -15545.465     -25.374533      108388.61      15.34138     
      2870   298.62633     -15703.146     -15545.078      8.7113306      108376.48      15.401271    
      2880   299.14723     -15703.021     -15544.676      56.366295      108365.34      15.46037     
      2890   300.10434     -15703.115     -15544.264      101.76487      108356.07      15.518439    
      2900   301.68352     -15703.549     -15543.862      142.47241      108349.47      15.575377    
      2910   303.60458     -15704.176     -15543.472      165.64587      108346.16      15.631108    
      2920   305.29285     -15704.725     -15543.127      195.56426      108346.42      15.685492    
      2930   306.33281     -15704.976     -15542.827      223.40282      108350.55      15.738414    
      2940   306.64151     -15704.914     -15542.602      260.36126      108358.9       15.789865    
      2950   306.49149     -15704.677     -15542.445      287.06655      108371.89      15.84001     
      2960   306.54124     -15704.617     -15542.359      309.49371      108389.86      15.889162    
      2970   306.71162     -15704.693     -15542.345      288.15025      108412.76      15.937754    
      2980   306.61248     -15704.709     -15542.413      277.7341       108440.05      15.986266    
      2990   305.91535     -15704.474     -15542.546      256.14429      108471.16      16.035021    
      3000   304.69161     -15704.023     -15542.744      227.48441      108505.45      16.084143    
      3010   302.97511     -15703.363     -15542.992      200.18009      108542.15      16.13365     
      3020   301.58556     -15702.907     -15543.272      173.88805      108580.59      16.183392    
      3030   300.71234     -15702.743     -15543.57       126.89952      108620.09      16.233221    
      3040   300.43892     -15702.898     -15543.87       63.366181      108659.63      16.282977    
      3050   300.69727     -15703.336     -15544.171      14.243263      108698.04      16.332551    
      3060   300.94264     -15703.773     -15544.478     -27.709905      108734.35      16.381891    
      3070   300.21958     -15703.71      -15544.798     -54.817752      108767.83      16.430879    
      3080   298.5842      -15703.164     -15545.117     -38.26723       108798.19      16.479366    
      3090   296.63426     -15702.438     -15545.423     -13.396576      108825.88      16.527349    
      3100   295.0937      -15701.878     -15545.679      34.75355       108851.68      16.574955    
      3110   294.6627      -15701.872     -15545.901      55.31034       108876.53      16.622436    
      3120   295.84214     -15702.661     -15546.066      29.712644      108900.86      16.670155    
      3130   298.25494     -15704.062     -15546.189     -13.611098      108924.26      16.718439    
      3140   300.67201     -15705.448     -15546.296     -66.385442      108945.93      16.767609    
      3150   302.03435     -15706.284     -15546.411     -106.73241      108964.96      16.817892    
      3160   302.03888     -15706.426     -15546.55      -127.59896      108980.71      16.869465    
      3170   301.10376     -15706.09      -15546.71      -136.49022      108992.91      16.922322    
      3180   299.79203     -15705.566     -15546.88      -115.34509      109001.66      16.976184    
      3190   298.73447     -15705.168     -15547.042     -88.460561      109007.52      17.030551    
      3200   298.38421     -15705.131     -15547.19      -64.670017      109011.22      17.084731    
      3210   298.54567     -15705.35      -15547.323     -47.763679      109013.35      17.138079    
      3220   298.54988     -15705.463     -15547.434     -19.41116       109014.4       17.190047    
      3230   298.06055     -15705.299     -15547.529      11.649517      109015.01      17.24024     
      3240   297.4279      -15705.041     -15547.606      46.329696      109015.8       17.288327    
      3250   296.9054      -15704.816     -15547.658      83.543574      109017.45      17.334033    
      3260   296.37149     -15704.55      -15547.674      115.98312      109020.66      17.377137    
      3270   295.72704     -15704.191     -15547.657      140.98171      109025.99      17.4176      
      3280   295.08617     -15703.786     -15547.591      165.09744      109033.85      17.455514    
      3290   294.78809     -15703.522     -15547.485      189.96229      109044.6       17.49124     
      3300   295.58573     -15703.777     -15547.318      188.47375      109058.5       17.525368    
      3310   297.82929     -15704.756     -15547.109      154.63453      109075.35      17.558642    
      3320   301.09779     -15706.249     -15546.872      102.77122      109094.35      17.591971    
      3330   304.47515     -15707.811     -15546.646      34.558793      109114.31      17.626283    
      3340   306.69762     -15708.803     -15546.461     -11.212654      109133.84      17.662301    
      3350   306.44744     -15708.558     -15546.349     -29.76064       109152.02      17.700408    
      3360   303.87646     -15707.159     -15546.311     -1.3939352      109168.62      17.740589    
      3370   300.84146     -15705.544     -15546.302      17.653989      109184.16      17.782418    
      3380   298.92553     -15704.533     -15546.306      12.075975      109199.15      17.825267    
      3390   298.22938     -15704.152     -15546.293     -9.0940957      109213.55      17.868411    
      3400   298.11656     -15704.073     -15546.274     -15.516117      109226.98      17.91104     
      3410   298.16923     -15704.053     -15546.226     -1.0166166      109239.38      17.952341    
      3420   298.58259     -15704.206     -15546.16      -2.3301581      109251.03      17.991497    
      3430   299.3471      -15704.532     -15546.082     -6.4017415      109262.01      18.027888    
      3440   300.30408     -15704.943     -15545.986     -5.6363556      109272.3       18.061005    
      3450   301.11096     -15705.287     -15545.903      3.130756       109281.95      18.090587    
      3460   301.39264     -15705.363     -15545.83       24.911054      109291.17      18.116629    
      3470   301.45791     -15705.335     -15545.767      59.914078      109300.44      18.139325    
      3480   301.55859     -15705.345     -15545.724      94.762682      109310.45      18.158932    
      3490   301.8732      -15705.485     -15545.698      121.14832      109321.85      18.175727    
      3500   302.81644     -15705.975     -15545.688      125.50122      109335.11      18.190011    
      3510   304.16488     -15706.716     -15545.715      126.6594       109350.23      18.202205    
      3520   305.33659     -15707.407     -15545.786      129.4381       109367.14      18.212726    
      3530   306.36129     -15708.074     -15545.911      128.74051      109385.79      18.222107    
      3540   307.34433     -15708.798     -15546.114      119.91036      109406.08      18.230982    
      3550   307.97525     -15709.412     -15546.395      118.51743      109427.84      18.240054    
      3560   308.036       -15709.805     -15546.755      99.223685      109450.9       18.249969    
      3570   307.35428     -15709.889     -15547.2        84.570363      109474.88      18.261169    
      3580   306.02367     -15709.712     -15547.727      75.906345      109499.39      18.273874    
      3590   304.52541     -15709.494     -15548.303      73.649491      109524.22      18.288154    
      3600   303.36039     -15709.49      -15548.915      47.000023      109549.3       18.303912    
      3610   303.07554     -15709.976     -15549.552     -11.485653      109574.04      18.320761    
      3620   303.60384     -15710.912     -15550.208     -76.520805      109597.28      18.33802     
      3630   304.01147     -15711.805     -15550.885     -143.11892      109617.77      18.355018    
      3640   303.15338     -15712.053     -15551.587     -180.10227      109634.36      18.371228    
      3650   300.9847      -15711.615     -15552.298     -193.74226      109646.44      18.386267    
      3660   298.26845     -15710.869     -15552.99      -178.67433      109653.97      18.399852    
      3670   295.79015     -15710.213     -15553.645     -154.28536      109657.42      18.411644    
      3680   293.62204     -15709.653     -15554.233     -109.48541      109657.54      18.421441    
      3690   291.59787     -15709.088     -15554.739     -37.615119      109655.46      18.429454    
      3700   289.92125     -15708.605     -15555.144      24.991124      109652.68      18.436228    
      3710   289.03581     -15708.44      -15555.448      71.510667      109650.54      18.442399    
      3720   289.14646     -15708.682     -15555.631      114.05238      109649.98      18.448546    
      3730   290.39073     -15709.424     -15555.714      123.63749      109651.69      18.45511     
      3740   292.81955     -15710.681     -15555.685      119.32596      109655.9       18.462273    
      3750   295.94574     -15712.248     -15555.598      109.61875      109662.39      18.470128    
      3760   298.887       -15713.671     -15555.464      99.842283      109670.87      18.478816    
      3770   300.81742     -15714.546     -15555.317      103.748        109681.05      18.488501    
      3780   301.39947     -15714.706     -15555.169      120.19966      109692.93      18.499359    
      3790   300.5394      -15714.121     -15555.039      184.54925      109706.89      18.511606    
      3800   298.84612     -15713.098     -15554.912      259.49016      109724.07      18.525351    
      3810   297.81879     -15712.418     -15554.776      293.69215      109745.83      18.540594    
      3820   298.32987     -15712.535     -15554.623      272.54997      109772.67      18.557259    
      3830   300.03024     -15713.255     -15554.443      203.90998      109803.98      18.575192    
      3840   302.15851     -15714.205     -15554.266      124.94459      109838.2       18.594162    
      3850   304.37615     -15715.222     -15554.109      37.30466       109873.52      18.613922    
      3860   306.49941     -15716.235     -15553.999     -31.702385      109908.16      18.634374    
      3870   308.02295     -15716.992     -15553.949     -119.17603      109940.55      18.655517    
      3880   308.35648     -15717.213     -15553.994     -180.83791      109969.09      18.677321    
      3890   307.27789     -15716.771     -15554.123     -194.45141      109992.73      18.699679    
      3900   305.13446     -15715.842     -15554.328     -184.40623      110011.34      18.722381    
      3910   303.02311     -15714.984     -15554.588     -150.81046      110025.37      18.745131    
      3920   302.31085     -15714.9       -15554.881     -122.8188       110035.63      18.767673    
      3930   302.9618      -15715.566     -15555.203     -122.35933      110042.78      18.789875    
      3940   303.93455     -15716.438     -15555.56      -127.04411      110047.03      18.81167     
      3950   304.39318     -15717.072     -15555.951     -92.257083      110048.54      18.832973    
      3960   304.23058     -15717.435     -15556.399     -55.564701      110047.99      18.853711    
      3970   303.78654     -15717.674     -15556.873     -17.390607      110046.29      18.873888    
      3980   303.36685     -15717.968     -15557.39       48.058057      110044.37      18.893482    
      3990   302.85147     -15718.242     -15557.937      103.97422      110043.48      18.912413    
      4000   302.02427     -15718.364     -15558.497      184.20583      110044.86      18.930629    
      4010   301.1073      -15718.447     -15559.065      254.9388       110050.02      18.948198    
      4020   300.49722     -15718.689     -15559.63       308.7053       110060.29      18.965364    
      4030   300.5977      -15719.307     -15560.194      342.57833      110076.65      18.982535    
      4040   301.2264      -15720.198     -15560.753      343.3116       110099.54      19.00022     
      4050   301.8438      -15721.096     -15561.324      335.9592       110128.77      19.018961    
      4060   301.97379     -15721.736     -15561.895      304.30675      110163.95      19.039097    
      4070   301.36026     -15721.997     -15562.481      265.51837      110204.23      19.060693    
      4080   299.99984     -15721.85      -15563.054      225.55714      110248.6       19.083473    
      4090   298.02219     -15721.371     -15563.622      195.35255      110296.14      19.106896    
      4100   295.61306     -15720.615     -15564.141      155.85166      110346.05      19.130313    
      4110   293.57783     -15720.002     -15564.605      106.65378      110397.41      19.15308     
      4120   293.12657     -15720.148     -15564.991      41.39946       110449.14      19.174663    
      4130   294.27357     -15721.061     -15565.296     -27.99254       110499.83      19.194602    
      4140   295.7399      -15722.091     -15565.55      -97.501585      110548.03      19.212477    
      4150   296.56538     -15722.729     -15565.75      -147.39599      110592.43      19.228059    
      4160   296.25334     -15722.736     -15565.923     -168.63114      110632.14      19.241326    
      4170   295.00484     -15722.201     -15566.049     -162.69151      110666.9       19.252367    
      4180   293.62854     -15721.544     -15566.12      -148.85         110696.97      19.261371    
      4190   292.92507     -15721.188     -15566.136     -147.26122      110722.74      19.268646    
      4200   293.19291     -15721.272     -15566.08      -161.80189      110744.43      19.274583    
      4210   294.44991     -15721.802     -15565.943     -181.68514      110761.84      19.279496    
      4220   296.33899     -15722.609     -15565.751     -194.72602      110774.77      19.283679    
      4230   298.01102     -15723.271     -15565.528     -197.50076      110783.13      19.287274    
      4240   298.7013      -15723.386     -15565.277     -173.62845      110787         19.29033     
      4250   298.4773      -15723         -15565.01      -105.11244      110787.14      19.292814    
      4260   298.16654     -15722.554     -15564.728     -25.599677      110785.07      19.294562    
      4270   298.39527     -15722.377     -15564.43       41.993892      110782.5       19.295371    
      4280   299.01185     -15722.39      -15564.117      103.36627      110780.91      19.295107    
      4290   299.8523      -15722.513     -15563.795      148.61998      110781.56      19.293697    
      4300   300.90768     -15722.747     -15563.471      176.73008      110785.3       19.291054    
      4310   302.23352     -15723.131     -15563.153      183.15191      110792.64      19.287035    
      4320   303.6259      -15723.58      -15562.865      186.66399      110803.66      19.281479    
      4330   304.66393     -15723.881     -15562.616      192.2032       110818.28      19.274282    
      4340   304.87266     -15723.792     -15562.417      200.59225      110836.5       19.265425    
      4350   304.09688     -15723.23      -15562.266      216.06492      110858.43      19.255006    
      4360   302.85756     -15722.475     -15562.166      231.79988      110884.28      19.24312     
      4370   301.84403     -15721.857     -15562.085      242.08189      110914.19      19.229977    
      4380   301.19935     -15721.462     -15562.031      236.2363       110948.21      19.215933    
      4390   300.78488     -15721.205     -15561.994      207.58496      110986.09      19.201385    
      4400   300.24613     -15720.883     -15561.956      173.44293      111027.11      19.186757    
      4410   299.28832     -15720.333     -15561.914      138.76714      111070.39      19.172402    
      4420   298.07839     -15719.647     -15561.869      99.706793      111115.08      19.158506    
      4430   296.93651     -15718.975     -15561.8        74.795731      111160.36      19.145094    
      4440   296.01252     -15718.39      -15561.704      37.933181      111205.56      19.132028    
      4450   295.4459      -15717.942     -15561.557      11.032701      111249.94      19.119086    
      4460   295.53739     -15717.796     -15561.362     -33.248917      111292.83      19.106109    
      4470   296.08609     -15717.848     -15561.123     -64.996551      111333.4       19.093008    
      4480   296.87173     -15717.976     -15560.835     -98.972416      111371         19.079754    
      4490   298.09692     -15718.309     -15560.52      -115.67905      111405.05      19.06626     
      4500   299.66737     -15718.799     -15560.179     -122.48795      111435.3       19.052586    
      4510   301.1868      -15719.263     -15559.838     -127.05053      111461.7       19.038974    
      4520   302.55384     -15719.647     -15559.5       -112.00167      111484.34      19.025781    
      4530   303.66116     -15719.924     -15559.19      -62.421539      111503.76      19.013448    
      4540   304.44445     -15720.067     -15558.919     -15.160389      111521.07      19.002234    
      4550   304.85773     -15720.062     -15558.695      36.609293      111537.36      18.992297    
      4560   305.04936     -15719.986     -15558.518      91.200252      111553.74      18.983712    
      4570   305.17448     -15719.936     -15558.401      144.77587      111571.39      18.976513    
      4580   305.09454     -15719.83      -15558.337      201.81199      111591.47      18.970852    
      4590   304.37692     -15719.443     -15558.33       252.62395      111615.09      18.966851    
      4600   303.21144     -15718.863     -15558.367      308.79267      111643.19      18.96459     
      4610   302.55697     -15718.601     -15558.451      353.11579      111676.82      18.964103    
      4620   302.95569     -15718.924     -15558.563      361.05254      111716.71      18.965432    
      4630   304.2521      -15719.755     -15558.708      344.48124      111762.79      18.968507    
      4640   305.67716     -15720.713     -15558.912      301.82245      111814.44      18.973279    
      4650   306.52312     -15721.429     -15559.18       266.38564      111870.61      18.979816    
      4660   306.49247     -15721.744     -15559.511      233.55704      111930.34      18.988198    
      4670   305.44806     -15721.593     -15559.913      190.17357      111992.74      18.998434    
      4680   303.29956     -15720.904     -15560.362      142.98115      112056.79      19.010479    
      4690   300.42229     -15719.855     -15560.836      90.927792      112121.39      19.024119    
      4700   297.69829     -15718.873     -15561.295      30.709479      112185.37      19.038989    
      4710   295.7759      -15718.279     -15561.719     -41.000291      112247.39      19.054634    
      4720   294.48767     -15717.958     -15562.08      -112.50292      112306         19.070707    
      4730   293.60455     -15717.795     -15562.384     -164.57535      112359.84      19.086887    
      4740   293.43483     -15717.929     -15562.608     -216.09423      112407.86      19.1029      
      4750   294.07923     -15718.431     -15562.769     -255.0655       112449.21      19.118538    
      4760   295.2097      -15719.138     -15562.877     -293.37888      112483.3       19.133728    
      4770   296.2085      -15719.723     -15562.933     -308.91868      112509.61      19.148578    
      4780   296.86441     -15720.084     -15562.948     -292.26798      112528.14      19.163389    
      4790   297.51809     -15720.421     -15562.939     -266.44863      112539.52      19.178521    
      4800   298.63794     -15720.978     -15562.902     -233.90678      112544.59      19.194237    
      4810   300.23473     -15721.777     -15562.857     -201.15229      112544.3       19.210716    
      4820   301.83982     -15722.575     -15562.805     -136.48612      112539.65      19.228011    
      4830   303.18887     -15723.261     -15562.777     -69.134026      112532.16      19.246075    
      4840   304.34508     -15723.863     -15562.767     -3.5818862      112523.42      19.264711    
      4850   305.38384     -15724.461     -15562.815      56.414331      112514.9       19.283649    
      4860   305.78624     -15724.781     -15562.922      123.55901      112507.96      19.30262     
      4870   305.10197     -15724.587     -15563.09       191.73582      112503.98      19.321262    
      4880   303.75992     -15724.099     -15563.312      267.5342       112504.4       19.339293    
      4890   302.45341     -15723.676     -15563.581      327.91139      112510.68      19.356483    
      4900   301.36015     -15723.402     -15563.886      350.05845      112523.82      19.372706    
      4910   300.12626     -15723.062     -15564.199      354.66564      112544.12      19.38796     
      4920   298.55543     -15722.56      -15564.528      345.84376      112571.45      19.402387    
      4930   296.92029     -15722         -15564.834      308.65223      112605.35      19.41628     
      4940   295.68347     -15721.614     -15565.103      253.05583      112644.8       19.430019    
      4950   294.98008     -15721.468     -15565.329      168.74826      112688.31      19.444053    
      4960   294.97155     -15721.63      -15565.495      79.974548      112733.94      19.458733    
      4970   295.64061     -15722.101     -15565.612      1.5209171      112779.69      19.474358    
      4980   296.25849     -15722.502     -15565.686     -66.265782      112823.79      19.491166    
      4990   296.22399     -15722.515     -15565.717     -117.30412      112864.81      19.509246    
      5000   295.52224     -15722.129     -15565.703     -138.99055      112901.78      19.52865     
      5010   294.68331     -15721.631     -15565.649     -142.50758      112934.35      19.549443    
      5020   294.2874      -15721.312     -15565.539     -136.71157      112962.58      19.571664    
      5030   294.6534      -15721.333     -15565.367     -147.23656      112986.7       19.595269    
      5040   295.45522     -15721.521     -15565.131     -156.67284      113006.68      19.619947    
      5050   296.07616     -15721.564     -15564.845     -131.53904      113022.54      19.645258    
      5060   296.32276     -15721.361     -15564.512     -97.913146      113034.9       19.670802    
      5070   296.61453     -15721.141     -15564.137     -53.717071      113044.67      19.696235    
      5080   297.28833     -15721.083     -15563.722     -43.175449      113052.81      19.721292    
      5090   298.35527     -15721.213     -15563.287     -29.534182      113059.72      19.745882    
      5100   299.61078     -15721.432     -15562.842     -4.7370954      113065.78      19.770189    
      5110   300.90127     -15721.678     -15562.405     -5.6260022      113071.41      19.794567    
      5120   302.18235     -15721.935     -15561.983     -1.2044986      113076.71      19.819296    
      5130   303.29736     -15722.147     -15561.606      28.628857      113081.88      19.844664    
      5140   304.05445     -15722.219     -15561.277      87.795183      113087.59      19.870901    
      5150   304.48426     -15722.168     -15560.998      146.94147      113095.06      19.898132    
      5160   304.77801     -15722.099     -15560.773      208.82841      113105.53      19.92633     
      5170   304.72724     -15721.904     -15560.606      275.65863      113120.31      19.955415    
      5180   304.25583     -15721.537     -15560.488      341.36312      113140.71      19.985282    
      5190   303.82382     -15721.242     -15560.422      394.54117      113168.01      20.015771    
      5200   303.73117     -15721.178     -15560.407      409.53024      113203.15      20.046763    
      5210   303.82113     -15721.257     -15560.438      382.41388      113246.21      20.078176    
      5220   303.7871      -15721.301     -15560.5        354.30443      113296.48      20.1099      
      5230   303.58191     -15721.303     -15560.611      314.97275      113353.05      20.141879    
      5240   303.69794     -15721.516     -15560.762      235.11789      113414.72      20.174097    
      5250   304.5654      -15722.172     -15560.959      140.92417      113479.65      20.206459    
      5260   305.78722     -15723.07      -15561.211      15.78197       113545.58      20.238835    
      5270   306.45867     -15723.746     -15561.531     -113.6985       113609.7       20.270915    
      5280   305.98974     -15723.896     -15561.93      -227.62022      113669.18      20.302268    
      5290   304.82499     -15723.742     -15562.392     -333.37545      113721.56      20.332528    
      5300   303.75194     -15723.695     -15562.913     -435.69589      113764.66      20.361393    
      5310   303.038       -15723.872     -15563.468     -497.48091      113796.59      20.388662    
      5320   302.61704     -15724.205     -15564.024     -542.73169      113816.21      20.414333    
      5330   302.43962     -15724.674     -15564.586     -546.41105      113823         20.438464    
      5340   302.31463     -15725.141     -15565.119     -524.28214      113817.27      20.461131    
      5350   302.0007      -15725.477     -15565.621     -465.769        113799.99      20.482362    
      5360   301.33472     -15725.582     -15566.079     -379.04702      113772.91      20.502158    
      5370   300.58353     -15725.595     -15566.49      -287.25123      113738.2       20.5205      
      5380   300.17871     -15725.74      -15566.85      -195.54834      113698.21      20.537471    
      5390   299.93898     -15725.925     -15567.161     -105.31089      113655.22      20.553236    
      5400   299.63449     -15726.031     -15567.429     -7.6773038      113611.34      20.56808     
      5410   299.20539     -15726.034     -15567.659      91.354171      113568.77      20.582435    
      5420   298.99923     -15726.116     -15567.85       168.05582      113529.63      20.596836    
      5430   299.30893     -15726.447     -15568.017      229.61929      113495.54      20.611772    
      5440   299.95053     -15726.928     -15568.158      283.95172      113467.72      20.627764    
      5450   300.59125     -15727.402     -15568.293      310.44101      113447.12      20.645289    
      5460   301.04688     -15727.779     -15568.429      334.79151      113434.15      20.66459     
      5470   300.96368     -15727.875     -15568.569      346.82913      113429.03      20.685641    
      5480   300.05436     -15727.539     -15568.714      373.54606      113431.83      20.708256    
      5490   298.60966     -15726.915     -15568.855      398.04717      113442.87      20.732097    
      5500   297.1079      -15726.241     -15568.976      401.68066      113462.44      20.756764    
      5510   295.90784     -15725.711     -15569.081      383.36931      113490.33      20.781758    
      5520   295.24464     -15725.417     -15569.138      352.02454      113525.92      20.806513    
      5530   295.42424     -15725.515     -15569.141      296.50468      113568.23      20.830381    
      5540   296.60756     -15726.1       -15569.099      215.50804      113615.85      20.852782    
      5550   298.32531     -15726.928     -15569.018      130.02116      113666.85      20.873409    
      5560   299.89482     -15727.656     -15568.916      36.683192      113719.16      20.892204    
      5570   300.97518     -15728.107     -15568.795     -39.191544      113770.69      20.909165    
      5580   301.44229     -15728.242     -15568.683     -91.083151      113819.78      20.924324    
      5590   301.38703     -15728.11      -15568.58      -129.73442      113865.34      20.937732    
      5600   301.16379     -15727.894     -15568.481     -155.68291      113906.6       20.949545    
      5610   301.01314     -15727.714     -15568.382     -165.34752      113943.11      20.960122    
      5620   300.73456     -15727.469     -15568.284     -163.18051      113974.78      20.970009    
      5630   300.12787     -15727.05      -15568.186     -149.98652      114001.79      20.979796    
      5640   299.45571     -15726.575     -15568.067     -124.13631      114024.61      20.989983    
      5650   299.31426     -15726.362     -15567.929     -98.866576      114043.93      21.000908    
      5660   299.93731     -15726.52      -15567.757     -79.652653      114060.39      21.012782    
      5670   301.10124     -15726.943     -15567.564     -62.736397      114074.49      21.025682    
      5680   302.35657     -15727.391     -15567.347     -44.042804      114086.72      21.039578    
      5690   303.47261     -15727.741     -15567.107     -21.299034      114097.62      21.05435     
      5700   304.23559     -15727.912     -15566.874      5.8661778      114107.71      21.069763    
      5710   304.41292     -15727.771     -15566.64       34.0793        114117.58      21.085485    
      5720   304.23461     -15727.461     -15566.423      60.991889      114127.94      21.101158    
      5730   304.32487     -15727.312     -15566.227      75.426007      114139.4       21.116508    
      5740   304.64403     -15727.303     -15566.048      67.640228      114152.16      21.131354    
      5750   304.55923     -15727.105     -15565.896      67.69436       114166.06      21.145646    
      5760   303.76935     -15726.57      -15565.779      81.508352      114181.13      21.159575    
      5770   302.65581     -15725.898     -15565.697      94.84271       114197.6       21.173354    
      5780   301.96183     -15725.459     -15565.624      102.15458      114215.72      21.18718     
      5790   301.86355     -15725.346     -15565.563      98.128524      114235.6       21.201231    
      5800   302.23943     -15725.506     -15565.524      72.978767      114257.09      21.215734    
      5810   302.65642     -15725.709     -15565.507      41.788664      114279.65      21.230864    
      5820   302.72803     -15725.753     -15565.513      17.186329      114302.58      21.246604    
      5830   302.33386     -15725.586     -15565.554     -4.6433122      114325.23      21.26287     
      5840   301.65023     -15725.287     -15565.618     -27.918921      114347.12      21.279691    
      5850   300.78313     -15724.916     -15565.705     -30.263329      114367.84      21.297215    
      5860   299.83597     -15724.528     -15565.819     -18.881307      114387.34      21.315782    
      5870   299.04176     -15724.221     -15565.932      1.2748511      114405.93      21.335826    
      5880   298.80429     -15724.213     -15566.05       13.370532      114424.08      21.357678    
      5890   299.2848      -15724.582     -15566.165     -5.8787684      114441.97      21.381488    
      5900   300.02732     -15725.092     -15566.281     -35.157237      114459.23      21.40719     
      5910   300.3559      -15725.389     -15566.404     -71.758083      114475.19      21.43459     
      5920   299.66706     -15725.168     -15566.548     -96.815993      114489.12      21.463437    
      5930   298.08571     -15724.474     -15566.691     -104.5276       114500.5       21.493303    
      5940   296.22955     -15723.625     -15566.825     -97.205794      114509.2       21.523674    
      5950   294.77723     -15722.968     -15566.936     -100.92056      114515.37      21.554019    
      5960   294.25955     -15722.753     -15566.995     -92.88815       114519.05      21.58373     
      5970   294.87086     -15723.076     -15566.995     -70.181532      114520.54      21.612203    
      5980   296.32748     -15723.804     -15566.952     -29.485242      114520.41      21.638868    
      5990   298.24765     -15724.722     -15566.853     -8.0503067      114519.53      21.66347     
      6000   300.04218     -15725.547     -15566.728      9.6341533      114518.46      21.68608     
      6010   300.98439     -15725.904     -15566.587      45.814779      114517.68      21.706968    
      6020   300.46919     -15725.488     -15566.444      81.489825      114517.92      21.726496    
      6030   298.99234     -15724.562     -15566.299      124.63979      114520.02      21.744988    
      6040   297.70476     -15723.707     -15566.126      164.9079       114524.93      21.762562    
      6050   297.29101     -15723.275     -15565.913      171.63771      114533.42      21.779155    
      6060   297.62248     -15723.191     -15565.654      166.48799      114545.63      21.794785    
      6070   298.41468     -15723.302     -15565.345      167.57536      114561.43      21.809577    
      6080   299.63044     -15723.591     -15564.99       153.37943      114580.7       21.823716    
      6090   300.9633      -15723.911     -15564.605      126.44109      114603.02      21.83733     
      6100   302.00031     -15724.064     -15564.21       92.46317       114627.77      21.850397    
      6110   302.67394     -15724.025     -15563.814      76.411715      114654.18      21.862775    
      6120   303.27464     -15723.959     -15563.43       40.138806      114681.74      21.874402    
      6130   304.09589     -15724.037     -15563.073     -3.9287479      114709.64      21.885249    
      6140   305.06861     -15724.231     -15562.752     -66.379734      114736.76      21.895248    
      6150   305.81904     -15724.36      -15562.484     -101.35203      114761.86      21.90435     
      6160   306.17639     -15724.329     -15562.264     -130.56273      114784.12      21.912567    
      6170   306.10545     -15724.142     -15562.114     -156.00231      114802.89      21.919989    
      6180   305.44791     -15723.702     -15562.022     -162.06618      114817.71      21.926836    
      6190   304.48972     -15723.162     -15561.99      -166.11486      114828.43      21.933392    
      6200   303.81912     -15722.817     -15562         -158.46972      114835.08      21.939916    
      6210   303.47772     -15722.694     -15562.057     -158.07532      114837.89      21.946519    
      6220   302.97424     -15722.526     -15562.156     -131.93172      114837.03      21.953167    
      6230   302.19858     -15722.25      -15562.29      -99.266729      114833.12      21.959829    
      6240   301.77207     -15722.207     -15562.473     -70.780713      114827.02      21.966527    
      6250   302.41018     -15722.758     -15562.686     -58.380735      114819.36      21.97343     
      6260   303.64123     -15723.689     -15562.966     -38.772902      114810.56      21.980884    
      6270   304.40076     -15724.449     -15563.324     -16.917537      114801.03      21.989372    
      6280   304.0231      -15724.701     -15563.776      27.045265      114791.35      21.999372    
      6290   302.74056     -15724.576     -15564.329      85.455041      114782.52      22.011444    
      6300   301.3299      -15724.461     -15564.961      126.72434      114775.8       22.026161    
      6310   300.2315      -15724.566     -15565.648      147.73099      114772.11      22.043957    
      6320   299.24031     -15724.737     -15566.343      156.04178      114771.89      22.064874    
      6330   298.42093     -15724.956     -15566.996      151.24455      114775.25      22.088677    
      6340   298.01934     -15725.33      -15567.582      144.11756      114782.06      22.114894    
      6350   298.09844     -15725.877     -15568.087      132.58027      114792.07      22.142987    
      6360   298.63051     -15726.575     -15568.504      97.730201      114804.85      22.172438    
      6370   299.21125     -15727.219     -15568.84       64.532969      114819.63      22.202869    
      6380   298.95626     -15727.362     -15569.119      50.850088      114835.68      22.234049    
      6390   297.61133     -15726.865     -15569.334      51.058581      114852.6       22.265788    
      6400   295.68694     -15726.002     -15569.489      74.23372       114870.43      22.297836    
      6410   294.07069     -15725.243     -15569.586      105.96447      114889.71      22.329768    
      6420   293.7343      -15725.088     -15569.608      106.99996      114911.03      22.360946    
      6430   294.8094      -15725.622     -15569.573      70.252293      114934.38      22.390684    
      6440   296.38264     -15726.367     -15569.486      44.932056      114959.03      22.418402    
      6450   297.49023     -15726.84      -15569.372      29.39399       114984.33      22.44384     
      6460   297.65332     -15726.793     -15569.239      14.90774       115009.92      22.467074    
      6470   296.99041     -15726.296     -15569.093      3.5768675      115035.48      22.488328    
      6480   296.10735     -15725.653     -15568.918     -10.002869      115060.72      22.508027    
      6490   295.67772     -15725.224     -15568.715     -40.639275      115085.27      22.526725    
      6500   296.16164     -15725.236     -15568.472     -72.308115      115108.51      22.544969    
      6510   297.53842     -15725.692     -15568.199     -132.64905      115129.63      22.563189    
      6520   299.33049     -15726.352     -15567.91      -183.33591      115147.36      22.581495    
      6530   300.82009     -15726.854     -15567.623     -230.50016      115160.56      22.599791    
      6540   301.3691      -15726.862     -15567.342     -245.52         115168.28      22.61776     
      6550   300.80566     -15726.315     -15567.093     -226.74062      115170.25      22.634908    
      6560   299.63328     -15725.463     -15566.861     -182.93443      115166.96      22.650827    
      6570   298.69077     -15724.733     -15566.63      -123.38676      115159.47      22.665361    
      6580   298.57467     -15724.426     -15566.384     -73.626906      115149.14      22.678534    
      6590   299.2886      -15724.564     -15566.145     -25.691051      115137.24      22.690518    
      6600   300.66755     -15725.049     -15565.899      10.122269      115124.84      22.701572    
      6610   302.51752     -15725.78      -15565.652      29.120574      115112.75      22.712002    
      6620   304.5078      -15726.625     -15565.443      36.066111      115101.44      22.722152    
      6630   305.95864     -15727.231     -15565.281      28.269256      115091.04      22.732367    
      6640   306.30735     -15727.316     -15565.182      38.813581      115081.44      22.742967    
      6650   305.85201     -15727.046     -15565.152      38.072926      115072.77      22.754177    
      6660   305.18298     -15726.727     -15565.187      34.294414      115065.03      22.766128    
      6670   304.61931     -15726.518     -15565.276      32.205561      115058.18      22.778853    
      6680   304.37471     -15726.535     -15565.423      43.164767      115052.26      22.792268    
      6690   304.46474     -15726.782     -15565.623      39.687976      115047.38      22.806314    
      6700   304.75928     -15727.203     -15565.888      36.394468      115043.47      22.820853    
      6710   304.9049      -15727.618     -15566.226      28.741553      115040.38      22.835683    
      6720   304.2815      -15727.709     -15566.647      26.313388      115038         22.850645    
      6730   302.9779      -15727.514     -15567.141      39.464223      115036.29      22.865724    
      6740   301.43104     -15727.265     -15567.711      41.865508      115035.46      22.881129    
      6750   300.15185     -15727.203     -15568.327      29.846604      115035.59      22.897147    
      6760   299.23387     -15727.351     -15568.96       4.1622491      115036.39      22.913943    
      6770   298.52817     -15727.596     -15569.579     -18.031282      115037.26      22.931591    
      6780   297.8789      -15727.83      -15570.157     -23.762846      115037.75      22.950113    
      6790   297.2457      -15728         -15570.662     -28.73879       115037.66      22.969353    
      6800   296.36931     -15727.949     -15571.075     -26.433382      115036.88      22.988949    
      6810   295.33335     -15727.701     -15571.375      11.346208      115035.57      23.00861     
      6820   294.76212     -15727.613     -15571.59       39.324582      115034.47      23.028173    
      6830   295.07075     -15727.889     -15571.702      52.588016      115034.25      23.047534    
      6840   296.1888      -15728.525     -15571.747      51.078777      115035.22      23.066668    
      6850   297.83418     -15729.4       -15571.751      41.581035      115037.35      23.085624    
      6860   299.77136     -15730.398     -15571.723      8.2681238      115040.35      23.10458     
      6870   301.19921     -15731.144     -15571.713     -25.346404      115043.52      23.123796    
      6880   301.37239     -15731.234     -15571.712     -50.070247      115046.1       23.143534    
      6890   300.39093     -15730.721     -15571.718     -61.217041      115047.47      23.16399     
      6900   299.14057     -15730.078     -15571.737     -72.769398      115047.4       23.185248    
      6910   298.48689     -15729.733     -15571.738     -108.37717      115045.53      23.207225    
      6920   298.65224     -15729.812     -15571.73      -146.57976      115041.12      23.229748    
      6930   299.19133     -15730.075     -15571.707     -168.51988      115033.35      23.252601    
      6940   299.53807     -15730.237     -15571.686     -169.42323      115021.74      23.275589    
      6950   299.68602     -15730.283     -15571.653     -136.95777      115006.33      23.298493    
      6960   299.75834     -15730.289     -15571.621     -73.037479      114987.87      23.321199    
      6970   299.57954     -15730.16      -15571.587      0.20740848     114967.81      23.343683    
      6980   299.02134     -15729.814     -15571.536      88.937604      114947.87      23.365974    
      6990   298.34881     -15729.415     -15571.493      188.93978      114930.1       23.388376    
      7000   297.89827     -15729.097     -15571.413      269.13949      114916.74      23.411447    
      7010   297.79106     -15728.944     -15571.317      358.13558      114909.78      23.435898    
      7020   298.13557     -15728.991     -15571.182      411.51565      114911.08      23.462536    
      7030   299.23688     -15729.418     -15571.026      422.69024      114921.81      23.492151    
      7040   300.90789     -15730.133     -15570.856      402.81468      114942.29      23.525389    
      7050   302.48036     -15730.802     -15570.693      351.02703      114971.94      23.56262     
      7060   303.42997     -15731.152     -15570.541      300.87742      115009.6       23.60378     
      7070   303.77171     -15731.198     -15570.406      241.42774      115054         23.64849     
      7080   303.78654     -15731.112     -15570.312      148.64477      115103.64      23.696146    
      7090   303.70559     -15731.002     -15570.244      28.086931      115156.31      23.745895    
      7100   303.82906     -15731.036     -15570.213     -79.557186      115209.31      23.796728    
      7110   303.7957      -15731.021     -15570.216     -167.60641      115260.07      23.847694    
      7120   303.28367     -15730.801     -15570.267     -223.83139      115306.56      23.898016    
      7130   302.63668     -15730.547     -15570.355     -250.12776      115347.46      23.947199    
      7140   302.17108     -15730.438     -15570.493     -263.14291      115382.11      23.994878    
      7150   301.8507      -15730.453     -15570.677     -239.76764      115410.35      24.040815    
      7160   301.66247     -15730.588     -15570.912     -215.99968      115432.71      24.084897    
      7170   301.7292      -15730.905     -15571.194     -207.00146      115449.78      24.127134    
      7180   301.87877     -15731.326     -15571.536     -203.83097      115461.85      24.167576    
      7190   301.55598     -15731.568     -15571.949     -219.06411      115468.98      24.206423    
      7200   300.23145     -15731.338     -15572.419     -206.20813      115470.96      24.24394     
      7210   298.33752     -15730.846     -15572.93      -180.45446      115468.11      24.280337    
      7220   296.55484     -15730.417     -15573.444     -147.86968      115461.08      24.31569     
      7230   295.28053     -15730.24      -15573.942     -114.23017      115450.63      24.349975    
      7240   294.56        -15730.308     -15574.391     -96.388379      115437.54      24.383198    
      7250   293.95886     -15730.389     -15574.79      -85.808742      115422.18      24.415291    
      7260   293.4586      -15730.443     -15575.11      -49.984817      115404.9       24.445996    
      7270   293.49194     -15730.712     -15575.361     -26.963492      115386.52      24.475017    
      7280   294.52835     -15731.441     -15575.542     -32.792523      115367.55      24.501938    
      7290   296.39464     -15732.557     -15575.669     -36.396959      115347.96      24.526283    
      7300   298.20367     -15733.6       -15575.754     -50.752752      115327.59      24.547678    
      7310   299.19377     -15734.198     -15575.829     -43.905043      115306.2       24.565812    
      7320   299.17266     -15734.25      -15575.892     -1.8491048      115283.99      24.580681    
      7330   298.5809      -15733.989     -15575.944      75.059365      115261.93      24.592683    
      7340   297.89886     -15733.668     -15575.984      167.63072      115241.79      24.602563    
      7350   297.38566     -15733.42      -15576.008      249.14307      115225.68      24.611357    
      7360   296.98687     -15733.202     -15576.001      337.30788      115215.51      24.620146    
      7370   296.50295     -15732.909     -15575.964      410.16954      115213.23      24.629857    
      7380   295.55825     -15732.325     -15575.88       451.05274      115220.47      24.641234    
      7390   294.68294     -15731.727     -15575.745      464.19177      115238.19      24.654748    
      7400   294.87414     -15731.615     -15575.532      433.84346      115266.57      24.67056     
      7410   296.35648     -15732.092     -15575.224      369.38693      115304.89      24.688503    
      7420   298.41004     -15732.772     -15574.818      295.56423      115351.63      24.708193    
      7430   300.26694     -15733.262     -15574.324      214.83194      115405.03      24.729094    
      7440   301.40382     -15733.285     -15573.746      131.04001      115463.15      24.750684    
      7450   301.597       -15732.744     -15573.103      56.861484      115523.96      24.772433    
      7460   300.91183     -15731.704     -15572.425      9.8159968      115585.81      24.793907    
      7470   299.68693     -15730.38      -15571.75      -26.3253        115647.52      24.81478     
      7480   298.62639     -15729.146     -15571.077     -65.372077      115708.15      24.834863    
      7490   298.44996     -15728.41      -15570.435     -125.04433      115766.7       24.854011    
      7500   299.32892     -15728.28      -15569.839     -192.31322      115821.74      24.871958    
      7510   300.83289     -15728.549     -15569.312     -266.67225      115871.69      24.888321    
      7520   302.3404      -15728.912     -15568.877     -317.81535      115914.95      24.902579    
      7530   303.32418     -15729.096     -15568.54      -346.72256      115950.29      24.91433     
      7540   303.55185     -15728.972     -15568.296     -356.15924      115977.09      24.923465    
      7550   303.03626     -15728.522     -15568.119     -358.04082      115995.18      24.930243    
[...]
      8180   298.43327     -15731.172     -15573.205     -296.75276      116737.37      26.493974    
      8190   298.36619     -15731.614     -15573.683     -242.9881       116730.77      26.512465    
      8200   298.2604      -15732.033     -15574.158     -184.73246      116718.32      26.527668    
      8210   297.68963     -15732.201     -15574.628     -103.17381      116701.57      26.539789    
      8220   296.73237     -15732.128     -15575.061     -4.3042316      116682.52      26.549203    
      8230   295.7859      -15732.028     -15575.463      89.163697      116663.47      26.556433    
      8240   295.4221      -15732.168     -15575.795      159.18188      116646.61      26.562138    
      8250   296.06278     -15732.794     -15576.082      209.43498      116633.64      26.566984    
      8260   297.54435     -15733.82      -15576.324      215.94729      116625.62      26.571558    
      8270   299.08105     -15734.845     -15576.535      217.0956       116622.83      26.576265    
      8280   299.70932     -15735.379     -15576.737      226.20235      116625.25      26.581361    
      8290   299.45131     -15735.449     -15576.944      240.13472      116633.08      26.587021    
      8300   298.78469     -15735.287     -15577.134      256.59813      116646.64      26.59339     
      8310   298.3009      -15735.217     -15577.32       238.73304      116666.18      26.600571    
      8320   298.20421     -15735.331     -15577.486      201.92045      116691.26      26.60847     
      8330   298.28839     -15735.533     -15577.643      159.9992       116720.98      26.616815    
      8340   298.28104     -15735.662     -15577.776      113.87787      116754.32      26.625244    
      8350   297.97909     -15735.626     -15577.9        79.473593      116790.22      26.633454    
      8360   297.42827     -15735.431     -15577.996      32.565657      116827.71      26.641118    
      8370   296.93624     -15735.246     -15578.072     -21.578693      116865.66      26.64792     
      8380   296.66085     -15735.144     -15578.115     -59.242274      116902.81      26.653554    
      8390   296.39948     -15735.015     -15578.124     -71.886025      116938.29      26.657971    
      8400   296.21117     -15734.876     -15578.085     -78.854877      116971.72      26.661411    
      8410   296.23835     -15734.811     -15578.006     -72.920359      117002.95      26.664235    
      8420   296.29895     -15734.712     -15577.875     -66.148093      117032.1       26.66687     
      8430   296.05011     -15734.389     -15577.683     -55.38412       117059.37      26.669694    
      8440   295.73849     -15733.975     -15577.434     -59.742057      117084.96      26.672986    
      8450   295.95307     -15733.754     -15577.1       -76.222275      117108.78      26.676833    
      8460   297.03041     -15733.902     -15576.678     -111.22963      117130.43      26.681119    
      8470   298.78833     -15734.341     -15576.186     -148.60612      117149.17      26.685613    
      8480   300.94655     -15734.93      -15575.633     -188.39968      117164.1       26.690042    
      8490   303.01073     -15735.441     -15575.052     -216.63537      117174.32      26.694155    
      8500   304.36959     -15735.594     -15574.485     -222.13715      117179.21      26.697873    
      8510   304.67809     -15735.244     -15573.972     -205.08425      117178.68      26.701335    
      8520   304.19744     -15734.537     -15573.519     -167.41014      117173.22      26.704839    
      8530   303.74362     -15733.908     -15573.131     -119.77909      117163.82      26.708894    
      8540   303.59662     -15733.493     -15572.793     -42.351058      117151.77      26.714103    
      8550   303.64244     -15733.237     -15572.513      27.441349      117138.83      26.72102     
      8560   304.01803     -15733.205     -15572.282      103.36914      117126.73      26.729969    
      8570   304.66088     -15733.363     -15572.1        157.96879      117117.24      26.741131    
      8580   305.0984      -15733.468     -15571.973      211.70505      117111.71      26.754541    
      8590   304.88416     -15733.284     -15571.903      260.41264      117111.33      26.770227    
      8600   303.99811     -15732.793     -15571.881      302.62162      117117.16      26.788236    
      8610   302.7379      -15732.142     -15571.896      347.56405      117130.12      26.808539    
      8620   301.51547     -15731.547     -15571.949      376.59746      117151.11      26.83113     
      8630   300.58841     -15731.12      -15572.013      391.8255       117180.63      26.856026    
      8640   299.98006     -15730.871     -15572.086      384.24036      117218.86      26.883245    
      8650   299.74111     -15730.826     -15572.167      363.0502       117265.47      26.912697    
      8660   300.08829     -15731.079     -15572.236      308.1162       117319.71      26.94413     
      8670   301.11353     -15731.702     -15572.317      222.91021      117380.12      26.977158    
      8680   302.06167     -15732.288     -15572.401      127.09947      117444.56      27.011318    
      8690   302.22105     -15732.481     -15572.51       47.317687      117510.67      27.04614     
      8700   301.74676     -15732.354     -15572.634     -37.377463      117576.48      27.081203    
      8710   300.94456     -15732.076     -15572.78      -131.35739      117639.91      27.116048    
      8720   299.83373     -15731.639     -15572.931     -210.96519      117698.8       27.150157    
      8730   298.78471     -15731.243     -15573.09      -285.45853      117751.31      27.183075    
      8740   298.46168     -15731.216     -15573.234     -360.78274      117795.67      27.214418    
      8750   298.72503     -15731.504     -15573.383     -403.67498      117830.34      27.24393     
      8760   298.99224     -15731.799     -15573.536     -426.66908      117854.46      27.271554    
      8770   298.82688     -15731.877     -15573.702     -407.00736      117867.8       27.297338    
      8780   298.15948     -15731.71      -15573.888     -365.11745      117871         27.321476    
      8790   297.23631     -15731.417     -15574.084     -317.99138      117865.25      27.344174    
      8800   296.4371      -15731.237     -15574.327     -264.16482      117851.9       27.365602    
      8810   295.73809     -15731.131     -15574.591     -193.36177      117832.4       27.385929    
      8820   295.28452     -15731.191     -15574.891     -115.09028      117808.59      27.405439    
      8830   295.50136     -15731.65      -15575.236     -46.405428      117782.45      27.424542    
      8840   296.2198      -15732.413     -15575.618      11.696616      117755.72      27.443762    
      8850   296.74962     -15733.118     -15576.043      42.277616      117729.8       27.463599    
      8860   296.43372     -15733.413     -15576.505      69.916545      117705.45      27.484374    
      8870   295.3326      -15733.312     -15576.986      90.520571      117683.29      27.506257    
      8880   293.74154     -15732.93      -15577.446      122.19786      117663.81      27.529264    
      8890   292.23386     -15732.545     -15577.86       144.72864      117647.66      27.553384    
      8900   291.56427     -15732.535     -15578.204      157.69431      117635.34      27.578609    
      8910   292.09362     -15733.074     -15578.463      139.00659      117627.02      27.604939    
      8920   293.61167     -15734.061     -15578.646      111.31798      117622.21      27.632352    
      8930   295.65342     -15735.256     -15578.761      96.973469      117620.2       27.660738    
      8940   297.75373     -15736.44      -15578.833      82.246062      117620.57      27.690065    
      8950   299.63195     -15737.479     -15578.877      69.365809      117622.91      27.720278    
      8960   301.2851      -15738.399     -15578.923      46.816554      117626.8       27.75131     
      8970   302.43912     -15739.074     -15578.987      36.752763      117631.72      27.782983    
      8980   302.30062     -15739.102     -15579.088      43.108855      117637.41      27.815101    
      8990   300.83814     -15738.44      -15579.201      66.56931       117644.02      27.847467    
      9000   298.77459     -15737.488     -15579.341      102.42456      117652.13      27.879929    
      9010   296.74887     -15736.553     -15579.478      145.79374      117662.56      27.912311    
      9020   295.25233     -15735.867     -15579.584      185.55079      117676.24      27.944376    
      9030   294.69234     -15735.639     -15579.652      208.41697      117694.07      27.97581     
      9040   295.2241      -15735.938     -15579.669      180.12092      117716.39      28.006271    
      9050   296.70369     -15736.687     -15579.635      143.3817       117742.58      28.035459    
      9060   298.81212     -15737.731     -15579.564      80.561082      117771.6       28.063201    
      9070   300.90616     -15738.753     -15579.477      8.4743773      117801.9       28.089334    
      9080   302.41554     -15739.453     -15579.378     -43.760512      117831.76      28.113803    
      9090   303.01847     -15739.698     -15579.304     -66.687996      117859.97      28.136771    
      9100   302.71184     -15739.486     -15579.255     -61.881029      117886.05      28.158557    
      9110   301.77888     -15738.965     -15579.227     -51.24073       117910.12      28.179578    
      9120   300.58128     -15738.319     -15579.216     -33.899246      117932.47      28.200241    
      9130   299.25379     -15737.615     -15579.214      1.2164911      117953.56      28.220985    
      9140   297.86103     -15736.867     -15579.203      31.996782      117974.2       28.242331    
      9150   296.86509     -15736.31      -15579.173      47.969193      117995.15      28.264796    
      9160   296.44491     -15736.015     -15579.1        53.271299      118016.83      28.288836    
      9170   296.18695     -15735.758     -15578.98       53.852499      118039.4       28.314804    
      9180   295.94807     -15735.457     -15578.806      39.866949      118062.77      28.34285     
      9190   295.7777      -15735.13      -15578.569      17.119079      118086.63      28.372746    
      9200   295.88659     -15734.866     -15578.247     -9.2532618      118110.43      28.403954    
      9210   296.60657     -15734.852     -15577.852     -32.450138      118133.56      28.435714    
      9220   298.2946      -15735.272     -15577.379     -64.53675       118155.45      28.467151    
      9230   300.54392     -15735.943     -15576.859     -89.288861      118175.34      28.497396    
      9240   302.27634     -15736.326     -15576.325     -93.260472      118192.72      28.52571     
      9250   303.08791     -15736.244     -15575.814     -91.412818      118207.47      28.551511    
      9260   303.75852     -15736.114     -15575.329     -95.091765      118219.69      28.574401    
      9270   305.22538     -15736.465     -15574.903     -106.98581      118229.35      28.594168    
      9280   307.21554     -15737.172     -15574.556     -120.49858      118236.19      28.610826    
      9290   308.78075     -15737.738     -15574.294     -145.64048      118239.85      28.624564    
      9300   309.08209     -15737.739     -15574.136     -140.61192      118239.95      28.635633    
      9310   307.60905     -15736.904     -15574.081     -101.02212      118236.64      28.644495    
      9320   304.60731     -15735.335     -15574.1       -30.94305       118230.97      28.651804    
      9330   300.97932     -15733.483     -15574.169      43.554448      118224.64      28.658295    
      9340   298.08885     -15732.029     -15574.245      102.63432      118219.44      28.664676    
      9350   297.19663     -15731.609     -15574.297      125.05474      118216.77      28.67166     
      9360   298.16515     -15732.15      -15574.326      131.46033      118217.19      28.679925    
      9370   299.77916     -15733.011     -15574.332      107.93927      118220.71      28.69017     
      9380   300.93404     -15733.621     -15574.331      101.98876      118226.86      28.70294     
      9390   301.11552     -15733.731     -15574.345      91.427264      118235.34      28.718618    
      9400   300.44729     -15733.402     -15574.369      101.85035      118245.95      28.737456    
      9410   299.38673     -15732.88      -15574.408      97.214879      118258.8       28.759736    
      9420   298.25933     -15732.322     -15574.448      88.861208      118273.75      28.785562    
      9430   297.64118     -15732.019     -15574.471      77.477538      118290.61      28.814746    
      9440   298.10211     -15732.26      -15574.468      38.132862      118308.99      28.846786    
      9450   299.80466     -15733.141     -15574.448     -12.094661      118327.96      28.880834    
      9460   302.42388     -15734.504     -15574.425     -62.394305      118346.28      28.915894    
      9470   305.2558      -15735.991     -15574.413     -116.23763      118362.71      28.951014    
      9480   307.2113      -15737.078     -15574.465     -137.36207      118376.08      28.985486    
      9490   307.34919     -15737.303     -15574.617     -126.5716       118385.9       29.01897     
      9500   305.64419     -15736.67      -15574.886     -87.190732      118392.53      29.0514      
      9510   302.78232     -15735.555     -15575.286     -48.043866      118396.92      29.082838    
      9520   299.7006      -15734.416     -15575.778      0.33836288     118400.06      29.113265    
      9530   297.05952     -15733.573     -15576.334      45.139488      118403.13      29.142663    
      9540   295.35159     -15733.236     -15576.901      88.608187      118407.26      29.171004    
      9550   295.09671     -15733.648     -15577.448      107.02346      118413.44      29.198303    
      9560   295.97539     -15734.624     -15577.958      85.698362      118422.05      29.22446     
      9570   297.19961     -15735.731     -15578.418      65.936137      118432.63      29.249204    
      9580   298.25083     -15736.722     -15578.851      39.119759      118444.67      29.272267    
      9590   298.90524     -15737.463     -15579.246      4.5239948      118457.48      29.293453    
      9600   298.96566     -15737.87      -15579.622     -15.492246      118470.26      29.312735    
      9610   298.22432     -15737.817     -15579.961     -17.23487       118482.49      29.330378    
      9620   296.73086     -15737.336     -15580.27       1.3273681      118494.13      29.346809    
      9630   294.98359     -15736.664     -15580.523      27.538748      118505.63      29.362465    
      9640   293.71159     -15736.19      -15580.723      53.803225      118517.68      29.377818    
      9650   293.50078     -15736.21      -15580.854      51.273849      118530.79      29.39327     
      9660   294.50823     -15736.797     -15580.908      55.567084      118545.02      29.40908     
      9670   296.60045     -15737.912     -15580.915      57.221157      118560.48      29.425457    
      9680   299.17202     -15739.24      -15580.882      38.089483      118577.1       29.442507    
      9690   301.32386     -15740.342     -15580.845      28.297559      118594.5       29.460252    
      9700   302.29428     -15740.827     -15580.817      19.058449      118612.35      29.478764    
      9710   301.63606     -15740.465     -15580.803      22.420678      118630.45      29.498154    
      9720   299.86409     -15739.537     -15580.813      23.906544      118648.85      29.518561    
      9730   298.19021     -15738.661     -15580.823      14.065848      118667.6       29.540066    
      9740   297.30573     -15738.174     -15580.804     -3.1342172      118686.51      29.56266     
      9750   297.30539     -15738.137     -15580.767     -47.503667      118705.11      29.586188    
      9760   298.08003     -15738.469     -15580.689     -117.1631       118722.23      29.6102      
      9770   299.43603     -15739.08      -15580.583     -179.53653      118736.24      29.633992    
      9780   300.89189     -15739.726     -15580.457     -232.20916      118745.65      29.656866    
      9790   301.83811     -15740.1       -15580.331     -266.6751       118749.21      29.678298    
      9800   301.82542     -15739.966     -15580.204     -281.82502      118746.12      29.698062    
      9810   300.99714     -15739.404     -15580.08      -275.547        118736.08      29.716153    
      9820   299.90598     -15738.685     -15579.938     -256.74286      118719.31      29.732694    
      9830   299.11833     -15738.107     -15579.778     -225.34898      118696.37      29.747807    
      9840   299.00736     -15737.842     -15579.571     -194.89334      118668.03      29.761612    
      9850   299.68099     -15737.947     -15579.32      -184.44861      118635.04      29.774071    
      9860   300.77372     -15738.228     -15579.022     -143.47494      118597.85      29.785       
      9870   301.84166     -15738.441     -15578.67      -80.135996      118557.5       29.794306    
      9880   302.60396     -15738.463     -15578.288      10.298702      118515.59      29.802078    
      9890   303.20259     -15738.387     -15577.895      96.331124      118474.26      29.808677    
      9900   303.81114     -15738.314     -15577.501      183.42859      118435.71      29.814614    
      9910   304.18279     -15738.116     -15577.106      279.39003      118402.05      29.820527    
      9920   304.11394     -15737.704     -15576.73       377.52663      118375.57      29.827241    
      9930   304.00981     -15737.306     -15576.387      463.74254      118358.57      29.835761    
      9940   304.48045     -15737.242     -15576.075      523.3545       118353.05      29.847082    
      9950   305.35179     -15737.428     -15575.799      547.38635      118360.39      29.862024    
      9960   306.10553     -15737.61      -15575.582      550.82116      118381.17      29.881076    
      9970   306.52082     -15737.67      -15575.422      531.42683      118415.3       29.904441    
      9980   306.43389     -15737.536     -15575.334      488.49914      118462.2       29.932212    
      9990   305.98308     -15737.276     -15575.313      430.7772       118520.78      29.964412    
     10000   305.33649     -15736.976     -15575.355      356.73435      118589.49      30.000903    
Loop time of 14172.9 on 1 procs for 10000 steps with 4096 atoms

Performance: 0.030 ns/day, 787.384 hours/ns, 0.706 timesteps/s, 2.890 katom-step/s
96.5% CPU use with 1 MPI tasks x 1 OpenMP threads

MPI task timing breakdown:
Section |  min time  |  avg time  |  max time  |%varavg| %total
---------------------------------------------------------------
Pair    | 14038      | 14038      | 14038      |   0.0 | 99.05
Bond    | 0.024385   | 0.024385   | 0.024385   |   0.0 |  0.00
Neigh   | 6.282      | 6.282      | 6.282      |   0.0 |  0.04
Comm    | 0.7163     | 0.7163     | 0.7163     |   0.0 |  0.01
Output  | 125.81     | 125.81     | 125.81     |   0.0 |  0.89
Modify  | 1.9077     | 1.9077     | 1.9077     |   0.0 |  0.01
Other   |            | 0.3722     |            |       |  0.00

Nlocal:           4096 ave        4096 max        4096 min
Histogram: 1 0 0 0 0 0 0 0 0 0
Nghost:           4505 ave        4505 max        4505 min
Histogram: 1 0 0 0 0 0 0 0 0 0
Neighs:              0 ave           0 max           0 min
Histogram: 1 0 0 0 0 0 0 0 0 0
FullNghs:       163196 ave      163196 max      163196 min
Histogram: 1 0 0 0 0 0 0 0 0 0

Total # of neighbors = 163196
Ave neighs/atom = 39.842773
Ave special neighs/atom = 0
Neighbor list builds = 913
Dangerous builds = 295
