LAMMPS (29 Sep 2021 - Update 3)
OMP_NUM_THREADS environment is not set. Defaulting to 1 thread. (src/comm.cpp:98)
  using 1 OpenMP thread(s) per MPI task
Reading data file ...
  orthogonal box = (0.0000000 0.0000000 0.0000000) to (15.866041 15.852264 77.123517)
  2 by 1 by 8 MPI processor grid
  reading atoms ...
  864 atoms
Finding 1-2 1-3 1-4 neighbors ...
  special bond factors lj:    0        0        0       
  special bond factors coul:  0        0        0       
     0 = max # of 1-2 neighbors
     0 = max # of 1-3 neighbors
     0 = max # of 1-4 neighbors
     1 = max # of special neighbors
  special bonds CPU = 0.001 seconds
  read_data CPU = 0.012 seconds
Neighbor list info ...
  update every 1 steps, delay 10 steps, check yes
  max neighbors/atom: 2000, page size: 100000
  master list distance cutoff = 6.22
  ghost atom cutoff = 6.22
  binsize = 3.11, bins = 6 6 25
  1 neighbor lists, perpetual/occasional/extra = 1 0 0
  (1) pair quip, perpetual
      attributes: full, newton on
      pair build: full/bin
      stencil: full/bin/3d
      bin: standard
Setting up Verlet run ...
  Unit style    : metal
  Current step  : 0
  Time step     : 0.001
Per MPI rank memory allocation (min/avg/max) = 8.889 | 8.906 | 8.916 Mbytes
Step Temp PotEng TotEng Press Volume c_msd[4] 
       0            0   -8878.9247   -8878.9247   -11708.833    19397.542            0 
      10    108.80145    -8891.078    -8878.941   -13519.947    19397.542 0.00037756483 
      20    255.99871   -8907.5101   -8878.9531   -15433.074    19397.542  0.004636157 
      30    288.56988   -8911.1358   -8878.9454   -14361.122    19397.542  0.015943357 
      40    289.10053   -8911.1934   -8878.9438   -12512.136    19397.542  0.032214776 
      50    304.26419   -8912.8839   -8878.9428   -12190.839    19397.542  0.050010352 
      60    330.67215   -8915.8353   -8878.9484    -12512.07    19397.542  0.067008738 
      70    319.75479    -8914.613   -8878.9439   -12021.554    19397.542  0.084636553 
      80     311.7171   -8913.7131   -8878.9406   -11242.174    19397.542   0.10335882 
      90    344.97025   -8917.4272   -8878.9452   -11377.847    19397.542   0.12285636 
     100    369.47631   -8920.1625   -8878.9469   -11460.202    19397.542   0.14373353 
     110    369.44402   -8920.1551   -8878.9431   -10737.559    19397.542   0.16547428 
     120    381.04496   -8921.4513   -8878.9452   -10101.733    19397.542   0.18697263 
     130    387.01967   -8922.1174   -8878.9447    -9853.945    19397.542   0.20927079 
     140    390.46305   -8922.5002   -8878.9434   -10154.629    19397.542   0.23274757 
     150    401.17379   -8923.6966   -8878.9451   -10935.233    19397.542   0.25686229 
     160    405.60936   -8924.1923    -8878.946   -11533.497    19397.542   0.28181117 
     170    403.00983   -8923.9035   -8878.9472   -11313.905    19397.542   0.30705714 
     180    385.93942   -8921.9971   -8878.9449   -10395.352    19397.542   0.33328028 
     190    384.55592   -8921.8429   -8878.9451   -9702.4152    19397.542    0.3615061 
     200    397.89654   -8923.3338   -8878.9478   -9508.3306    19397.542   0.39138176 
     210    403.74057   -8923.9838    -8878.946   -9854.3562    19397.542   0.41959204 
     220    419.25516   -8925.7147   -8878.9462   -11120.155    19397.542   0.44190424 
     230    437.64496   -8927.7678   -8878.9478   -12741.979    19397.542   0.46059951 
     240    436.22365   -8927.6096   -8878.9482   -13773.271    19397.542   0.48016288 
     250     417.4692   -8925.5154   -8878.9461   -14188.084    19397.542   0.50051511 
     260    403.07006   -8923.9093   -8878.9463   -14452.366    19397.542   0.51954432 
     270    390.78955   -8922.5388   -8878.9456   -14869.677    19397.542   0.53842732 
     280    390.91941   -8922.5534   -8878.9458   -15753.944    19397.542   0.55789535 
     290    394.53071   -8922.9579   -8878.9474   -16866.473    19397.542   0.57907365 
     300    385.46639   -8921.9447   -8878.9454   -17556.881    19397.542   0.60332818 
     310    388.07639   -8922.2367   -8878.9462   -18102.563    19397.542   0.62988844 
     320    395.22438   -8923.0346   -8878.9467   -18476.923    19397.542   0.65693198 
     330     392.7193   -8922.7554    -8878.947   -18634.964    19397.542   0.68294096 
     340    387.36548    -8922.158   -8878.9468   -18928.114    19397.542    0.7064488 
     350    383.70376     -8921.75   -8878.9472   -19255.038    19397.542   0.72809194 
     360    380.16279   -8921.3526   -8878.9449   -19764.905    19397.542   0.74756432 
     370    391.53302   -8922.6238   -8878.9477   -20433.416    19397.542   0.76345228 
     380    397.18733   -8923.2529   -8878.9461   -20848.612    19397.542   0.77799013 
     390    399.66038   -8923.5327     -8878.95   -20962.623    19397.542    0.7926845 
     400    376.74168   -8920.9703   -8878.9442   -20594.318    19397.542   0.80792627 
     410    384.01385   -8921.7861   -8878.9488   -20827.442    19397.542   0.82090067 
     420    385.42711   -8921.9432   -8878.9482    -21282.02    19397.542   0.83289421 
     430    375.82197   -8920.8694   -8878.9459   -21749.833    19397.542   0.84474346 
     440    377.40301   -8921.0478   -8878.9479   -22280.425    19397.542   0.85654263 
     450    373.39276   -8920.5987   -8878.9462   -22358.315    19397.542   0.87121917 
     460    380.55104   -8921.3982   -8878.9472   -22127.174    19397.542   0.88923864 
     470    389.08947   -8922.3531   -8878.9496   -21563.629    19397.542   0.90990069 
     480    377.88025   -8921.0989   -8878.9458   -20903.426    19397.542   0.93174236 
     490    381.74982   -8921.5319   -8878.9472   -20620.986    19397.542   0.94962563 
     500    394.14575   -8922.9156   -8878.9481   -20486.731    19397.542   0.96309083 
     510    397.04898   -8923.2389   -8878.9475   -19997.235    19397.542   0.97658553 
     520    399.82595   -8923.5491    -8878.948   -19535.484    19397.542   0.99241283 
     530    404.27704   -8924.0446   -8878.9469    -19115.46    19397.542    1.0084992 
     540     411.3451   -8924.8362     -8878.95   -18661.849    19397.542    1.0226069 
     550    394.09812   -8922.9082    -8878.946   -17821.103    19397.542    1.0374953 
     560    386.81962   -8922.0987   -8878.9484   -17144.624    19397.542    1.0531551 
     570    383.04436   -8921.6747   -8878.9456   -16711.306    19397.542    1.0690946 
     580    397.22268   -8923.2587   -8878.9479   -16702.646    19397.542    1.0866029 
     590    408.28446   -8924.4929   -8878.9481   -16623.668    19397.542    1.1074158 
     600    405.74477   -8924.2095   -8878.9481   -16314.107    19397.542    1.1302748 
     610    396.02325   -8923.1251   -8878.9481    -15628.66    19397.542    1.1519665 
     620     395.3341   -8923.0495   -8878.9494   -15051.831    19397.542    1.1694303 
     630    394.27036   -8922.9318   -8878.9503   -14512.907    19397.542    1.1828305 
     640    383.62649   -8921.7417   -8878.9476   -14067.198    19397.542    1.1945401 
     650    385.14193   -8921.9112    -8878.948   -13839.463    19397.542    1.2068311 
     660     395.4713   -8923.0651   -8878.9497   -13755.797    19397.542    1.2218962 
     670     396.9724   -8923.2312   -8878.9483   -13681.042    19397.542    1.2411479 
     680    400.76426   -8923.6562   -8878.9504   -13529.754    19397.542    1.2649597 
     690    395.59922   -8923.0782   -8878.9485   -13202.541    19397.542    1.2892968 
     700    393.08673   -8922.7984    -8878.949    -12863.36    19397.542    1.3108518 
     710    392.46287   -8922.7295   -8878.9497   -12776.215    19397.542    1.3306314 
     720    392.69983   -8922.7538   -8878.9476   -12960.731    19397.542    1.3493343 
     730    407.70626    -8924.431   -8878.9507   -13617.908    19397.542    1.3652761 
     740    418.60831   -8925.6458   -8878.9494   -14182.857    19397.542    1.3758719 
     750    427.35697   -8926.6222   -8878.9499   -14411.802    19397.542    1.3817369 
     760    426.23067   -8926.4956    -8878.949   -14240.457    19397.542    1.3874968 
     770    425.68986   -8926.4355   -8878.9492   -14121.142    19397.542    1.3956033 
     780    424.34662   -8926.2861   -8878.9496   -14199.692    19397.542    1.4059418 
     790    416.51178   -8925.4118   -8878.9493   -14348.579    19397.542    1.4172819 
     800    406.85203   -8924.3329   -8878.9479   -14603.708    19397.542    1.4293586 
     810     409.3926   -8924.6176   -8878.9492   -14954.594    19397.542    1.4437899 
     820    411.52943   -8924.8561   -8878.9494   -15227.004    19397.542     1.461671 
     830    414.76526   -8925.2161   -8878.9484   -15348.177    19397.542    1.4822988 
     840    425.47297   -8926.4126   -8878.9505   -15497.059    19397.542    1.5061095 
     850    424.10961   -8926.2589   -8878.9489    -15461.05    19397.542    1.5339208 
     860    425.84903   -8926.4531    -8878.949   -15668.017    19397.542    1.5638872 
     870    428.28778   -8926.7265   -8878.9503   -15975.954    19397.542    1.5941429 
     880    422.32484   -8926.0597   -8878.9487   -16050.391    19397.542    1.6254163 
     890    420.59441   -8925.8681   -8878.9502   -16210.368    19397.542    1.6579317 
     900    412.78354   -8924.9958   -8878.9492   -16186.118    19397.542    1.6917804 
     910    408.88335   -8924.5603   -8878.9488   -16398.021    19397.542    1.7253326 
     920    415.25495   -8925.2723     -8878.95   -16866.947    19397.542    1.7566903 
     930    417.79568   -8925.5555   -8878.9498    -17314.63    19397.542    1.7866576 
     940    414.15774   -8925.1502   -8878.9503   -17816.895    19397.542    1.8175362 
     950    410.14766   -8924.7024   -8878.9498   -18397.528    19397.542     1.850555 
     960    412.13206   -8924.9218   -8878.9478   -18864.984    19397.542    1.8837942 
     970    427.90234   -8926.6835   -8878.9503   -19165.223    19397.542    1.9147148 
     980    431.11936    -8927.043    -8878.951    -19021.79    19397.542    1.9457246 
     990    415.64991   -8925.3145   -8878.9482   -18606.767    19397.542    1.9812421 
    1000    413.92707   -8925.1233   -8878.9491   -18513.829    19397.542    2.0201072 
    1010    417.45395   -8925.5177     -8878.95   -18558.895    19397.542    2.0574524 
    1020    414.66605   -8925.2045   -8878.9479    -18540.13    19397.542    2.0909232 
    1030    425.32279   -8926.3944    -8878.949   -18804.281    19397.542    2.1200334 
    1040    437.39791    -8927.743   -8878.9506    -19174.44    19397.542    2.1461906 
    1050    432.04437    -8927.144   -8878.9488   -19430.964    19397.542    2.1724444 
    1060    423.10855   -8926.1471   -8878.9487    -19670.97    19397.542     2.200914 
    1070    416.30819    -8925.389   -8878.9492   -19752.208    19397.542     2.232564 
    1080    410.19009   -8924.7058   -8878.9485   -19471.789    19397.542    2.2656179 
    1090    411.43188   -8924.8454   -8878.9496   -18927.842    19397.542    2.2963807 
    1100    413.58688   -8925.0849   -8878.9486   -18540.027    19397.542    2.3238349 
    1110    425.71996   -8926.4384   -8878.9486   -18620.545    19397.542    2.3474636 
    1120    443.01807   -8928.3709   -8878.9516   -18883.908    19397.542    2.3679172 
    1130    437.42575   -8927.7454   -8878.9499   -18767.479    19397.542    2.3882255 
    1140    422.48256   -8926.0773   -8878.9487   -18476.767    19397.542    2.4089666 
    1150    414.07643   -8925.1393   -8878.9485   -18282.798    19397.542    2.4284943 
    1160    416.01416   -8925.3558   -8878.9488   -18291.885    19397.542     2.446853 
    1170    419.66714   -8925.7642   -8878.9497   -18446.717    19397.542    2.4644412 
    1180    424.21945   -8926.2706   -8878.9483    -18449.36    19397.542    2.4806419 
    1190    440.19598   -8928.0557   -8878.9512   -18343.062    19397.542    2.4945267 
    1200    440.38662   -8928.0752   -8878.9494   -17908.359    19397.542     2.507228 
    1210    440.40752   -8928.0774   -8878.9493   -17509.071    19397.542    2.5196997 
    1220    445.29341   -8928.6232   -8878.9501   -17433.008    19397.542    2.5321836 
    1230    444.31811   -8928.5138   -8878.9494   -17404.254    19397.542    2.5456285 
    1240    444.21916   -8928.5028   -8878.9495   -17567.287    19397.542    2.5617678 
    1250    447.95301   -8928.9197   -8878.9499   -17998.888    19397.542    2.5810013 
    1260    447.05056     -8928.82   -8878.9509   -18113.089    19397.542    2.6027835 
    1270    433.76409   -8927.3363   -8878.9493   -17647.746    19397.542    2.6267411 
    1280    426.49744   -8926.5249   -8878.9485   -17215.404    19397.542    2.6522665 
    1290    438.76938   -8927.8949   -8878.9495   -17215.004    19397.542     2.679609 
    1300     454.8554   -8929.6913   -8878.9515   -17412.029    19397.542    2.7096074 
    1310    451.74789   -8929.3435   -8878.9504   -17515.094    19397.542    2.7419599 
    1320    440.03726   -8928.0361   -8878.9493    -17582.78    19397.542    2.7732724 
    1330    433.51813    -8927.309   -8878.9494   -17627.787    19397.542    2.7991894 
    1340    430.66307   -8926.9918   -8878.9507   -17406.648    19397.542    2.8192899 
    1350    422.06307   -8926.0311   -8878.9493    -17030.68    19397.542    2.8369839 
    1360    423.68793   -8926.2128   -8878.9498   -16872.793    19397.542    2.8564726 
    1370    432.23825   -8927.1671   -8878.9502   -16941.721    19397.542    2.8798412 
    1380    440.61409   -8928.1014   -8878.9502   -17160.411    19397.542     2.904214 
    1390    442.38617   -8928.3005   -8878.9516   -17288.698    19397.542    2.9262872 
    1400    432.82497   -8927.2303    -8878.948   -17111.965    19397.542    2.9462931 
    1410    443.20721   -8928.3906   -8878.9502   -17379.272    19397.542    2.9656964 
    1420     452.8574   -8929.4692   -8878.9523   -17581.285    19397.542    2.9866189 
    1430    440.33742   -8928.0699   -8878.9496    -17078.18    19397.542    3.0107644 
    1440    434.09539   -8927.3728   -8878.9488   -16559.852    19397.542    3.0372306 
    1450    446.59797     -8928.77   -8878.9513   -16458.202    19397.542    3.0634597 
    1460    455.16552   -8929.7248   -8878.9504   -16509.198    19397.542    3.0883146 
    1470     460.5176    -8930.323   -8878.9516   -16639.411    19397.542    3.1117695 
    1480    455.78137    -8929.792   -8878.9489   -16643.605    19397.542    3.1332037 
    1490    461.66937   -8930.4506   -8878.9507   -16632.215    19397.542     3.152331 
    1500    464.06114   -8930.7172   -8878.9504   -16316.323    19397.542    3.1724877 
    1510    464.69685   -8930.7871   -8878.9495    -16148.36    19397.542    3.1960897 
    1520    471.22077   -8931.5167   -8878.9514   -16208.841    19397.542    3.2225013 
    1530    471.47122   -8931.5429   -8878.9496   -16597.639    19397.542    3.2496574 
    1540    479.04999   -8932.3903   -8878.9516   -17340.131    19397.542    3.2743864 
    1550    475.60674   -8932.0055   -8878.9508   -17872.304    19397.542    3.2971604 
    1560    465.76065   -8930.9064   -8878.9501   -17822.552    19397.542    3.3221892 
    1570    460.06152    -8930.271   -8878.9505    -17442.47    19397.542    3.3512444 
    1580    459.40082   -8930.1971   -8878.9502   -16941.542    19397.542    3.3813068 
    1590    460.93829   -8930.3707   -8878.9523   -16350.345    19397.542    3.4083736 
    1600     448.2201   -8928.9504   -8878.9508   -15603.607    19397.542    3.4316634 
    1610     443.9941   -8928.4772    -8878.949    -15275.86    19397.542    3.4534934 
    1620    463.51034   -8930.6582    -8878.953   -15593.563    19397.542    3.4766509 
    1630    474.66564   -8931.9011   -8878.9514   -16126.405    19397.542    3.5034224 
    1640    481.75389   -8932.6918   -8878.9514   -16542.721    19397.542    3.5333548 
    1650    479.37897   -8932.4264    -8878.951   -16541.998    19397.542    3.5648125 
    1660    474.97776   -8931.9337   -8878.9492   -16284.173    19397.542    3.5952514 
    1670    481.99089    -8932.719   -8878.9522   -15990.017    19397.542    3.6221631 
    1680      474.213   -8931.8498   -8878.9506   -15457.654    19397.542    3.6454728 
    1690    462.13083    -8930.502   -8878.9506   -14731.806    19397.542     3.665115 
    1700    458.63731   -8930.1109   -8878.9492   -14389.905    19397.542    3.6801149 
    1710    473.55465   -8931.7771   -8878.9513   -14547.389    19397.542    3.6915037 
    1720    483.59001    -8932.897   -8878.9518   -15013.331    19397.542    3.7021408 
    1730    481.36556   -8932.6472   -8878.9501   -15645.926    19397.542    3.7142289 
    1740    484.05437   -8932.9483   -8878.9513   -16474.749    19397.542    3.7288904 
    1750    482.16869   -8932.7383   -8878.9516   -16722.219    19397.542     3.747119 
    1760    470.26243   -8931.4082   -8878.9497   -16475.495    19397.542    3.7689551 
    1770    472.75321   -8931.6852   -8878.9489   -16480.419    19397.542    3.7930019 
    1780    495.80424   -8934.2609   -8878.9532   -16801.632    19397.542     3.817904 
    1790    498.29189   -8934.5359   -8878.9506   -17030.699    19397.542    3.8432118 
    1800    497.22115   -8934.4163   -8878.9505   -17233.599    19397.542    3.8677962 
    1810    498.13201   -8934.5195   -8878.9521   -17294.852    19397.542    3.8916583 
    1820    485.17576   -8933.0725   -8878.9504   -16971.976    19397.542    3.9157232 
    1830    479.44537   -8932.4337   -8878.9509   -16627.564    19397.542    3.9391486 
    1840    478.88134   -8932.3712   -8878.9513   -16398.764    19397.542    3.9621449 
    1850     478.6415   -8932.3435   -8878.9503   -16406.049    19397.542    3.9857213 
    1860     486.1211   -8933.1789   -8878.9514   -16705.544    19397.542    4.0086822 
    1870    492.79459   -8933.9238   -8878.9519   -17221.514    19397.542    4.0297149 
    1880    491.36379   -8933.7648   -8878.9525   -18037.772    19397.542    4.0499732 
    1890    475.70955   -8932.0166   -8878.9505   -18910.363    19397.542    4.0709101 
    1900    464.92588   -8930.8141   -8878.9509   -19819.272    19397.542    4.0929306 
    1910    455.59431   -8929.7727   -8878.9505   -20229.987    19397.542    4.1160109 
    1920    452.87672   -8929.4684   -8878.9493   -20242.611    19397.542    4.1384657 
    1930    467.97161   -8931.1539   -8878.9509   -20369.825    19397.542    4.1581839 
    1940    485.34862   -8933.0926   -8878.9512   -20514.477    19397.542    4.1756159 
    1950    495.78252   -8934.2578   -8878.9525   -20428.878    19397.542    4.1936772 
    1960    500.11778   -8934.7389     -8878.95   -20591.437    19397.542    4.2145461 
    1970    511.99695   -8936.0681    -8878.954   -21344.221    19397.542    4.2363696 
    1980    499.23942   -8934.6421   -8878.9512   -21654.428    19397.542    4.2540635 
    1990    487.56603   -8933.3391   -8878.9504    -21588.86    19397.542    4.2657075 
    2000    485.14508   -8933.0707    -8878.952   -21134.343    19397.542    4.2770463 
Loop time of 1510.19 on 16 procs for 2000 steps with 864 atoms

Performance: 0.114 ns/day, 209.749 hours/ns, 1.324 timesteps/s
96.8% CPU use with 16 MPI tasks x 1 OpenMP threads

MPI task timing breakdown:
Section |  min time  |  avg time  |  max time  |%varavg| %total
---------------------------------------------------------------
Pair    | 290.49     | 724.01     | 1509.6     |1207.0 | 47.94
Bond    | 0.00021911 | 0.00047331 | 0.00084114 |   0.0 |  0.00
Neigh   | 0.014716   | 0.030541   | 0.064131   |   7.8 |  0.00
Comm    | 0.30331    | 683.35     | 1073.3     |1190.4 | 45.25
Output  | 0.13038    | 33.594     | 68.643     | 461.7 |  2.22
Modify  | 0.0086834  | 0.010323   | 0.012402   |   1.1 |  0.00
Other   |            | 69.19      |            |       |  4.58

Nlocal:        54.0000 ave          90 max          29 min
Histogram: 3 3 0 2 3 1 0 2 0 2
Nghost:        493.750 ave         643 max         369 min
Histogram: 3 1 0 3 2 2 1 2 0 2
Neighs:         0.00000 ave           0 max           0 min
Histogram: 16 0 0 0 0 0 0 0 0 0
FullNghs:      2706.00 ave        5944 max         890 min
Histogram: 6 0 2 1 3 0 2 0 0 2

Total # of neighbors = 43296
Ave neighs/atom = 50.111111
Ave special neighs/atom = 0.0000000
Neighbor list builds = 200
Dangerous builds = 200
Setting up Verlet run ...
  Unit style    : metal
  Current step  : 2000
  Time step     : 0.001
Per MPI rank memory allocation (min/avg/max) = 8.894 | 8.909 | 8.920 Mbytes
Step Temp PotEng TotEng Press Volume c_msd[4] 
    2000          525   -8933.0707   -8874.5061   -20889.533    19397.542    4.2770463 
    2010    500.72002   -8930.6713   -8874.8152   -19326.278    19378.917    4.2973848 
    2020    461.86242   -8927.0574    -8875.536   -15618.452    19326.001    4.3190445 
    2030    490.39095   -8931.0579   -8876.3541   -12372.629    19245.548    4.3341953 
    2040    520.77236   -8935.1827   -8877.0897   -8912.8444    19144.569       4.3405 
    2050    535.52615   -8937.3255   -8877.5867   -4482.0664     19030.98    4.3393567 
    2060    545.92805    -8938.566   -8877.6669    258.38577    18914.416    4.3322759 
    2070    549.74758   -8938.6558   -8877.3307    4576.5104    18804.623    4.3229915 
    2080    542.91973   -8937.3005    -8876.737    8200.2579    18709.658     4.313564 
    2090    531.06191   -8935.3087   -8876.0679    10917.046    18635.137    4.3008514 
    2100    531.11063   -8934.6977   -8875.4515    12440.527    18584.028    4.2808061 
    2110    551.62894   -8936.5237   -8874.9887    12801.858    18556.796    4.2532415 
    2120    574.01548   -8938.7993    -8874.767    12125.107    18551.902    4.2222119 
    2130    562.16869   -8937.5356   -8874.8248    11061.266     18566.55     4.193559 
    2140    554.05635    -8936.929   -8875.1232     8727.018    18597.435    4.1712507 
    2150    566.43454   -8938.7581   -8875.5715    5255.3529    18639.765    4.1566669 
    2160    555.99069   -8938.1226    -8876.101    2200.2597     18687.59    4.1507381 
    2170     537.8023   -8936.6641   -8876.6715   -456.44646    18735.739    4.1538435 
    2180    518.20977    -8935.037   -8877.2299   -2618.6817    18780.064    4.1652082 
    2190    519.24459   -8935.6831   -8877.7606   -4671.2038    18817.301    4.1832875 
    2200    536.22286   -8938.1116   -8878.2952   -6277.1246    18844.638    4.2080366 
    2210    531.52944   -8938.1409    -8878.848   -6681.9794    18860.191    4.2407736 
    2220    526.97357   -8938.1763   -8879.3916    -6072.697    18863.969    4.2817711 
    2230    524.59129   -8938.3982   -8879.8793   -5041.0243    18857.534    4.3300687 
    2240    521.85742   -8938.4731   -8880.2591    -3318.596    18843.223    4.3827343 
    2250     529.4428   -8939.5951   -8880.5349   -1916.8639    18824.058      4.43648 
    2260    525.88335   -8939.4026   -8880.7396    -704.1971    18802.599    4.4886799 
    2270    526.29767   -8939.6052   -8880.8959    346.37156    18780.915     4.535837 
    2280    537.96857    -8941.042   -8881.0308    1454.2618    18760.719    4.5737549 
    2290     537.7936   -8941.1628   -8881.1712    2471.8799    18743.709    4.5974632 
    2300    541.26124   -8941.7307   -8881.3522    2743.8202    18731.302    4.6032753 
    2310    537.80009   -8941.5713   -8881.5789    2829.5616    18723.818    4.5935542 
    2320    529.55967   -8940.8983   -8881.8252    2958.6811    18721.273    4.5731555 
    2330     529.8942     -8941.16   -8882.0495    2496.8129    18723.626     4.544512 
    2340    534.88013   -8941.9083   -8882.2416    1739.2517    18729.989    4.5107477 
    2350    526.11389    -8941.102   -8882.4132    1418.4025    18739.113    4.4762511 
    2360     510.2587   -8939.4773   -8882.5571    1125.3915    18750.327    4.4421401 
    2370    515.91116   -8940.2209   -8882.6702    124.35558    18762.976    4.4097851 
    2380    530.88531   -8941.9842   -8882.7632   -1370.6003    18775.397      4.38152 
    2390    532.00905   -8942.2049   -8882.8585   -2275.2474    18785.295    4.3592467 
    2400      528.332     -8941.91   -8882.9737   -2163.4837    18791.299    4.3444877 
    2410    523.38731   -8941.4833   -8883.0987    -1578.517    18793.622    4.3365622 
    2420    524.21636   -8941.7001    -8883.223   -1277.3814    18793.209    4.3332092 
    2430    524.26255   -8941.8315   -8883.3492   -1205.0862    18790.633    4.3330205 
    2440    522.69299   -8941.7849   -8883.4777   -605.78098    18786.193    4.3363074 
    2450    530.11132   -8942.7492   -8883.6145    410.55667    18780.907    4.3431103 
    2460    528.92651   -8942.7614   -8883.7588    1418.4285     18776.43     4.351906 
    2470    523.50184   -8942.3159   -8883.9184    2311.2244     18774.41    4.3605224 
    2480    509.13023   -8940.8729   -8884.0787    2808.4285    18776.239    4.3677901 
    2490    502.98821   -8940.3309   -8884.2218     2741.215    18782.651    4.3712972 
    2500    504.86807   -8940.6499   -8884.3311     2300.693    18793.465    4.3703839 
    2510    521.25879   -8942.5529   -8884.4057    1222.0062    18807.796    4.3652084 
    2520    534.80794   -8944.1252   -8884.4666    160.18822    18823.886    4.3541699 
    2530    527.52682   -8943.3903   -8884.5439   -316.15078     18840.01    4.3356688 
    2540    520.04907   -8942.6465   -8884.6342   -955.77275    18855.264    4.3110715 
    2550    520.39457   -8942.7716   -8884.7208   -2110.0333    18868.525    4.2859274 
    2560    507.82235   -8941.4436   -8884.7953   -2788.0299    18878.027    4.2662816 
    2570    499.35438   -8940.5442   -8884.8405   -2620.1872     18882.77    4.2538275 
    2580    511.15794   -8941.8551   -8884.8347   -2001.5016    18883.069    4.2470936 
    2590     518.3957   -8942.6113   -8884.7835   -750.83513     18880.09    4.2434205 
    2600    509.04051   -8941.4825   -8884.6983     596.4739     18875.93     4.237558 
    2610    516.06911   -8942.1405   -8884.5722    1184.1456    18872.769    4.2255775 
    2620    541.57464   -8944.8249   -8884.4115    931.28994     18871.55    4.2086315 
    2630    538.32713   -8944.3045   -8884.2533    771.82253    18871.957     4.192908 
    2640    520.84195   -8942.2116   -8884.1109    742.33909    18873.698    4.1836002 
    2650    536.34352   -8943.7956   -8883.9657     364.8919    18876.617    4.1794196 
    2660    543.66117   -8944.4646   -8883.8184    281.16192    18880.156     4.176409 
    2670    533.94154   -8943.2475   -8883.6855    402.74535    18884.148    4.1713282 
    2680    540.20847   -8943.8276   -8883.5665    354.80224    18888.723    4.1613224 
    2690    537.53387   -8943.4215   -8883.4588    447.63693     18893.85    4.1433606 
    2700     524.7632   -8941.8972   -8883.3591     446.2302    18899.637    4.1169374 
    2710    517.76922   -8941.0003   -8883.2424   -15.067215    18906.025    4.0873453 
    2720    525.63917   -8941.7378   -8883.1019   -819.17462    18912.222    4.0631356 
    2730    519.90389   -8940.9352   -8882.9392   -1112.5507    18917.011    4.0473529 
    2740    517.76678   -8940.5113   -8882.7537    -1307.639    18919.835     4.037473 
    2750     524.5597    -8941.047   -8882.5316   -1313.8181     18920.43    4.0315623 
    2760     540.3803   -8942.5739   -8882.2937   -1084.7496    18918.825    4.0291227 
    2770    545.55918   -8942.9249   -8882.0669   -543.17168    18915.471    4.0294014 
    2780    542.30229   -8942.3594   -8881.8648    220.27665      18911.3     4.031966 
    2790    538.88646   -8941.7934   -8881.6798    748.24613    18907.534    4.0372219 
    2800    552.88685   -8943.1998   -8881.5244    787.44738     18905.01    4.0434795 
    2810    546.64607   -8942.3964   -8881.4172    997.84123    18903.881    4.0509401 
    2820    528.02787   -8940.2667   -8881.3644    1233.8419    18904.484    4.0592517 
    2830    536.76741   -8941.2143   -8881.3371    480.08827    18907.018      4.06723 
    2840    552.70738   -8942.9872   -8881.3318   -288.30946    18910.336     4.076838 
    2850    567.90675   -8944.7428   -8881.3919   -449.39337    18913.205    4.0902153 
    2860    567.78829   -8944.8931   -8881.5554   -440.21211    18915.279    4.1084313 
    2870    552.12318   -8943.4123   -8881.8221    -215.6135    18916.602    4.1270357 
    2880    554.10248   -8943.9897   -8882.1787     69.42598    18917.552    4.1389743 
    2890    558.60737   -8944.9448   -8882.6313    23.537681    18918.564    4.1419764 
    2900    564.55147   -8946.1637   -8883.1872   -462.32499    18919.553    4.1391447 
    2910     573.6207   -8947.8383   -8883.8501   -1247.4328    18919.683    4.1342449 
    2920    568.59979   -8948.0086   -8884.5804   -1585.0623    18917.777    4.1302196 
    2930    563.96952   -8948.2245   -8885.3129   -1566.2302    18913.259    4.1302227 
    2940    558.97131   -8948.3491    -8885.995    -1457.601     18906.13    4.1354076 
    2950    550.63477   -8948.0174   -8886.5932   -1248.6086    18896.628    4.1448572 
    2960     546.5423   -8948.0754   -8887.1078   -702.27785    18885.209    4.1580962 
    2970    535.64283   -8947.2981   -8887.5463   -164.97138    18872.776    4.1721547 
    2980     528.0251   -8946.8202   -8887.9182   -160.82433     18860.14    4.1804117 
    2990    527.12874    -8947.037    -8888.235   -114.08004    18847.446    4.1801376 
    3000    540.94613   -8948.8651   -8888.5217   -267.86582    18834.703    4.1758419 
    3010    560.75666   -8951.3738   -8888.8205   -384.17908    18821.679    4.1752284 
    3020    561.51192    -8951.808   -8889.1705   -71.226966    18808.267    4.1857378 
    3030    550.72943    -8951.004   -8889.5693    399.30674    18794.957    4.2095945 
    3040     540.1629   -8950.2474   -8889.9914    902.93974    18782.518     4.241956 
    3050    540.11776   -8950.6676   -8890.4166    1409.5102    18771.779     4.275915 
    3060    550.97118   -8952.3349   -8890.8733    1512.5356    18763.504    4.3083465 
    3070    546.22064   -8952.3047   -8891.3729    1303.1347    18757.832    4.3389851 
    3080    536.35861   -8951.7098   -8891.8782    784.06684    18754.368     4.371036 
    3090    550.78808   -8953.8209   -8892.3796   -225.01658    18752.168    4.4074636 
    3100    555.66999   -8954.8646   -8892.8788    -647.1179     18749.73    4.4466322 
    3110    548.34754   -8954.5347   -8893.3657   -691.61591    18746.307    4.4823634 
    3120    537.66997   -8953.8177   -8893.8398   -884.20046    18741.748    4.5103138 
    3130    535.30973   -8954.0106   -8894.2959   -1043.6109    18735.799    4.5319844 
    3140     555.7758   -8956.7556    -8894.758   -1225.6322    18728.194    4.5505819 
    3150    554.84303   -8957.1341   -8895.2405   -1007.6635    18718.718    4.5693048 
    3160    544.20295   -8956.4261   -8895.7194   -456.30597    18707.797    4.5898678 
    3170    551.53346   -8957.7152   -8896.1909    -137.8746    18696.281    4.6119239 
    3180    543.66165   -8957.3093   -8896.6631     453.8261    18684.793    4.6340182 
    3190    527.08235   -8955.9081   -8897.1112    1567.8699    18674.367    4.6544552 
    3200    532.74783   -8956.9537   -8897.5249    2236.7113    18666.658    4.6725617 
    3210    541.57744   -8958.3455   -8897.9317    2193.7359    18662.693    4.6890959 
    3220    546.26195   -8959.2948   -8898.3584     1332.439    18662.312    4.7043748 
    3230    544.59551   -8959.5586   -8898.8081   -158.84083    18664.045    4.7203888 
    3240    536.15699   -8959.0758   -8899.2667   -1838.9265    18665.446    4.7403105 
    3250    525.91411   -8958.3735    -8899.707   -2992.2348    18663.863    4.7655355 
    3260    521.29059   -8958.2598    -8900.109   -3586.5788    18657.457    4.7948853 
    3270    530.21341   -8959.6248   -8900.4787   -3791.7017    18645.318    4.8269375 
    3280    542.79341   -8961.3955   -8900.8461   -3340.3391    18627.237    4.8620469 
    3290    540.83265   -8961.5506   -8901.2199   -2174.2941    18604.087    4.8987838 
    3300    548.96003   -8962.8416   -8901.6042   -1189.7904    18577.775    4.9336068 
    3310    556.10394   -8964.0585   -8902.0243   -641.61771    18549.974    4.9666663 
    3320    547.04297   -8963.4989   -8902.4754   -41.633916    18521.686    5.0018736 
    3330    546.13499   -8963.8576   -8902.9354    591.98647    18493.905    5.0413017 
    3340    553.88217   -8965.1922   -8903.4058      1119.37    18467.637    5.0828668 
    3350    563.19733   -8966.7278   -8903.9023    1533.8173    18443.712    5.1225665 
    3360    574.09952   -8968.4943   -8904.4526     1271.335    18422.637    5.1591932 
    3370    572.37506   -8968.9137   -8905.0644    951.13518    18404.063    5.1957932 
    3380    561.18001   -8968.3034   -8905.7029    603.03002    18387.403    5.2369953 
    3390    556.33402   -8968.3874   -8906.3275    74.249211    18372.026    5.2833106 
    3400    571.29959   -8970.6709   -8906.9415   -385.59237    18357.097    5.3316462 
    3410    583.55215    -8972.667   -8907.5709    -292.5234    18341.957    5.3784748 
    3420    581.45663   -8973.0869   -8908.2246    -106.4953    18326.666    5.4232805 
    3430    566.42624   -8972.0625   -8908.8768    116.63118    18311.538    5.4700472 
    3440    575.05423   -8973.6689   -8909.5208    607.89119     18296.97    5.5230421 
    3450    594.42365   -8976.5086   -8910.1998     1075.968    18283.653    5.5833603 
    3460    592.16849   -8976.9867   -8910.9294    1466.4771    18272.316    5.6463438 
    3470    593.54884   -8977.9116   -8911.7004    1853.6315    18263.537    5.7046254 
    3480    587.47034   -8978.0342    -8912.501    2076.8079    18257.837    5.7562696 
    3490    571.26218   -8977.0161   -8913.2909    1835.6391    18255.482    5.8020212 
    3500    572.70124   -8977.9371   -8914.0514    894.34524    18255.974    5.8417227 
    3510    574.44575   -8978.8736   -8914.7933   -458.37071    18257.813    5.8758079 
    3520     570.1647   -8979.1281   -8915.5254   -1774.2652    18258.863    5.9077891 
    3530    564.49266   -8979.2147   -8916.2447   -1957.9129    18257.249    5.9418918 
    3540     566.4069   -8980.1384   -8916.9549   -1736.0607    18252.619    5.9781279 
    3550    571.26989   -8981.3994   -8917.6734    -1674.653    18245.334    6.0144137 
    3560    569.31187   -8981.9154   -8918.4078    -1670.141    18235.553    6.0494671 
    3570    569.21411   -8982.6478   -8919.1511   -1370.9742    18223.378    6.0827203 
    3580    573.75954   -8983.9149   -8919.9112   -687.70502    18209.321     6.113169 
    3590    568.63579   -8984.1184   -8920.6863    651.55559    18194.535    6.1367912 
    3600    556.52213   -8983.5297   -8921.4488    2092.8812    18181.055    6.1478934 
    3610    557.28378   -8984.3673   -8922.2015    3084.3487    18171.032    6.1426256 
    3620     562.5187   -8985.7113   -8922.9615    3747.4382    18165.972    6.1219539 
    3630     567.1473   -8987.0044   -8923.7382    3740.2878    18166.758    6.0917213 
    3640    553.57939   -8986.2434   -8924.4908    3375.8546    18173.324    6.0595937 
    3650    555.50578   -8987.1763   -8925.2088    2928.2188    18185.059    6.0286421 
    3660    561.22792    -8988.533   -8925.9271    2453.8282    18201.187    5.9946212 
    3670    536.01989   -8986.4135   -8926.6197    2467.5599    18220.951    5.9556534 
    3680    531.46103   -8986.5366   -8927.2513    2178.5056    18244.205    5.9157648 
    3690    558.95184   -8990.2097   -8927.8578    890.16614    18270.311    5.8821312 
    3700    565.68518    -8991.578    -8928.475   -185.57363    18297.327    5.8617445 
    3710    555.84833   -8991.1208    -8929.115   -540.68796    18323.576    5.8548071 
    3720     544.7236   -8990.5173   -8929.7526   -866.80661    18348.399    5.8545154 
    3730    550.87626   -8991.8316   -8930.3805   -1528.6542    18371.254    5.8517318 
    3740     558.9038   -8993.3625    -8931.016   -2074.1038     18391.19    5.8422631 
    3750    558.47413   -8993.9639   -8931.6653    -2869.232    18407.341    5.8300819 
    3760    565.33872   -8995.3884    -8932.324   -4307.3362    18418.427    5.8221794 
    3770    579.80659   -8997.7175   -8933.0392   -5493.2638    18422.371    5.8232151 
    3780    571.42282   -8997.5755   -8933.8324   -5573.0116    18417.582    5.8338108 
    3790     569.4031   -8998.1936   -8934.6758   -5328.6127    18403.997    5.8517958 
    3800    581.64488   -9000.4528   -8935.5694   -4745.0395    18382.264    5.8773921 
    3810    580.94391   -9001.3015   -8936.4964   -3917.3549    18353.517    5.9110479 
    3820    571.13972   -9001.1233   -8937.4118   -2328.9513    18319.399    5.9518018 
    3830    561.20016   -9000.8576   -8938.2548   -245.80817    18282.597    5.9983091 
    3840    565.60798   -9002.1241   -8939.0297    1540.1493     18246.39    6.0481526 
    3850    572.01143   -9003.5887     -8939.78    2932.7328    18213.609    6.0988261 
    3860    571.93349   -9004.3319   -8940.5318    3579.3299    18186.271    6.1489785 
    3870    587.64645   -9006.8618   -8941.3089    3393.9121     18165.19    6.1997867 
    3880    619.90153   -9011.3336   -8942.1827     2357.549    18149.854    6.2529387 
    3890     623.3165   -9012.7273   -8943.1954    1960.1955    18138.712    6.3084134 
    3900    591.60628     -9010.25   -8944.2554    2335.3629    18131.061    6.3617844 
    3910    562.07727   -9007.9398   -8945.2393    1645.8966    18127.099    6.4072803 
    3920    577.88242   -9010.6162   -8946.1525   -489.61909    18125.599    6.4434461 
    3930    598.23647   -9013.8265   -8947.0923   -2864.6659    18123.327    6.4750644 
    3940      571.284   -9011.7751   -8948.0475   -3466.5578    18116.968     6.509354 
    3950    560.34761   -9011.4523   -8948.9447   -3824.0471    18105.448    6.5513801 
    3960    593.07493   -9016.0215   -8949.8631   -4857.2362    18088.227    6.6014109 
    3970    604.12414   -9018.2886   -8950.8977   -4923.4077    18064.121    6.6569003 
    3980    586.25916   -9017.3911    -8951.993   -3438.8426    18033.307    6.7148798 
    3990    578.76772   -9017.6129   -8953.0505   -1832.4294    17998.078    6.7723086 
    4000    580.90163   -9018.8547   -8954.0543   -673.54718    17960.999    6.8308607 
    4010    574.57979   -9019.1066   -8955.0114     296.7144    17923.998     6.895453 
    4020    576.48872   -9020.2446   -8955.9364    459.42909    17888.478    6.9687115 
    4030    589.81428   -9022.6751   -8956.8804    422.89434    17854.738    7.0491382 
    4040    593.53035   -9024.0604   -8957.8512    937.80218    17822.793    7.1297834 
    4050    586.53216   -9024.2588   -8958.8302     1892.399     17793.36    7.2034884 
    4060    577.04605   -9024.1573    -8959.787    2938.1996    17767.725    7.2642267 
    4070    576.60776   -9025.0473   -8960.7259    3702.1133     17747.27     7.307376 
    4080    577.15317   -9026.0468   -8961.6645    3920.5955    17732.904     7.333019 
    4090    587.05723   -9028.1072   -8962.6201    3467.8297    17724.689    7.3450205 
    4100    607.39413   -9031.3957     -8963.64    2821.6614    17721.838    7.3494152 
    4110    606.72689   -9032.4067   -8964.7254    2624.6207    17723.346    7.3509732 
    4120    618.87128   -9034.9003   -8965.8643    1993.4706    17728.635    7.3496764 
    4130    648.86338   -9039.5039   -8967.1222    980.46619    17736.673    7.3455907 
    4140    641.75009   -9040.0865   -8968.4983    580.76242     17746.04    7.3393561 
    4150    614.53371   -9038.4168   -8969.8647   -18.734599    17755.977    7.3306746 
    4160     617.8925   -9040.0928   -8971.1659   -1468.8904    17765.517    7.3232605 
    4170    632.93719   -9043.0759   -8972.4708    -3591.307    17772.508    7.3250252 
    4180    648.68685   -9046.2033   -8973.8413   -5235.0352    17774.012    7.3394184 
    4190    663.44253   -9049.3552   -8975.3472   -5605.6218    17767.813    7.3660119 
    4200    648.87815   -9049.3175   -8976.9341   -4707.5158    17753.596    7.4047354 
    4210    639.45302   -9049.8466   -8978.5147   -3342.7707    17732.793    7.4494123 
    4220    639.42126   -9051.3803   -8980.0519   -1911.6687    17707.577    7.4927482 
    4230    654.26547   -9054.5922   -8981.6079   -1281.8742    17680.093    7.5271625 
    4240    644.47128   -9055.0853   -8983.1936    24.426266    17651.588    7.5498184 
    4250    634.44356   -9055.5073   -8984.7342    2294.7144    17624.046    7.5631677 
    4260    627.84377   -9056.2612   -8986.2243    4063.7479    17600.562    7.5675777 
    4270    629.52977   -9057.9282   -8987.7032    4462.2894      17583.5    7.5606728 
    4280    616.79869   -9057.9887   -8989.1839    3923.1251    17573.321    7.5430099 
    4290    591.32786   -9056.5482   -8990.5847    3124.5975    17569.127    7.5199635 
    4300    591.36974   -9057.8561    -8991.888    1826.3244    17569.545    7.4953158 
    4310    605.12245   -9060.6582   -8993.1559    707.41832    17572.627     7.469655 
    4320    610.05732   -9062.5001   -8994.4473    462.09323    17576.783    7.4439754 
    4330    607.22753   -9063.5076   -8995.7704    121.64823     17581.45    7.4226213 
    4340    607.80611   -9064.9054   -8997.1037   -360.58164    17586.146    7.4092398 
    4350    604.76787   -9065.9054   -8998.4426   -1074.9745    17590.162     7.406852 
    4360     614.6822   -9068.3613   -8999.7926   -2099.5585    17592.442    7.4146909 
    4370    628.80802   -9071.3594   -9001.2149   -2712.4244    17591.646    7.4307493 
    4380    612.51385   -9071.0108    -9002.684   -2498.4589    17587.028    7.4576003 
    4390    608.47126   -9072.0169    -9004.141   -3155.8146    17578.724    7.4985597 
    4400    604.25882   -9072.9873   -9005.5813   -3402.7703    17566.119    7.5529493 
    4410     619.1455      -9076.1   -9007.0333   -3237.0977    17548.944    7.6154874 
    4420    634.61547    -9079.357   -9008.5647   -2519.2802    17527.615    7.6865388 
    4430    631.11241   -9080.5508   -9010.1492   -945.50385    17503.353    7.7661992 
    4440    641.16169   -9083.2792   -9011.7567    745.03731    17478.436    7.8507065 
    4450    640.83338   -9084.8721   -9013.3862    2279.2301     17455.32    7.9391786 
    4460    637.97571   -9086.1623   -9014.9951    3261.4575    17436.098    8.0302886 
    4470    685.37865   -9093.1621    -9016.707    3002.7226    17421.955    8.1195346 
    4480    696.11757   -9096.3173   -9018.6644    3115.6623    17412.599    8.2052868 
    4490    655.00169   -9093.7495   -9020.6831    3895.6835    17408.055    8.2893385 
    4500      644.073   -9094.4652   -9022.6179    3639.0926    17409.073    8.3731949 
    4510    655.31671   -9097.6039   -9024.5024    2200.6838      17415.1    8.4588787 
    4520    649.92628   -9098.7986   -9026.2983    766.15037    17424.083    8.5453468 
    4530    650.88889   -9100.6076   -9027.9999     -586.488    17433.843    8.6252523 
    4540    660.15457   -9103.3398   -9029.6986   -1969.2233    17442.384    8.6936247 
    4550    656.95106   -9104.7381   -9031.4542   -3322.5278    17447.818    8.7545767 
    4560    653.59935   -9106.1668   -9033.2568   -5309.4175    17448.192    8.8130212 
    4570     660.8237   -9108.8342   -9035.1183   -6041.1221    17441.152    8.8676092 
    4580    666.79175     -9111.45   -9037.0684   -5650.4689     17425.83    8.9178004 
    4590    653.15163   -9111.9069   -9039.0469   -4229.0433    17403.145    8.9686353 
    4600    638.69127   -9112.2201   -9040.9731   -2669.7382    17375.269    9.0198143 
    4610    630.85078    -9113.181   -9042.8086   -1076.3169     17344.69    9.0660211 
    4620    638.27022   -9115.8325   -9044.6325    -75.55221    17313.637    9.1010127 
    4630    622.81819   -9115.8835   -9046.4072     813.9969    17283.635    9.1206853 
    4640    639.06835    -9119.463   -9048.1739    955.64189    17255.798    9.1227981 
    4650    647.42363   -9122.2173   -9049.9962    1433.4086    17230.406    9.1125893 
    4660    621.20112   -9121.0743   -9051.7784    2578.7883    17208.053    9.0958206 
    4670    610.97887     -9121.58   -9053.4244    3543.6641    17190.142    9.0748706 
    4680    620.31998   -9124.2088   -9055.0112    3673.9458    17177.776    9.0529573 
    4690     623.6829    -9126.183   -9056.6102    2873.7214    17170.891    9.0332569 
    4700    622.78793   -9127.7202   -9058.2473    2051.1988    17168.268    9.0147385 
    4710    608.55912   -9127.7821   -9059.8965    1813.6838    17168.635    8.9928621 
    4720    600.15782   -9128.4336   -9061.4851    2222.3617    17171.637    8.9651209 
    4730    620.88642   -9132.3481   -9063.0873    1389.5301     17177.43    8.9321639 
    4740    604.47848   -9132.1321   -9064.7017    776.13253    17185.015    8.8985864 
    4750    577.09999   -9130.5988   -9066.2224    198.41154     17193.45    8.8679959 
    4760    565.15412   -9130.6643   -9067.6205   -486.14139    17201.852    8.8410471 
    4770    581.60938   -9133.8332   -9068.9538   -1457.9835    17209.235    8.8185043 
    4780    613.58818   -9138.8007    -9070.354   -2906.5408    17214.253    8.8030449 
    4790    601.23693    -9138.909   -9071.8401   -3045.6706    17215.244    8.7920699 
    4800    577.18156   -9137.6839   -9073.2984   -2773.3815    17212.022    8.7806602 
    4810    583.57588   -9139.8187   -9074.7199   -3202.4838    17204.954    8.7676098 
    4820    592.30382   -9142.2502   -9076.1779   -3210.6534    17193.691    8.7554515 
    4830    568.60259   -9141.0296   -9077.6011   -1775.8126    17178.499    8.7433771 
    4840    560.40993   -9141.4099   -9078.8953   -120.52071    17161.393    8.7304688 
    4850    585.72223   -9145.4807   -9080.1425    551.96058    17144.543      8.72157 
    4860    583.14315   -9146.4616   -9081.4111    2356.8706    17129.198    8.7206358 
    4870    562.85489   -9145.4385   -9082.6512    3937.9302    17117.605    8.7268776 
    4880    564.07461   -9146.7873    -9083.864    4183.0628    17111.684    8.7382525 
    4890    564.42588   -9148.0495   -9085.0869    3786.4239    17111.647    8.7519069 
    4900    542.42009   -9146.7919   -9086.2841    3709.2889    17116.907    8.7658972 
    4910    535.60677   -9147.1678   -9087.4201    3355.3188    17127.122    8.7775808 
    4920    527.00703   -9147.2689   -9088.4805    2527.7865    17141.624    8.7835718 
    4930    512.23001   -9146.5529   -9089.4129    1075.1353    17159.142    8.7832461 
    4940    517.28511   -9147.9248   -9090.2209   -1496.7323    17177.507    8.7824915 
    4950    538.64693   -9151.0676   -9090.9808   -4206.9493    17193.238     8.785418 
    4960    525.94359   -9150.4137   -9091.7439   -5737.0077    17202.795    8.7926118 
    4970     495.9019   -9147.7794   -9092.4608   -6176.5047    17204.226    8.8050403 
    4980    495.48283   -9148.3898    -9093.118   -5913.8666    17197.072    8.8241676 
    4990    506.50234   -9150.2262   -9093.7251   -4291.0156    17182.047    8.8495495 
    5000    523.17439   -9152.6521   -9094.2912   -2240.9782    17161.509    8.8765938 
Loop time of 2218.46 on 16 procs for 3000 steps with 864 atoms

Performance: 0.117 ns/day, 205.413 hours/ns, 1.352 timesteps/s
96.3% CPU use with 16 MPI tasks x 1 OpenMP threads

MPI task timing breakdown:
Section |  min time  |  avg time  |  max time  |%varavg| %total
---------------------------------------------------------------
Pair    | 425.37     | 1199.2     | 2213.9     |1589.0 | 54.06
Bond    | 0.00025606 | 0.00057787 | 0.0011199  |   0.0 |  0.00
Neigh   | 0.021678   | 0.065043   | 0.24057    |  20.3 |  0.00
Comm    | 1.8246     | 657.78     | 1610.5     |1918.7 | 29.65
Output  | 0.37288    | 0.37755    | 0.4466     |   2.9 |  0.02
Modify  | 2.1715     | 360.98     | 815.99     |1563.1 | 16.27
Other   |            | 0.0147     |            |       |  0.00

Nlocal:        54.0000 ave          85 max          23 min
Histogram: 3 2 1 0 2 2 0 1 2 3
Nghost:        543.938 ave         752 max         343 min
Histogram: 4 0 0 1 3 2 2 0 2 2
Neighs:         0.00000 ave           0 max           0 min
Histogram: 16 0 0 0 0 0 0 0 0 0
FullNghs:      3041.50 ave        6077 max         665 min
Histogram: 5 1 0 2 1 1 2 0 2 2

Total # of neighbors = 48664
Ave neighs/atom = 56.324074
Ave special neighs/atom = 0.0000000
Neighbor list builds = 300
Dangerous builds = 300
Setting up Verlet run ...
  Unit style    : metal
  Current step  : 5000
  Time step     : 0.001
Per MPI rank memory allocation (min/avg/max) = 8.895 | 8.912 | 8.921 Mbytes
Step Temp PotEng TotEng Press Volume c_msd[4] 
    5000    523.17439   -9152.6521   -9094.2912   -2240.9782    17161.509    8.8765938 
    5010    527.76104   -9153.1719   -9094.2994   -1894.6854    17159.976    8.8894147 
    5020    505.24677   -9150.6622   -9094.3011    -410.1621    17155.947    8.9052919 
    5030    515.76874   -9151.8081   -9094.2733    511.94613    17151.249    8.9231442 
    5040    532.99911   -9153.6756   -9094.2188    703.40934    17147.205    8.9412151 
    5050    532.30042   -9153.5556   -9094.1767    484.84337    17144.103    8.9589088 
    5060     522.7661   -9152.4685   -9094.1531     16.99707    17141.625    8.9729406 
    5070    506.62414   -9150.6373   -9094.1226     205.9436     17139.23    8.9811283 
    5080    500.12046   -9149.8326   -9094.0434    353.63714    17137.119    8.9829318 
    5090    536.25207   -9153.7321   -9093.9123   -676.28117    17135.335     8.978395 
    5100    541.26737   -9154.1453   -9093.7661    -956.0934    17132.704    8.9724024 
    5110    519.00144   -9151.5342   -9093.6388   -374.39865    17128.803    8.9687419 
    5120    518.38009   -9151.3245   -9093.4984     -378.077    17124.248    8.9673872 
    5130    527.17503    -9152.127   -9093.3199   -664.33561    17119.126    8.9696556 
    5140    526.19784   -9151.8063   -9093.1081   -892.68561    17113.057    8.9809995 
    5150    547.54775   -9153.9502   -9092.8704    -1169.029    17105.711    8.9975376 
    5160     564.1362   -9155.5692   -9092.6389   -489.69746    17096.844     9.017182 
    5170    540.72822   -9152.7556   -9092.4365    1210.4191    17087.421    9.0374287 
    5180    557.10296   -9154.4104   -9092.2647    1595.5772    17079.486    9.0525268 
    5190    563.45978   -9154.9901   -9092.1353    1592.3998    17073.723    9.0603359 
    5200    547.39205   -9153.1431   -9092.0807    1634.9565    17070.165    9.0607169 
    5210    540.17108   -9152.3404   -9092.0835    1241.4317    17068.835    9.0543827 
    5220    553.36817   -9153.8612   -9092.1322    331.95409    17069.165    9.0407848 
    5230    568.93114   -9155.7219   -9092.2568   -435.65414    17069.995    9.0245893 
    5240    563.88183   -9155.4025   -9092.5006   -835.57281     17070.27    9.0127276 
    5250     546.1659    -9153.783   -9092.8574   -614.61712     17069.45    9.0086293 
    5260    551.91222    -9154.887   -9093.3203   -740.53183    17067.709    9.0140616 
    5270     557.4022   -9156.0719   -9093.8928   -991.80722    17064.908    9.0248597 
    5280    551.30248   -9156.0461   -9094.5475   -406.94497     17060.81     9.036495 
    5290    567.22058    -9158.533   -9095.2587   -90.974697    17056.058    9.0451184 
    5300    553.31869   -9157.6913   -9095.9677    182.55713    17051.159    9.0519528 
    5310    533.04157   -9156.0606   -9096.5991    186.87453    17046.458     9.055874 
    5320    534.62948   -9156.7566   -9097.1178   -357.46691    17041.918     9.057213 
    5330    561.93671   -9160.2656   -9097.5807   -798.67464    17036.868    9.0599013 
    5340    557.86407    -9160.266   -9098.0354   -284.79826    17030.818    9.0671914 
    5350    542.38009   -9158.9723   -9098.4689    306.61364    17024.312    9.0790819 
    5360    550.20467   -9160.2588   -9098.8827    253.38679    17018.094     9.094058 
    5370    547.31925   -9160.3513    -9099.297    362.00203    17012.189    9.1104502 
    5380     525.2033   -9158.2772     -9099.69    707.68066    17006.769    9.1251983 
    5390    530.11019    -9159.182   -9100.0474    715.88224    17002.247    9.1374203 
    5400    539.81139   -9160.6086   -9100.3918    298.00292    16998.622    9.1489807 
    5410    539.61826   -9160.9403   -9100.7451     -341.062    16995.379    9.1607751 
    5420    542.58376    -9161.637   -9101.1109   -824.86087    16991.663    9.1703125 
    5430    551.11625   -9162.9836   -9101.5057   -672.56379    16986.864    9.1763298 
    5440    538.10767    -9161.955   -9101.9282    -187.4641    16981.093    9.1794938 
    5450    524.63625   -9160.8549    -9102.331    535.29481    16975.068     9.179079 
    5460    539.88716   -9162.9344   -9102.7092     346.9269    16969.601    9.1748255 
    5470    532.26735   -9162.4452   -9103.0699    260.24779    16964.607    9.1683634 
    5480    529.54754   -9162.4888    -9103.417   -380.48231    16959.857    9.1614733 
    5490    544.52268   -9164.5148   -9103.7725    -1301.297    16954.492    9.1594034 
    5500    542.92069   -9164.7162   -9104.1525    -925.2154    16947.486     9.162847 
    5510    533.80805   -9164.0915   -9104.5444    -370.6847     16939.15    9.1652192 
    5520    537.13411   -9164.8507   -9104.9325   -233.80074    16930.183    9.1619173 
    5530    541.32721    -9165.716   -9105.3302   -293.37113    16920.774    9.1557499 
    5540    526.01762    -9164.399   -9105.7209   -227.81416    16910.885    9.1510329 
    5550    519.64973   -9164.0518   -9106.0841   -337.38367    16900.559    9.1467229 
    5560    515.02062   -9163.8566   -9106.4053    31.200533    16889.745    9.1418387 
    5570    517.47196     -9164.41   -9106.6852    859.18491    16878.928     9.136082 
    5580    516.02708   -9164.4868   -9106.9232    1310.9699    16869.156    9.1320639 
    5590    519.29192    -9165.067   -9107.1392    1104.2443    16860.987    9.1335666 
    5600    510.09141   -9164.2254   -9107.3239     1227.851    16854.312    9.1438648 
    5610    532.68807    -9166.915   -9107.4928    581.90219    16849.145    9.1634365 
    5620    556.42019   -9169.7624   -9107.6929   -19.398663    16844.726    9.1930733 
    5630    535.03127   -9167.6289   -9107.9453    170.37703    16840.336    9.2342236 
    5640    527.22374    -9167.022   -9108.2094    42.822819    16836.089    9.2813674 
    5650    538.82501   -9168.5854   -9108.4786   -288.26907    16831.829    9.3282624 
    5660     524.9378   -9167.3183   -9108.7607    44.802595    16827.223    9.3756918 
    5670    507.52051   -9165.6364   -9109.0218    401.22894    16822.632    9.4240318 
    5680     516.7165   -9166.8956   -9109.2551     58.56113    16818.459    9.4710318 
    5690    514.79416   -9166.8943   -9109.4682   -967.72137    16814.235    9.5173106 
    5700    503.46249   -9165.8107   -9109.6487   -1448.7619    16808.721    9.5612278 
    5710    486.76312   -9164.0562   -9109.7571   -1041.0117     16801.29    9.5983163 
    5720    503.98184   -9166.0185   -9109.7985   -958.18275    16792.312    9.6300127 
    5730    512.69396   -9166.9894   -9109.7976   -932.05528    16781.971    9.6669741 
    5740    514.81877   -9167.2106   -9109.7818   -898.06931    16770.269    9.7153446 
    5750    519.21028   -9167.6615   -9109.7428  -0.61788364    16757.351    9.7704458 
    5760    512.89541   -9166.8886   -9109.6744    1473.5688    16744.379    9.8256842 
    5770    512.81522   -9166.7763    -9109.571    2527.3749    16733.178    9.8753425 
    5780     516.4906   -9167.0429   -9109.4276    3674.3983    16725.298     9.911555 
    5790    513.54656   -9166.5433   -9109.2564    3820.7657    16722.173    9.9287473 
    5800    504.27826   -9165.3079   -9109.0549    2766.5269    16724.003    9.9286017 
    5810    489.91365   -9163.4456    -9108.795    1582.1431    16729.589    9.9142712 
    5820    516.78044   -9166.1157   -9108.4681   -106.98096    16737.321    9.8898475 
    5830    540.90009   -9168.4253   -9108.0871   -1523.3137    16745.048    9.8614103 
    5840    543.65522   -9168.3594   -9107.7138   -1904.4404    16750.964     9.831321 
    5850    555.40744   -9169.3372   -9107.3807   -2588.2032    16754.287    9.7996706 
    5860    530.75805   -9166.3053   -9107.0984     -1915.82    16754.327    9.7720464 
    5870    508.97163   -9163.6178   -9106.8413   -1328.6995    16751.775    9.7500024 
    5880    529.42406   -9165.6246   -9106.5665    -1818.821    16747.236    9.7323937 
    5890    512.32948   -9163.4237   -9106.2726   -1525.5669    16740.276    9.7186019 
    5900    504.38262   -9162.2276    -9105.963   -1159.4405    16731.177    9.7062601 
    5910    527.48598   -9164.4573   -9105.6154   -1079.7112    16720.362    9.6923994 
    5920    552.36705   -9166.8802   -9105.2628    -406.2855    16708.041    9.6808744 
    5930    548.32906   -9166.1289    -9104.962    1549.0547     16695.21    9.6781144 
    5940    536.75817   -9164.6062     -9104.73    3654.0071    16684.348     9.684418 
    5950    538.15965   -9164.6036   -9104.5711    4560.4241    16678.085    9.6981402 
    5960    534.08467   -9164.0586   -9104.4806    4208.8762    16677.722    9.7180031 
    5970    532.25597   -9163.8095   -9104.4356    2359.3204    16682.803    9.7409883 
    5980    539.41787   -9164.5779   -9104.4051    380.24391    16691.088    9.7665692 
    5990     530.5256   -9163.5545   -9104.3735   -238.24954    16700.189    9.7975437 
    6000    527.46443   -9163.1791   -9104.3397   -673.49292    16709.079    9.8353548 
    6010    536.11369   -9164.0975   -9104.2932   -861.39441    16717.208    9.8795261 
    6020    546.09159   -9165.1761   -9104.2588   -1260.5658     16724.24    9.9260466 
    6030    546.80771   -9165.2669   -9104.2697   -1908.9123    16729.636    9.9683165 
    6040    532.30961   -9163.7001   -9104.3202   -2440.3188    16732.585    10.001196 
    6050    534.53072   -9164.0363   -9104.4086   -2708.5303    16732.324    10.022946 
    6060    517.17183   -9162.1985   -9104.5072   -2030.6635    16728.523    10.039779 
    6070    531.36577   -9163.8774   -9104.6028   -1020.7077    16721.985    10.057061 
    6080    547.10599   -9165.7435    -9104.713    225.50226    16714.041      10.0747 
    6090    534.35005   -9164.4497   -9104.8422    1123.4326    16706.298    10.088938 
    6100    541.80918   -9165.4171   -9104.9774    748.79584     16699.81    10.093049 
    6110    544.00305   -9165.8021   -9105.1177     869.1569    16694.329    10.088159 
    6120    523.32028   -9163.6312    -9105.254     1377.146     16690.03    10.078709 
    6130    518.65409   -9163.2225   -9105.3659    549.13991    16687.345    10.065292 
    6140    524.04389   -9163.9095   -9105.4516   -144.69257    16685.392    10.048742 
    6150    521.09778   -9163.6387   -9105.5095   -316.50711    16683.341    10.033084 
    6160    553.59639   -9167.3255    -9105.571   -1072.5478    16680.786    10.021445 
    6170    558.93768   -9168.0243    -9105.674   -771.75163    16676.926    10.017355 
    6180    541.31088   -9166.2092   -9105.8251    570.04717    16672.139     10.02446 
    6190    530.02991   -9165.1154   -9105.9898    1645.4474    16668.027    10.039942 
    6200    521.65018   -9164.3339    -9106.143      1940.94     16665.98    10.057459 
    6210    520.85577   -9164.3715   -9106.2692    1578.6871     16666.43    10.072724 
    6220     535.9149   -9166.1562   -9106.3741    971.96769    16668.997    10.083232 
    6230    551.24448   -9167.9928   -9106.5007    345.09816    16672.907    10.088675 
    6240    512.00652   -9163.7606   -9106.6455    251.10934    16677.413    10.089566 
    6250    497.45958   -9162.2487   -9106.7563    111.90035    16682.352    10.084458 
    6260    533.63927   -9166.3566   -9106.8284   -1217.0535    16687.368    10.071879 
    6270    534.78408   -9166.5576   -9106.9016   -2176.4814    16690.871      10.0541 
    6280    525.99107   -9165.6689   -9106.9938   -2719.1378    16691.554    10.034485 
    6290    547.91004   -9168.2331   -9107.1129   -3611.4244    16688.508    10.019516 
    6300    546.12888   -9168.2067   -9107.2852   -2482.8363     16680.81    10.017768 
    6310    535.97042   -9167.2849   -9107.4966   -56.264042    16669.807    10.031928 
    6320    546.38952   -9168.6846    -9107.734    970.77301    16658.345    10.055979 
    6330    533.37131   -9167.4969   -9107.9985    2340.9794    16648.086    10.079878 
    6340    519.21389   -9166.1754   -9108.2563    3694.1715    16640.822    10.093285 
    6350     541.4289   -9168.9236   -9108.5264    3124.4529    16638.128    10.090565 
    6360    543.93072   -9169.5219   -9108.8456    3023.0631    16639.632    10.076429 
    6370    521.01867   -9167.3127   -9109.1923    3005.8322    16645.177    10.059587 
    6380    527.47777   -9168.3819    -9109.541    1515.6982    16654.674      10.0422 
    6390    524.41461   -9168.3636   -9109.8644   -1044.5868    16666.266    10.022476 
    6400    531.42425   -9169.4423   -9110.1612   -3576.2233    16676.669    9.9987663 
    6410    535.02928    -9170.141   -9110.4577   -4354.1793    16682.701    9.9705091 
    6420    511.44234   -9167.8024   -9110.7502    -3182.124    16683.262    9.9385752 
    6430    509.78475   -9167.8739   -9111.0066   -2553.2345    16679.452    9.9036956 
    6440    507.73424   -9167.8483   -9111.2098   -1601.6922     16672.18    9.8691047 
    6450    495.78249   -9166.6424   -9111.3371    231.73815    16662.749    9.8382317 
    6460    512.51292    -9168.563   -9111.3914    928.67264     16653.29    9.8106382 
    6470    522.25308   -9169.6704   -9111.4123    1692.1436    16644.918    9.7867781 
    6480    497.90012   -9166.9492   -9111.4077    3579.7069    16638.836    9.7690475 
    6490    513.26957   -9168.6299   -9111.3739    4630.4499    16637.325    9.7538014 
    6500    543.49775   -9171.9683   -9111.3403     4852.698     16641.91    9.7314573 
    6510    531.09377   -9170.5965   -9111.3522    4772.2084    16653.053    9.6960827 
    6520    511.49448   -9168.4472   -9111.3893    4153.2909    16670.767    9.6474912 
    6530    519.80386   -9169.3885   -9111.4036    2188.1798    16694.301    9.5888852 
    6540    522.14769   -9169.6159   -9111.3695   -677.26901    16721.152    9.5320042 
    6550    509.19321    -9168.088   -9111.2867   -2728.4687    16747.733    9.4893659 
    6560    525.73587   -9169.8161   -9111.1695   -4518.9288    16771.147    9.4646895 
    6570    533.72689    -9170.587   -9111.0489   -5058.8855    16789.016    9.4580147 
    6580    527.65949   -9169.8285   -9110.9673   -4580.8405    16800.449    9.4668579 
    6590    523.99626   -9169.3719   -9110.9194   -3994.8587    16805.876    9.4867338 
    6600    512.54399    -9168.063    -9110.888   -3360.5602     16805.95    9.5178393 
    6610    504.17038   -9167.0836   -9110.8426    -2694.415    16801.421    9.5618557 
    6620    523.38744   -9169.1447     -9110.76   -1933.8789     16793.17    9.6156911 
    6630    538.59396   -9170.7287   -9110.6477   -1429.8802    16782.113    9.6731861 
    6640    525.59204   -9169.1614   -9110.5308   -1020.8911    16768.944     9.729397 
    6650    538.58258   -9170.5085   -9110.4288   -909.43184     16754.15    9.7800981 
    6660    550.17701   -9171.7338   -9110.3607    243.43411    16738.045    9.8200797 
    6670     540.1515   -9170.5994   -9110.3447    1971.6816    16722.094    9.8439389 
    6680    544.43657   -9171.1236   -9110.3909    3295.0461    16708.496    9.8508218 
    6690     535.1995   -9170.2065   -9110.5042    4577.2167    16699.152    9.8437876 
    6700    520.98572   -9168.7793   -9110.6626    5005.4869    16695.735     9.821365 
    6710    521.46792   -9168.9992   -9110.8286    3610.1142    16698.777    9.7811106 
    6720    518.43638   -9168.8015   -9110.9692    1442.0592    16706.673    9.7277919 
    6730    521.21024   -9169.2328    -9111.091   -646.10778    16716.663     9.671194 
    6740    512.75225   -9168.4171   -9111.2189   -1818.0009    16726.039    9.6202915 
    6750    520.45519   -9169.4511   -9111.3936   -2680.6292    16733.107     9.580109 
    6760    539.69621   -9171.8814   -9111.6775   -3194.6248    16736.688    9.5545214 
    6770    523.01098    -9170.439   -9112.0963   -2508.6185     16736.15    9.5458416 
    6780    522.44914   -9170.9136   -9112.6336    -847.0894    16732.328    9.5544443 
    6790     511.7961   -9170.3307   -9113.2391    1684.6696    16727.459     9.577253 
    6800    495.14361   -9169.0562   -9113.8222    2643.1537    16724.617    9.6078158 
    6810    515.08156   -9171.8315   -9114.3734    1481.7083    16725.051    9.6425467 
    6820    500.39406   -9170.6847    -9114.865    939.64282    16727.603    9.6798991 
    6830    499.31763   -9170.9639   -9115.2642    317.26376    16731.423    9.7147537 
    6840    519.17241   -9173.5076   -9115.5931   -115.64648    16735.769    9.7443083 
    6850    509.36622   -9172.6836    -9115.863    217.17133    16740.127    9.7703163 
    6860    522.41373   -9174.3632   -9116.0872    192.39159    16744.771    9.7952199 
    6870    520.06301   -9174.2999   -9116.2861     255.3307    16749.739    9.8186637 
    6880    493.30423   -9171.4748    -9116.446    1052.4146    16755.221    9.8372519 
    6890    509.53054   -9173.3989     -9116.56    1350.3786    16762.112     9.845292 
    6900     520.8262    -9174.747    -9116.648    1291.8514    16770.879    9.8397254 
    6910    500.09517   -9172.5067   -9116.7203    1067.6575    16781.529    9.8215328 
    6920    494.01585   -9171.8464   -9116.7381   -776.59388    16793.572    9.7933909 
    6930    514.56233    -9174.082   -9116.6818   -3181.0558    16804.638    9.7625693 
    6940    495.37973   -9171.8354   -9116.5751   -3133.9114    16811.858    9.7378728 
    6950     482.8586   -9170.2853   -9116.4217   -2447.2329    16814.981    9.7217894 
    6960     512.0589   -9173.3254   -9116.2044   -2350.7172    16814.724    9.7115954 
    6970    502.25692   -9171.9541   -9115.9266    -1304.658     16811.38    9.7052034 
    6980     497.2816   -9171.0665    -9115.594   -98.871319    16806.251    9.7019563 
    6990    520.87045   -9173.3032   -9115.1993   -150.97376     16800.76    9.6988378 
    7000    525.92873   -9173.4533   -9114.7851    57.183064    16795.054     9.692786 
    7010    515.17735    -9171.862   -9114.3932    886.85141    16789.454    9.6842261 
    7020    523.58671   -9172.4178    -9114.011     1347.514    16784.987    9.6764345 
    7030    541.70987   -9174.0792   -9113.6506    894.78244    16782.186    9.6688022 
    7040    528.57573   -9172.3029   -9113.3394    947.88922    16780.667    9.6572165 
    7050    532.38693   -9172.4746    -9113.086    684.33284    16780.343    9.6377458 
    7060    526.81371   -9171.6415   -9112.8746    589.92969    16780.957    9.6091991 
    7070    512.03702   -9169.8149   -9112.6964    912.89075    16782.462    9.5723938 
    7080    522.46731   -9170.7947   -9112.5127    495.76829    16785.149    9.5299218 
    7090    540.67333   -9172.6311   -9112.3182   -515.67995    16788.488    9.4858696 
    7100    530.80661   -9171.3501   -9112.1378    -852.2997    16791.273     9.446644 
    7110    524.57217   -9170.5042   -9111.9874   -1197.4783    16792.914    9.4192363 
    7120     511.4768   -9168.9096   -9111.8536   -1457.8335    16792.967    9.4082152 
    7130    504.81547   -9168.0353   -9111.7224   -967.31101    16791.136    9.4129501 
    7140    519.13265   -9169.4846   -9111.5746   -167.03072     16787.99     9.432108 
    7150    533.85556   -9170.9832   -9111.4308    825.24289    16784.599    9.4627427 
    7160    518.06321    -9169.089   -9111.2983    2063.2745    16782.357    9.4958098 
    7170    522.45324   -9169.4531   -9111.1727    1496.1556    16782.638    9.5226157 
    7180    526.79791   -9169.7976   -9111.0325     528.8925    16784.946    9.5438324 
    7190    544.41764   -9171.6229   -9110.8923   -736.74335    16787.957    9.5638699 
    7200    569.92544   -9174.3766   -9110.8006    -1793.665    16790.043    9.5876251 
    7210     537.9105   -9170.7918   -9110.7871   -1356.3484    16789.914    9.6181966 
    7220    533.92781   -9170.3835    -9110.823   -888.63059     16787.92    9.6531753 
    7230    538.02349   -9170.9107   -9110.8934   -233.13826    16784.754    9.6913522 
    7240    503.54177   -9167.1457   -9110.9749     182.5853    16781.233    9.7298678 
    7250    519.86002    -9169.031   -9111.0398   -1090.9103    16777.693    9.7641596 
    7260    533.79099   -9170.6344   -9111.0892   -1729.3464    16772.711    9.7978197 
    7270    520.42797   -9169.1805    -9111.126   -1074.5544     16765.51     9.834759 
    7280    534.68837   -9170.8032   -9111.1579   -428.96945    16756.779     9.873597 
    7290    513.60711   -9168.4835   -9111.1899    1063.6966    16747.526    9.9110216 
    7300    490.46283   -9165.9118   -9111.1999    2072.0685    16739.593    9.9413888 
    7310     520.5809   -9169.2449   -9111.1733    1492.8639    16734.214    9.9610208 
    7320     535.7767   -9170.8962   -9111.1295    556.72907    16730.793    9.9702463 
    7330     537.4378   -9171.0536   -9111.1016    21.638799     16728.14    9.9733756 
    7340    528.75949    -9170.073   -9111.0891    346.33915    16725.565    9.9737812 
    7350    502.40543   -9167.1092   -9111.0652    1083.8272    16723.507    9.9700414 
    7360    525.67743   -9169.6461    -9111.006    353.33769    16722.709    9.9618901 
    7370    551.77459   -9172.4775   -9110.9262   -275.36142    16722.382    9.9556645 
    7380      537.136   -9170.7963    -9110.878    177.31949    16721.856    9.9550051 
    7390    535.54231    -9170.611   -9110.8705    -144.0105    16721.466    9.9563852 
    7400    531.37902   -9170.1661     -9110.89   -703.71488    16720.872    9.9595674 
    7410     527.3337   -9169.7622   -9110.9373   -1505.7378    16719.312    9.9670235 
    7420    531.45311   -9170.2958   -9111.0114   -2118.1167    16715.741    9.9802185 
    7430    533.62102   -9170.6479   -9111.1217   -2069.1178    16709.383    9.9993652 
    7440    544.63469   -9172.0288    -9111.274   -2240.2281    16700.175    10.024002 
    7450    552.65333   -9173.1522   -9111.5029   -2750.1669    16687.858    10.052339 
    7460    515.92286   -9169.3387   -9111.7867   -2215.7186    16671.929    10.079468 
    7470    506.03564   -9168.5065   -9112.0574   -1298.9981    16652.979     10.10291 
    7480     515.9821   -9169.8552   -9112.2966     193.3466    16632.244    10.124534 
    7490    511.32864   -9169.5243   -9112.4848    1863.7509    16611.689    10.143721 
    7500    538.52461   -9172.7393   -9112.6661    2295.6687    16593.335     10.15967 
    7510    528.17395   -9171.7862   -9112.8676    3498.5102    16578.061    10.175779 
    7520    505.93879   -9169.5042    -9113.066    4210.0056      16567.3    10.194138 
    7530    530.58575   -9172.4569   -9113.2693    3266.9976    16561.833    10.212089 
    7540    522.20969   -9171.7464   -9113.4931    3443.1013    16560.803    10.226986 
    7550    508.48297   -9170.4456   -9113.7235    3223.3748    16564.244      10.2366 
    7560    526.65237   -9172.6984   -9113.9496    1521.5981    16571.774    10.241886 
    7570    519.85234   -9172.1581   -9114.1678     929.0103    16581.525    10.249336 
    7580    512.20289   -9171.5036   -9114.3665    498.04939     16592.59    10.263626 
    7590    529.60009    -9173.627   -9114.5493   -851.83245    16604.237    10.284011 
    7600     515.1569   -9172.1769   -9114.7104   -1654.3633    16614.887    10.307268 
    7610    508.90664   -9171.6056   -9114.8363   -2801.4612    16623.358     10.32974 
    7620    530.26231   -9174.0964   -9114.9448   -4272.6292    16628.138    10.350874 
    7630    522.88258   -9173.4012   -9115.0729   -4595.2776    16627.421    10.375003 
    7640    513.76851   -9172.5247    -9115.213   -3842.1571    16620.735    10.407529 
    7650    539.53921   -9175.5462   -9115.3598   -2410.7707    16609.014    10.452149 
    7660    526.04176   -9174.1954   -9115.5146    281.92454    16594.218    10.506236 
    7670    503.89631   -9171.8519   -9115.6415    2711.2296    16579.717    10.557954 
    7680    519.50943   -9173.6891    -9115.737    3216.8555    16568.509    10.595518 
    7690     522.6303   -9174.1309   -9115.8307    3005.3265    16561.425    10.615029 
    7700    523.08143   -9174.2954   -9115.9449    2552.8588     16558.24    10.618578 
    7710    526.20213   -9174.7798   -9116.0812    2223.1144    16558.409    10.609999 
    7720    513.30334   -9173.4922   -9116.2324    2520.3173    16561.612    10.589311 
    7730    510.59819   -9173.3279   -9116.3699    1830.1854    16568.031    10.553055 
    7740    516.72744   -9174.1141   -9116.4723     127.1068    16576.794    10.502671 
    7750    511.06807   -9173.5459   -9116.5355   -1605.0167    16585.774    10.446974 
    7760    517.87075   -9174.3437   -9116.5744   -2766.6546    16592.744    10.395597 
    7770    516.00201   -9174.1613   -9116.6005   -3046.2285    16596.213    10.356848 
    7780    510.31439   -9173.5443    -9116.618   -3073.4678    16595.703    10.335036 
    7790    503.01658   -9172.7162   -9116.6039   -2712.8623    16591.184    10.328082 
    7800    504.08017   -9172.7801   -9116.5492   -2113.5964    16583.109    10.330163 
    7810      513.986   -9173.7826   -9116.4467   -1610.1685    16572.218    10.338758 
    7820    528.66203   -9175.2837   -9116.3107   -823.59551    16559.197    10.354085 
    7830    517.45796    -9173.872   -9116.1488    747.13634    16545.133    10.375243 
    7840    507.30407   -9172.5304   -9115.9399    2196.3549    16531.967    10.397958 
    7850    516.27261   -9173.2477   -9115.6567     3008.203    16521.571    10.417546 
    7860    518.01228   -9173.0959   -9115.3108    3360.1963    16515.027    10.430069 
    7870    512.24011   -9172.0603   -9114.9191    3575.7618    16512.847    10.434933 
    7880    516.69716   -9172.1145   -9114.4762    3397.6205    16515.309    10.434944 
    7890    533.80705   -9173.5339   -9113.9869    2184.4008    16522.097    10.432737 
    7900    526.32827   -9172.2017    -9113.489    1243.5066    16531.829    10.429017 
    7910    523.25863   -9171.3948   -9113.0245    398.06892    16543.245    10.419541 
    7920    533.84824   -9172.1411   -9112.5895   -464.93065    16555.223    10.403102 
    7930    538.48053   -9172.2753   -9112.2069   -1310.7692    16566.661    10.383423 
    7940    538.07661   -9171.9228   -9111.8995    -2627.682    16576.389    10.363932 
    7950    532.52044   -9171.0595   -9111.6561   -3766.1275    16582.723    10.350148 
    7960    535.57438    -9171.203   -9111.4588   -4237.4908    16584.188    10.343684 
    7970    523.07384   -9169.6436   -9111.2939   -3347.2624     16580.22    10.342242 
    7980    514.94941   -9168.5808   -9111.1375   -1709.5087    16571.921    10.344651 
    7990    540.27316   -9171.2351   -9110.9668   -904.25238    16561.258    10.352064 
    8000    564.86705   -9173.8314   -9110.8196    120.74556    16549.442     10.36608 
    8010    540.37177   -9171.0084   -9110.7291    2075.0795    16537.908    10.385628 
    8020    543.17573    -9171.283   -9110.6909    3145.5995    16528.985    10.405107 
    8030    559.82244   -9173.1709   -9110.7219    2382.8925    16523.958    10.420426 
    8040    549.31681   -9172.1149   -9110.8378     1410.715     16522.04    10.428726 
    8050    545.08286   -9171.8224   -9111.0176     429.6543    16521.949    10.428618 
    8060     537.0255   -9171.1457   -9111.2397   -303.95641     16522.45    10.422254 
    8070    517.30663   -9169.1778   -9111.4714    424.46337     16522.73    10.413408 
    8080    530.79916    -9170.917   -9111.7056    1743.3704    16523.577    10.402582 
    8090     535.0337   -9171.6357   -9111.9518    3004.9551    16526.688    10.390422 
    8100     528.7853   -9171.1948    -9112.208    3489.5243    16533.653    10.379672 
    8110    538.29594   -9172.5052   -9112.4575     2697.296    16545.053    10.372677 
    8120    544.27318   -9173.4288   -9112.7143    1147.9674    16559.952    10.370106 
    8130    534.44675   -9172.5959   -9112.9776   -727.33049    16576.361    10.372466 
    8140    537.01669   -9173.1485   -9113.2435   -2135.7606    16591.912     10.37885 
    8150     531.1513   -9172.7726   -9113.5218    -2506.282    16604.806    10.389039 
    8160    518.74137   -9171.6535   -9113.7871   -2496.5888    16614.478    10.404521 
    8170    525.79511   -9172.6822    -9114.029   -3270.9118    16620.788    10.421196 
    8180    531.42978    -9173.547   -9114.2652   -4089.6196    16622.767    10.432714 
    8190    531.93525   -9173.8417   -9114.5036   -4267.5601    16619.397    10.438904 
    8200    536.12804   -9174.5477   -9114.7419   -3462.7369    16610.501    10.445136 
    8210    522.78769   -9173.2689   -9114.9512   -1391.6346    16597.196    10.456911 
    8220    525.32113   -9173.7103   -9115.1099    712.22821    16582.042    10.473692 
    8230    532.32593   -9174.6181   -9115.2363    2480.5998    16567.809    10.491599 
    8240    522.67586   -9173.6425   -9115.3372    3538.3597    16556.754    10.504695 
    8250    541.29461   -9175.8255   -9115.4433    3405.9503    16550.187    10.507649 
    8260    537.45067   -9175.5255    -9115.572    3064.9691    16548.086    10.499334 
    8270    521.94051   -9173.9406   -9115.7174    2483.0533    16549.972    10.481774 
    8280    516.56178   -9173.4704   -9115.8471    2147.9471    16555.145    10.458491 
    8290    518.07978   -9173.7417   -9115.9491    1921.9657    16563.161    10.432157 
    8300    528.64633   -9175.0005   -9116.0292    929.64016    16573.633    10.402499 
    8310    533.10117   -9175.5619   -9116.0937   -258.55077    16585.334    10.368939 
    8320    526.31166   -9174.8589    -9116.148   -970.61788    16596.798    10.331833 
    8330    528.88174   -9175.1913   -9116.1938   -2129.1397    16606.952    10.293362 
    8340    511.02324   -9173.2323   -9116.2269   -2924.2935    16614.361    10.261457 
    8350    502.27122   -9172.2629   -9116.2338   -3197.6878    16617.959    10.241728 
    8360    530.81184   -9175.4363   -9116.2234   -3529.2216    16617.297    10.236256 
    8370    529.17305   -9175.2556   -9116.2255   -3042.5861    16612.039    10.243654 
    8380    503.86421   -9172.4373   -9116.2305   -1129.9625    16602.937    10.257996 
    8390    512.74747   -9173.3955   -9116.1977    61.990694     16592.23     10.27386 
    8400    541.53041   -9176.5507   -9116.1421    229.30488    16581.456    10.288843 
    8410    544.55339   -9176.8571   -9116.1113     908.0466    16571.029    10.300613 
    8420    527.38577   -9174.9391   -9116.1084     2418.843    16561.865    10.308073 
    8430     525.0498   -9174.6819   -9116.1118    3593.9723    16555.808    10.311069 
    8440    532.33049   -9175.5131   -9116.1308    3592.9553    16554.305    10.307958 
    8450    508.87161   -9172.9328   -9116.1674    3328.7944    16557.511    10.297746 
    8460    498.78004   -9171.8186   -9116.1789    2623.7152    16565.085    10.278744 
    8470    532.39528   -9175.5336   -9116.1442    806.29139    16576.011    10.252517 
    8480    539.53133   -9176.2777   -9116.0921    -490.4801    16588.141    10.225023 
    8490    524.95234   -9174.6205   -9116.0613   -1362.2989     16599.73    10.199065 
    8500    514.56133   -9173.4293   -9116.0292    -2224.599    16609.592     10.17704 
    8510    521.81849   -9174.1871   -9115.9775   -2987.3883    16616.561    10.163878 
    8520     533.8114   -9175.4659   -9115.9184    -2715.548    16619.738    10.162094 
    8530    517.27249   -9173.5634   -9115.8609   -688.14803    16619.567    10.168996 
    8540    505.96698   -9172.2206   -9115.7792    1094.8168    16618.445    10.177695 
    8550    529.35192   -9174.6967   -9115.6467    1326.0211    16618.569    10.183107 
    8560    546.75472   -9176.4663    -9115.475    1272.2142    16620.482    10.184557 
    8570    562.56638   -9178.0737   -9115.3186    450.97837    16624.002    10.183717 
[...]
   22890    524.94492   -9235.3901   -9176.8317    3310.1126    16089.187    15.366248 
   22900      531.045   -9236.6136   -9177.3747    2379.6482    16090.388    15.358355 
   22910    546.73289   -9238.9415   -9177.9526     1192.515    16094.461    15.361053 
   22920    536.61784   -9238.4031   -9178.5426    529.84504    16100.035    15.373112 
   22930    518.56106   -9236.9182   -9179.0719   -508.80692    16106.163    15.389055 
   22940    533.45651   -9239.0306   -9179.5227   -2666.1116    16111.481    15.407712 
   22950    520.55255   -9237.9703   -9179.9019   -3795.0935    16113.575    15.430795 
   22960    503.02916   -9236.3252   -9180.2115   -2922.5999    16111.186    15.457901 
   22970    495.44483   -9235.7135   -9180.4459   -1126.4163    16105.342    15.487646 
   22980    484.03882   -9234.5736   -9180.5783    625.01571    16098.183    15.519274 
   22990    505.11533   -9236.9723    -9180.626    1012.9727    16091.702    15.551092 
   23000     505.5973   -9237.0103   -9180.6102    1182.6079    16086.524    15.580332 
   23010    499.63406   -9236.2863   -9180.5514    1657.5931    16082.938    15.602805 
   23020    515.92491   -9238.0089   -9180.4567    1244.4208    16081.318    15.620078 
   23030    522.87646   -9238.6708   -9180.3431    717.69743    16081.246    15.635676 
   23040    519.45824   -9238.1783   -9180.2319    95.013639    16082.022     15.64912 
   23050    512.17323   -9237.2485   -9180.1148    22.175436    16082.987    15.659046 
   23060    503.21488   -9236.1033   -9179.9689   -24.135363    16083.989    15.668424 
   23070    512.71613   -9236.9786   -9179.7843   -1053.9689    16084.823    15.681309 
   23080    521.17196   -9237.7071   -9179.5696   -2395.1878     16084.33    15.696233 
   23090    501.60685   -9235.2993   -9179.3443   -2552.5125     16081.02    15.712945 
   23100    494.26027   -9234.2232   -9179.0877   -1662.5478    16074.747    15.736228 
   23110    519.15469   -9236.6901   -9178.7776   -1234.8886    16066.463     15.76812 
   23120    529.51536   -9237.5102   -9178.4419   -413.64591    16056.801    15.803824 
   23130    530.35982    -9237.284   -9178.1216    1310.6071    16046.844    15.841849 
   23140    523.47026    -9236.218   -9177.8241    2661.8436    16038.583    15.884456 
   23150    515.67435   -9235.0727   -9177.5485     2752.966    16033.557    15.931436 
   23160    526.90476   -9236.0615   -9177.2844    1726.2456    16031.834    15.977647 
   23170    548.15104   -9238.1814   -9177.0343    677.12492    16032.243    16.015285 
   23180    530.32847   -9235.9828   -9176.8238    400.39515    16033.553    16.046056 
   23190    518.63331   -9234.4991   -9176.6447    68.063948     16035.33    16.079626 
   23200    525.05307   -9235.0392   -9176.4688   -765.33702    16037.125     16.11834 
   23210    523.89157   -9234.7442   -9176.3033   -1611.6744    16037.968    16.159041 
   23220    525.10098   -9234.7309   -9176.1551   -2072.7847    16036.868    16.200521 
   23230    526.75732   -9234.7775   -9176.0169   -1389.1653     16033.39    16.239879 
   23240    534.05121   -9235.4569   -9175.8827   -297.86931    16028.293    16.270699 
   23250    547.64551   -9236.8551   -9175.7644   -59.020709    16022.807    16.293178 
   23260    530.34876   -9234.8439   -9175.6827   -209.71723    16017.286    16.313483 
   23270    522.20283   -9233.8859   -9175.6334   -365.01935    16011.589    16.333677 
   23280    537.08061   -9235.5152    -9175.603   -828.54513    16005.506    16.352628 
   23290    549.38771   -9236.8873   -9175.6023   -978.40771    15998.546    16.369664 
   23300    536.14705   -9235.4454   -9175.6374    393.60949    15990.702    16.386271 
   23310    534.95406   -9235.3683   -9175.6934    1675.5484    15983.428    16.401637 
   23320    534.16116   -9235.3604   -9175.7739    1914.2562     15978.15    16.418293 
   23330    524.55688   -9234.3797   -9175.8646    1519.7385    15975.218    16.438541 
   23340    547.50341   -9237.0554   -9175.9806   -6.8451826     15974.03    16.463692 
   23350    535.07955   -9235.8227   -9176.1337   -705.52247    15972.955     16.49258 
   23360    528.64029   -9235.2919   -9176.3213   -677.30925    15971.083    16.517983 
   23370    521.59759   -9234.7084   -9176.5234   -449.39313    15968.406    16.535578 
   23380    500.21035   -9232.5004   -9176.7012   -376.99976    15965.216    16.549629 
   23390     525.8343   -9235.5158   -9176.8582   -1442.1287    15961.453    16.563935 
   23400    533.34671   -9236.5205   -9177.0249   -2147.2955    15956.053    16.585317 
   23410    518.55383   -9235.0708   -9177.2253   -1885.1514    15948.234    16.619496 
   23420    510.93381   -9234.4319   -9177.4365   -1174.8489    15938.266    16.664925 
   23430    514.19468   -9235.0003   -9177.6411   -240.76117    15927.038     16.71353 
   23440    524.79454   -9236.4055   -9177.8639    745.78263     15915.68    16.756591 
   23450    519.59251   -9236.0867   -9178.1254     2171.098     15905.43    16.789484 
   23460    512.88022   -9235.6558   -9178.4433    3793.9178    15897.933    16.809762 
   23470    508.88553   -9235.5981   -9178.8312     4877.662    15895.059    16.817556 
   23480    514.55142   -9236.7082   -9179.3092    4182.0702    15897.876    16.815349 
   23490    514.88082   -9237.2969   -9179.8612    2840.0559    15905.637     16.80972 
   23500     513.2713   -9237.7088   -9180.4526    842.92591    15916.653    16.807117 
   23510    495.72804   -9236.3198   -9181.0206   -1143.1595    15928.557    16.809944 
   23520    494.58616    -9236.691   -9181.5192   -3106.7193    15938.901    16.817407 
   23530    514.64537   -9239.3798   -9181.9703   -3595.5618    15945.521    16.828609 
   23540    522.33069   -9240.6732   -9182.4065   -2422.3608    15947.875    16.839958 
   23550    508.93319   -9239.5857   -9182.8134   -598.13517    15947.361    16.845993 
   23560    500.83327   -9239.0256   -9183.1569   -167.65888    15945.983    16.844055 
   23570     511.6051    -9240.502   -9183.4317   -729.46117    15944.311    16.833116 
   23580    511.10326   -9240.6729   -9183.6585   -708.37892    15941.835     16.81319 
   23590    496.21207     -9239.19   -9183.8368    347.36094     15938.68    16.785385 
   23600     493.8232   -9239.0246   -9183.9379    746.48953     15935.93    16.749071 
   23610    500.41387   -9239.7787   -9183.9568    863.99893    15934.112    16.704591 
   23620    502.48846   -9239.9533   -9183.8999    1288.1182    15933.377    16.653845 
   23630    494.09405   -9238.8832   -9183.7663    1667.9287    15934.206     16.60147 
   23640    492.78523   -9238.5364   -9183.5655    1463.0003    15936.971    16.555339 
   23650    501.02361   -9239.2002   -9183.3102    1013.7573    15941.441    16.525225 
   23660    508.19888   -9239.7217   -9183.0313    423.78626    15947.006    16.515244 
   23670    494.44671   -9237.8984   -9182.7421    664.71211    15953.079    16.521531 
   23680    490.93917   -9237.2003   -9182.4353    331.65158     15959.77    16.539547 
   23690     513.6898   -9239.3953   -9182.0925   -580.30842    15966.661     16.56631 
   23700    510.79549   -9238.7103   -9181.7303   -505.40518    15972.825    16.600665 
   23710    507.31102   -9237.9612   -9181.3699   -477.74922    15978.238    16.639192 
   23720    513.54992   -9238.2961   -9181.0088   -1201.3152    15982.878    16.675715 
   23730    495.88733   -9235.9798   -9180.6628   -905.92551    15986.125    16.705185 
   23740    504.29734   -9236.5891    -9180.334   -991.23477     15988.13    16.729516 
   23750    528.51325   -9238.9715   -9180.0151   -937.52125    15988.919    16.756108 
   23760    520.37277   -9237.7915   -9179.7431    39.238623    15988.672     16.78623 
   23770    495.58458   -9234.7887   -9179.5055    879.21526    15988.478    16.810524 
   23780    504.71814   -9235.5603   -9179.2583    197.09877    15989.186    16.820188 
   23790    510.92838   -9235.9813   -9178.9865   -40.564422    15990.192    16.816204 
   23800    515.19521   -9236.1942   -9178.7234    693.87172    15991.258    16.799309 
   23810    535.32846   -9238.2052   -9178.4885    1221.9081    15993.111    16.766784 
   23820    529.10309   -9237.3237   -9178.3015    2230.3097    15996.511    16.724537 
   23830    521.11554   -9236.2873   -9178.1561    2292.4946    16002.467     16.68241 
   23840    536.43807   -9237.8694   -9178.0289    1259.9408    16010.929    16.643329 
   23850     526.0483    -9236.601   -9177.9195     1101.308    16020.864    16.605424 
   23860    513.49889   -9235.0951   -9177.8135    250.89079     16031.85    16.568021 
   23870    519.40709    -9235.615   -9177.6744   -1320.2563    16042.817    16.534511 
   23880    530.83966   -9236.7309    -9177.515   -1939.0018    16052.054    16.505593 
   23890    519.54157   -9235.3046    -9177.349   -1632.6121    16058.847    16.482178 
   23900    515.74168   -9234.7048    -9177.173    -1418.084     16063.48    16.469102 
   23910    520.23368   -9235.0177   -9176.9848   -1246.4816    16066.271    16.472006 
   23920    538.12531   -9236.8371   -9176.8084   -1396.6585     16067.42    16.489631 
   23930    538.47393   -9236.7289   -9176.6613   -1057.7139    16066.918     16.51762 
   23940    540.92953   -9236.9027   -9176.5612   -235.27583    16065.196    16.547697 
   23950    550.89591   -9237.9641   -9176.5108    497.24378    16063.216    16.571332 
   23960    531.42993    -9235.788   -9176.5062    1158.1924    16061.898    16.583877 
   23970    515.18045   -9233.9772    -9176.508     1269.453    16061.989     16.58559 
   23980    525.12404   -9235.0636   -9176.4853    312.05292    16063.515     16.58005 
   23990    517.07475   -9234.1176   -9176.4371    51.249518    16065.491    16.569627 
   24000    504.38937   -9232.6292   -9176.3638    1000.0764    16067.642    16.555759 
   24010     514.3522   -9233.6398   -9176.2631    2045.8057    16070.991     16.53963 
   24020    529.25433   -9235.1864   -9176.1473    2440.7584    16076.696    16.522071 
   24030    529.34954   -9235.0821   -9176.0324    2549.0103    16085.234    16.502661 
   24040    532.98106   -9235.3787   -9175.9238    2380.2511    16096.706    16.477911 
   24050     536.8298   -9235.6946   -9175.8104    1602.4519    16110.799    16.444519 
   24060    523.86922   -9234.1248   -9175.6864    637.27084    16126.562    16.400003 
   24070    523.81236   -9233.9642   -9175.5321   -895.20878    16142.716    16.346392 
   24080    540.02897   -9235.5723   -9175.3312   -3161.7657    16157.325    16.294778 
   24090    541.02528   -9235.4724   -9175.1202    -4091.779    16167.879    16.258724 
   24100    529.59464   -9234.0155   -9174.9384     -3700.71    16173.276    16.242129 
   24110    516.41503   -9232.3654   -9174.7585   -2458.1187    16174.093    16.237136 
   24120    529.44759    -9233.612   -9174.5514   -1656.4272    16171.799    16.234468 
   24130    545.97528   -9235.2147   -9174.3104   -1131.2341    16167.479     16.23261 
   24140    555.42669   -9236.0375   -9174.0788    12.397292    16161.906    16.235216 
   24150    541.38369   -9234.2671   -9173.8749     1977.634     16156.57     16.24014 
   24160    550.45844   -9235.1053   -9173.7008    3069.4969     16153.69    16.241673 
   24170    553.93777   -9235.3598   -9173.5672    3620.3795    16154.638    16.239042 
   24180    533.49695   -9233.0029   -9173.4905    3686.0943    16159.995    16.233283 
   24190    537.86006   -9233.4452   -9173.4461    2937.3218    16169.738    16.224591 
   24200    549.21735   -9234.6898   -9173.4238    2467.4743    16183.002    16.213572 
   24210    551.53298   -9234.9752   -9173.4508    1976.4166    16199.118    16.197212 
   24220    561.56927   -9236.1901   -9173.5462    315.05607    16217.281    16.171896 
   24230    549.74968   -9235.0393   -9173.7139   -1559.7293    16235.485    16.142437 
   24240    541.92484   -9234.3985    -9173.946    -3420.077    16251.423    16.118424 
   24250    538.96754   -9234.3587    -9174.236   -5466.4992    16262.776    16.103598 
   24260    527.90359   -9233.4814    -9174.593   -6539.3739    16267.167    16.098566 
   24270    529.90795   -9234.1269   -9175.0148    -6008.287    16263.419    16.104272 
   24280    520.36664   -9233.5069   -9175.4592   -3611.1204    16252.416    16.120363 
   24290    522.23673   -9234.1312   -9175.8749   -1058.0235    16237.111    16.140968 
   24300    546.15127   -9237.2021   -9176.2781    756.60068    16220.709    16.162296 
   24310    544.29054   -9237.4252   -9176.7088    2109.6788    16205.496    16.189021 
   24320    535.54777   -9236.8952    -9177.154    3280.6015    16193.188    16.224828 
   24330    530.31168   -9236.7416   -9177.5846    4052.2314    16185.183    16.266466 
   24340    520.02061   -9235.9899   -9177.9808     3839.445    16182.248    16.307801 
   24350    536.51066   -9238.1969   -9178.3483    2737.4832    16184.023    16.343758 
   24360    533.75485   -9238.2468   -9178.7057    2130.5938    16189.224    16.370108 
   24370    512.76625    -9236.229   -9179.0292    1781.2562    16197.037    16.384041 
   24380    534.64252   -9238.9597   -9179.3196    185.34184    16206.801    16.388471 
   24390    517.62378   -9237.2972   -9179.5555   -1356.2364    16216.708    16.394965 
   24400    506.31988   -9236.2075   -9179.7267   -3456.9843    16224.702    16.410649 
   24410    516.36879    -9237.449   -9179.8473   -4790.0121    16228.362    16.436857 
   24420    516.75836   -9237.5939   -9179.9488   -5149.6659    16226.069    16.473562 
   24430    526.43084   -9238.7776   -9180.0534   -4569.1599     16217.45    16.520338 
   24440    533.75319   -9239.7083   -9180.1673   -2880.2787    16203.357    16.570279 
   24450    516.54024   -9237.8954   -9180.2746   -1046.3255    16185.898    16.617479 
   24460    518.42864   -9238.1976   -9180.3661   -71.971859    16167.283    16.663632 
   24470    526.21389   -9239.1398   -9180.4398    1294.5732    16148.923    16.711941 
   24480    513.37596   -9237.7476   -9180.4797    3674.1513     16132.56    16.759623 
   24490    516.22077   -9238.0643   -9180.4791    6043.7445    16121.002    16.801148 
   24500    528.26426   -9239.4019   -9180.4732    6196.9476    16116.848    16.835596 
   24510    521.49229   -9238.6705   -9180.4973    4476.3708    16120.214     16.86539 
   24520    508.17759   -9237.2063   -9180.5183    1863.5434    16128.983    16.893556 
   24530    515.77554   -9238.0305   -9180.4949   -1256.5992    16139.884    16.920402 
   24540    522.79849   -9238.7505   -9180.4315   -3853.1394    16149.144    16.944094 
   24550    540.15155   -9240.6257    -9180.371   -5426.4864    16153.608    16.966829 
   24560    546.32104   -9241.3017   -9180.3588   -5390.6405    16151.444    16.994603 
   24570    522.94825   -9238.7317    -9180.396   -3341.2108    16142.825    17.030971 
   24580    504.62383   -9236.7122   -9180.4207   -543.27992    16130.229    17.070854 
   24590    505.87739   -9236.8237   -9180.3924    1673.9955    16117.033     17.10626 
   24600    515.44682   -9237.8043   -9180.3054    2837.8211    16105.976    17.131353 
   24610    535.86755   -9239.9652   -9180.1884    2187.5288    16098.364    17.141648 
   24620    530.77249   -9239.2799   -9180.0714    497.53711    16093.429    17.137625 
   24630     521.9877   -9238.1908   -9179.9622   -1423.9789    16089.146    17.126608 
   24640    516.49558   -9237.4595   -9179.8436   -2544.4944    16083.241    17.122576 
   24650    510.01921    -9236.587   -9179.6936   -1929.9536    16074.454    17.134873 
   24660    524.30006   -9237.9728   -9179.4864   -52.782918    16063.516    17.161422 
   24670    534.81902   -9238.8759   -9179.2161     2051.379    16052.651    17.198016 
   24680    532.75398   -9238.3437   -9178.9142    3630.9789    16044.374    17.239935 
   24690     521.4857   -9236.7573   -9178.5848    4219.6123    16040.541    17.280043 
   24700    521.12326   -9236.3461    -9178.214    3273.8703    16041.754    17.313094 
   24710    536.66835   -9237.6679   -9177.8017    1019.3625     16046.84    17.339749 
   24720    546.59626   -9238.3455   -9177.3719   -1243.8585    16053.154    17.365284 
   24730    547.79672   -9238.0785   -9176.9709   -2744.0116    16057.977     17.39229 
   24740     538.2016   -9236.6564   -9176.6192   -2955.4607    16059.543    17.420235 
   24750    532.18105    -9235.674   -9176.3084   -2469.2751    16057.552    17.448562 
   24760    523.12366   -9234.3708   -9176.0156   -2336.0538    16052.521    17.475956 
   24770    531.66934   -9235.0447   -9175.7362   -2754.6271    16044.597     17.50178 
   24780    546.19639     -9236.41    -9175.481   -2547.6741    16033.421    17.529543 
   24790    532.85856   -9234.7052    -9175.264    -1063.768    16019.373     17.56159 
   24800    540.20689   -9235.3332   -9175.0723    160.17755    16004.083    17.598276 
   24810    555.60022    -9236.886   -9174.9079    1436.1132    15989.072    17.639052 
   24820    551.38249   -9236.2992   -9174.7916    3482.9403     15976.04    17.678792 
   24830    552.55564   -9236.3818   -9174.7434    4395.0401    15967.215    17.708328 
   24840    549.56166   -9236.0699   -9174.7654     3756.194    15963.612     17.72311 
   24850    563.81126   -9237.7603   -9174.8663    1883.2145    15964.491    17.724634 
   24860    560.49659   -9237.5766   -9175.0523   -290.04434    15967.649    17.719198 
   24870    537.05483   -9235.2236   -9175.3143   -1474.0437    15970.551    17.718715 
   24880     537.0036    -9235.527   -9175.6234   -2377.2981    15971.653    17.733074 
   24890    556.21057   -9238.0483   -9176.0022   -3326.8949    15969.835     17.76631 
   24900    538.49167   -9236.5276   -9176.4581   -2874.4526    15964.149    17.821193 
   24910    528.41606   -9235.8851   -9176.9395   -2053.7718    15955.011    17.894236 
   24920    542.68622   -9237.9593   -9177.4219   -608.42963      15943.5    17.974695 
   24930    547.60467   -9238.9851   -9177.8989    1417.6101    15931.358    18.051117 
   24940    546.31454   -9239.3038   -9178.3616    3372.4238    15921.013    18.115425 
   24950    533.44211   -9238.2929   -9178.7866    4102.2621    15914.696    18.161457 
   24960    527.92091   -9238.0524   -9179.1621    3433.3672    15913.246    18.193106 
   24970    525.20095   -9238.0625   -9179.4756    2029.4747     15915.86    18.221436 
   24980    520.13598   -9237.7377   -9179.7158    211.29014     15920.88    18.251316 
   24990    526.82485   -9238.6548   -9179.8867   -2341.4936     15926.05    18.276993 
   25000    525.21102   -9238.6063   -9180.0182   -3899.9366     15928.48    18.294327 
Loop time of 13872.1 on 16 procs for 20000 steps with 864 atoms

Performance: 0.125 ns/day, 192.668 hours/ns, 1.442 timesteps/s
96.0% CPU use with 16 MPI tasks x 1 OpenMP threads

MPI task timing breakdown:
Section |  min time  |  avg time  |  max time  |%varavg| %total
---------------------------------------------------------------
Pair    | 2349.7     | 8049.6     | 13579      |4635.0 | 58.03
Bond    | 0.0023694  | 0.0048742  | 0.0078492  |   2.8 |  0.00
Neigh   | 0.1328     | 0.38345    | 0.63213    |  29.8 |  0.00
Comm    | 24.437     | 4715.8     | 10110      |5193.3 | 33.99
Output  | 1.4126     | 1.4536     | 1.8191     |   7.8 |  0.01
Modify  | 266.29     | 1104.8     | 4790.5     |4282.2 |  7.96
Other   |            | 0.09841    |            |       |  0.00

Nlocal:        54.0000 ave          81 max          24 min
Histogram: 4 1 1 0 0 0 3 2 3 2
Nghost:        573.312 ave         797 max         368 min
Histogram: 2 2 2 0 1 3 3 1 0 2
Neighs:         0.00000 ave           0 max           0 min
Histogram: 16 0 0 0 0 0 0 0 0 0
FullNghs:      3122.25 ave        5734 max         715 min
Histogram: 5 1 0 0 0 3 1 1 4 1

Total # of neighbors = 49956
Ave neighs/atom = 57.819444
Ave special neighs/atom = 0.0000000
Neighbor list builds = 2000
Dangerous builds = 2000
Total wall time: 4:53:26
