LAMMPS data file via write_data, version 2 Aug 2023, timestep = 80000, units = metal

1536 atoms
3 atom types

-2.0384262034356073 26.96903844833325 xlo xhi
-0.5947614524064893 25.525373697304545 ylo yhi
-2.491071503622578 77.28290823831469 zlo zhi

Masses

1 35.44999999088069
2 39.09829998994218
3 6.939999998214724

Atoms # full

1064 0 1 -1 -0.48526167990835245 1.7419736069878744 -0.9867010788493047 0 1 0
770 0 2 1 7.070855366815977 1.0588652715638114 0.38769704918635606 0 0 0
574 0 1 -1 5.429472938425733 -0.001395458320935461 -2.4266282602584868 -1 0 1
1047 0 1 -1 10.616781583316534 -0.5106525804499652 -0.6085372503334345 0 1 1
1161 0 3 1 12.858508187675039 0.9939820829690558 -2.4022991341852604 0 0 0
1057 0 2 1 15.366248504836433 2.2822587158614427 0.5624606791745133 0 1 0
391 0 1 -1 20.005545148992134 1.6369821719027815 -0.9646538126479838 -1 0 0
290 0 2 1 17.720752453930977 2.643574364284104 -2.1339771908476175 -1 1 0
298 0 2 1 23.064854314298458 -0.309110786014876 0.246284154591756 -1 1 0
1327 0 1 -1 3.1662888970218654 4.904943070617246 -1.3386884502315273 0 0 1
775 0 1 -1 8.791262990118526 4.1234194388505205 0.2689215449314406 0 0 0
781 0 1 -1 12.807961700129912 3.5509119789783385 -0.24879145575971595 0 0 0
960 0 1 -1 16.525488615364303 4.947485969065332 -0.29495191704133816 0 1 1
9 0 2 1 22.37878512814695 3.639890866514892 -1.294902828300879 -1 0 0
12 0 2 1 26.688953933494837 3.7122936453901865 -1.3973050534845701 -1 0 0
583 0 1 -1 25.06283239768917 5.1596204013262135 0.047655085337348524 -1 0 0
283 0 2 1 1.1662352936948222 7.586092941789573 -2.3226508017012746 0 1 1
388 0 2 1 4.546884402121349 7.6211249258962575 0.34830699739417215 0 0 0
1250 0 2 1 8.832536204295968 6.259896552142489 -1.437186768954426 0 0 0
1168 0 1 -1 11.677360215186942 7.60735379517374 -1.5707408052656884 0 0 0
1442 0 2 1 14.33446390565282 7.176293084469757 0.06719063530153413 0 1 0
1155 0 2 1 18.36377480532277 7.79506063215754 -0.23306149743630922 0 0 0
1253 0 1 -1 20.712724066684082 6.270438641378037 -1.4902378620515084 0 0 0
763 0 2 1 22.43689143028513 8.866739875798892 -0.778632888569021 -1 1 1
880 0 1 -1 0.7572825362719167 11.995871176833756 -0.07776735743890573 0 0 0
1156 0 2 1 13.941524839779097 11.20740646425119 0.40666518296657017 0 0 0
4 0 2 1 25.89439942116546 11.31007089501365 -2.0245075339271006 -1 0 0
101 0 1 -1 2.123304451960399 15.390163325620136 -2.3590303437529467 0 0 0
870 0 1 -1 4.92475494068668 13.014903290191873 -0.5777634318091152 0 0 0
963 0 2 1 7.239653499308957 14.87539397473604 -0.25524026154484414 0 0 0
1046 0 1 -1 8.795263578111916 13.037711253678468 -2.159462398359838 0 1 1
867 0 2 1 11.592859624033537 15.714051473201318 -2.011762514064285 0 0 0
966 0 1 -1 13.154995981010199 13.230061692302831 -2.1870880925266225 0 0 0
295 0 1 -1 16.86436512209199 15.684389808060404 0.594541958500828 -1 0 0
105 0 2 1 19.186034410520676 13.767653998822379 0.6295167936932655 -1 0 0
205 0 1 -1 24.63129762979967 13.378322079562482 -0.2200010921431903 -1 0 0
291 0 2 1 -1.2174121520816523 18.986016693027537 0.02405208988418428 0 0 0
972 0 2 1 3.7089775949889763 15.923424696562718 -0.04579075249135167 0 0 0
1063 0 1 -1 1.8661098497408486 18.479656954499454 0.5815993305526779 0 0 0
768 0 1 -1 5.020465753288158 18.493243472605577 -2.118293584344036 0 0 1
471 0 1 -1 13.197069507156106 18.050745598429742 -0.9893490577311086 -1 0 1
273 0 2 1 19.13059283087788 17.50650727561795 -2.0786380209671154 -1 0 1
1165 0 1 -1 21.645636396213398 17.27805893218723 0.4912817514488821 0 -1 0
301 0 1 -1 26.177932524603982 17.20180996167518 -1.8678111103885207 -1 0 0
1233 0 2 1 2.122750308082672 19.987130453611726 -1.9033000384315204 0 -1 1
555 0 2 1 6.293890880905142 20.52807261923156 -0.08051524643524388 -1 0 1
1352 0 1 -1 9.169458139225855 20.24745333150217 0.22210357100965927 0 0 0
962 0 2 1 11.974356410529268 20.821471625846918 -0.6015695407356405 0 0 0
1353 0 2 1 16.37492919112273 19.99912211533504 -1.4318822322100522 0 0 0
680 0 1 -1 19.877184395415235 20.291072306362466 -1.5835834215768718 -1 0 0
578 0 2 1 23.76946389132476 21.388153299160948 -2.2347409493395567 -1 0 0
1058 0 2 1 -0.38334445125440975 24.572289937756047 -0.1811953457821831 0 0 0
677 0 1 -1 2.4311123587112764 22.60617228747749 -0.9470524033432572 0 0 0
1061 0 1 -1 6.528512154086226 23.59279169917515 -0.0433532380138848 0 0 0
377 0 2 1 13.08014546795338 24.125230272794944 0.030644073520937898 -1 0 1
1453 0 1 -1 17.209118790547485 23.26966908338217 -0.45236228193422745 0 0 0
863 0 1 -1 14.233541182576795 22.598001522261846 -2.3592522605513255 0 0 1
300 0 2 1 19.824044434394985 23.509247070026298 -1.2267810797055503 -1 0 0
678 0 1 -1 25.888781255257385 23.863963539559734 -0.6725382430469724 -1 0 0
688 0 1 -1 0.46846563915933537 0.45390399515488244 2.5244151204517253 0 1 0
674 0 3 1 -1.5946872241977414 -0.12154375535031198 3.381292749471336 0 1 0
483 0 2 1 2.2925039140778978 2.3649281946065437 0.7331256243474096 0 0 0
773 0 1 -1 4.688150077528873 1.3745585495639485 2.1895545933061866 0 0 0
1425 0 2 1 11.03862946061992 2.031057380246602 1.3675181659987756 0 1 1
11 0 2 1 19.48684370015188 0.3273705204481867 1.6680599182746816 -1 0 0
304 0 1 -1 21.480860015683596 2.549599679287802 2.4214581516321347 -1 1 0
98 0 2 1 24.47838441484342 2.5246088220171647 2.3868240967945225 -1 0 0
400 0 1 -1 -1.1287613726326122 4.742618319064606 1.4967631448816459 0 0 0
784 0 1 -1 3.262943977279943 5.417767143808581 3.0825050618021237 0 0 0
779 0 2 1 19.792686053315556 4.670696137350649 0.8303139183323971 0 0 0
1173 0 1 -1 18.211502260286636 2.972542560028901 2.688209753478101 0 0 0
491 0 3 1 0.9323308851476044 6.034207773118816 2.208737384670737 0 0 0
398 0 1 -1 1.5849739254961945 8.540666073476325 1.5366071197077815 0 0 0
778 0 3 1 6.563206715073608 9.10539012244622 2.6492371875331546 0 0 0
780 0 2 1 9.391540360951826 6.124418409594743 2.2791893614664076 0 0 0
877 0 1 -1 7.838564059615903 8.772300947027654 0.9480432969323451 0 0 0
774 0 1 -1 15.196355008081875 8.90165042208602 2.3692677486742255 0 0 0
16 0 1 -1 19.77010328435557 7.082606783748489 2.3895699356751274 -1 0 0
1164 0 2 1 22.851399697154164 8.157963108989161 3.449661379678595 0 0 0
386 0 3 1 26.2953096658115 6.426849998747212 1.2016152854188196 -1 0 0
102 0 1 -1 24.995356552521677 8.80257187005531 1.3511230387781077 -1 0 0
492 0 2 1 -1.242601320897566 9.842999116505398 2.0955818869938643 0 0 0
969 0 3 1 2.9185775341979605 11.81242546891707 1.0138755292057167 0 0 0
967 0 1 -1 4.585439488360751 10.336601147562323 2.4565351273552647 0 0 0
876 0 2 1 9.557038661270171 11.358285521172071 0.7843158105065369 0 0 0
973 0 1 -1 7.9876739555973835 10.83813757427762 3.622554688612751 0 0 0
1160 0 1 -1 11.73929384614961 11.497734941333098 2.2410619415753317 0 0 0
104 0 1 -1 20.211771078583737 10.357628496101418 0.9889326982951743 -1 0 0
2 0 2 1 17.66764238558813 10.51258514396879 3.609898976479193 -1 0 0
588 0 2 1 -0.8791582393056983 14.081789767343263 0.7592012508729984 0 0 0
112 0 1 -1 -1.9403835133433835 12.59410557114941 3.5579674824420806 0 0 0
581 0 1 -1 3.0260689332070543 13.945318054932503 2.4185043134195743 0 0 0
1354 0 2 1 5.978143467758279 13.102050984440588 3.3867854795687142 0 0 0
1260 0 2 1 10.839185996985677 14.815816082518158 3.5965506261594324 0 0 0
872 0 1 -1 11.011645419447298 14.815838112533184 0.7300095450202715 0 0 0
103 0 1 -1 17.29104978628959 13.206277811629741 3.329749956399774 -1 0 0
110 0 1 -1 21.266446590348487 13.553134425624036 2.573416099997285 -1 0 0
97 0 2 1 24.201185192936308 13.53427592487858 2.5843257689327386 -1 0 0
485 0 1 -1 -1.827270693352943 16.66888060974926 2.127137009734974 0 0 0
212 0 2 1 0.8461268963573216 16.639501808546285 3.39216578409041 0 0 0
1350 0 1 -1 6.414025243458134 17.410434235242015 1.1313755246830692 0 0 0
1154 0 2 1 13.892870413293013 15.764648116812369 0.8303243095464876 0 0 0
1347 0 2 1 17.00248660287461 16.312802361157935 3.6821789292551426 0 0 0
201 0 2 1 21.862659260088883 16.72968140088883 3.468378421073914 -1 0 0
196 0 2 1 24.48676465140509 18.312317386999858 1.7427558323792667 -1 0 0
590 0 1 -1 -0.22379024189036523 22.128646999023758 1.4136721559275718 0 0 0
1059 0 2 1 2.543168087485877 21.2465413974372 1.8352110532833663 0 0 0
1062 0 1 -1 5.7792640203133 20.047613812151894 3.2601196676305664 0 0 0
1346 0 3 1 8.364442181567021 19.16103391650889 2.2966748668633965 0 0 0
184 0 1 -1 12.116380299461762 21.748319090189547 2.067281099666089 -1 1 1
1349 0 1 -1 15.196141952197786 20.19629067697351 2.476213405821385 0 0 0
204 0 2 1 21.295642952321046 20.177014418991348 2.1666737511360727 -1 0 0
13 0 1 -1 24.277954873919 21.06357896530909 0.9510895850114065 -1 -1 0
682 0 3 1 0.9850553247424898 24.553718305369536 3.329368220389065 0 0 0
771 0 2 1 4.64750062616027 23.93458517776825 2.0234443017207777 0 -1 0
1345 0 2 1 9.623909588434227 23.386465465373924 1.1316016278143692 0 0 0
1448 0 1 -1 11.942006380925555 25.18875671934471 2.750098389943445 0 0 0
1357 0 1 -1 15.579138023166065 24.186249498249936 2.8094581109765224 0 0 0
299 0 3 1 14.197199273714235 22.357322229738188 3.5496861481819835 -1 0 0
1452 0 2 1 17.87288808666137 22.276111568759227 2.6145124726438045 0 0 0
687 0 1 -1 21.532655741377397 23.73063442886025 2.1172875933888102 -1 0 0
586 0 3 1 26.502525627861402 22.323755681431102 1.68971803017683 -1 0 0
493 0 1 -1 24.893857306882303 25.168704402813837 2.5917389861406672 -1 -1 0
394 0 2 1 -1.0323687125333985 2.153291194545247 6.778059960295417 0 0 0
387 0 2 1 2.391120413644032 1.1363746701643842 5.158162117387848 0 0 0
686 0 1 -1 5.418312346666482 1.9829077335927012 6.424006065670005 0 1 0
1169 0 2 1 8.806588626841137 -0.01681606017418047 5.318855049475502 0 0 0
1068 0 2 1 13.20575841687386 1.0319251812036738 4.382438909807854 0 1 0
1167 0 1 -1 15.913692979477 1.5363538312154126 5.5657891778763435 0 0 0
1451 0 3 1 18.24979772007258 1.8720236626529405 4.464785285756711 0 1 0
1461 0 1 -1 19.88900088256134 2.5602917899778297 6.067571205132319 0 1 0
1460 0 3 1 19.298894413162117 -0.5774647188894093 6.26160606377559 0 1 0
14 0 1 -1 26.612496820765124 1.9202821909054464 4.038316776192675 -1 0 0
397 0 1 -1 1.0233967739574785 3.859187536592488 5.51637352427135 0 0 0
874 0 2 1 -1.9030447274527222 5.07274822738423 4.771074606245037 0 0 0
393 0 2 1 3.8013477583048614 5.089171529837442 6.47991017032305 0 0 0
777 0 2 1 6.3261335987020715 3.510091526037165 4.3230929826064415 0 0 0
783 0 1 -1 9.385516148790447 2.7031179332888686 4.072541342119992 0 0 0
1255 0 1 -1 13.235042602714001 3.876275153244049 3.9905933736314987 0 0 0
1066 0 2 1 11.36945572058178 4.504557561609244 6.482671624109447 0 1 0
10 0 2 1 20.88326175129098 4.724120431446804 4.523701661150572 -1 0 0
21 0 1 -1 24.195559158360297 5.353878199971629 4.420205086698517 -1 0 0
494 0 1 -1 -0.16602928422568275 7.406418197393842 3.9124190744528295 0 0 0
489 0 2 1 2.613779258197371 8.55323907403343 4.207947245763663 0 0 0
879 0 1 -1 6.1179549269464815 8.040456693140762 4.6677198050797655 0 0 0
1264 0 1 -1 10.319001695605818 7.533819550924118 4.414973530601635 0 0 0
875 0 2 1 8.08363897928965 7.432581178365451 6.380929462338008 0 0 0
1162 0 2 1 13.64140262521726 7.305590910957222 4.752690193534693 0 0 0
396 0 3 1 23.778104944281047 6.540336502473409 6.584304458203679 -1 0 0
881 0 2 1 6.144000604752652 10.71070004725488 6.065203337952754 0 0 0
971 0 2 1 10.316547808524277 10.698940354612626 5.418068243199279 0 0 0
1166 0 1 -1 15.505408408296576 9.41027725566001 6.486940050012414 0 0 0
109 0 1 -1 19.2218117678119 11.371662593289933 6.13431771746704 -1 0 0
490 0 2 1 23.153798167937282 12.207516221072147 6.622923416525543 -1 0 0
501 0 1 -1 23.7571866752193 9.441399037738563 6.367159145171577 -1 0 0
585 0 2 1 26.79124161915218 10.811631195899672 6.064112778389372 -1 0 0
976 0 1 -1 0.15638390951998904 15.57115009609799 6.7810894881327695 0 0 0
1071 0 1 -1 4.292171232538031 12.558408083799547 5.503265044146316 0 0 0
587 0 2 1 1.378741967471517 13.35460744153378 5.213364744590274 0 0 0
683 0 3 1 6.465533873871065 14.02734059244521 6.919823027355815 0 0 0
1360 0 1 -1 8.26265646856054 14.259678609313061 5.372131869876998 0 0 0
1365 0 1 -1 12.701614626223739 13.020407357887194 7.006821697295905 0 0 0
1251 0 2 1 15.900141746921294 12.812211922344062 6.122592085524376 0 0 0
1254 0 1 -1 19.18230619072272 15.511133265071512 5.310732801343544 0 0 0
1252 0 3 1 19.962384589035025 13.495370109062844 4.4752904254947365 0 0 0
207 0 1 -1 23.470981267237462 15.558979041974906 5.31423283407548 -1 0 0
974 0 1 -1 2.4407388877911407 18.135358735322903 5.448397326363908 0 0 0
1449 0 2 1 5.106942427427639 17.06662882713968 4.084378624894558 0 0 0
980 0 2 1 8.55473840269583 17.59049531030137 7.0721802138034295 0 0 0
198 0 1 -1 14.113417734294218 16.33517775551497 4.444876745103474 -1 0 0
203 0 2 1 26.141933355644568 17.351225772392645 5.974719425229425 -1 0 0
1073 0 2 1 4.343088127397822 21.519057789460838 6.130688058394327 0 0 0
1065 0 3 1 7.404943454751736 20.977226663596632 4.861077953930836 0 0 0
1368 0 1 -1 9.686720656021702 19.130199303307606 4.513327615668462 0 0 0
1356 0 2 1 12.52600998644663 19.364626704624456 3.9894714583151893 0 0 0
981 0 1 -1 12.590881894043228 20.91467274969572 6.9521901643545405 0 0 0
1454 0 1 -1 19.899182327130525 21.630771980017194 4.854155719523823 0 0 0
591 0 1 -1 23.71424990864297 19.844702917482067 4.1314977115073805 -1 0 0
210 0 2 1 22.32675719994154 20.288799225318343 6.804167738606939 -1 0 0
399 0 1 -1 -0.8371331387714465 24.38476063795178 4.710254994179125 0 -1 0
1072 0 1 -1 2.890956040250967 24.139556404231158 4.508805706508623 0 0 0
1358 0 1 -1 7.423611614400054 23.506536097369576 4.228042844200601 0 0 0
108 0 3 1 13.17815179877842 23.02783567939344 6.725478015943864 -1 0 0
1446 0 1 -1 12.32429371320752 25.203338054962842 6.531539223790258 0 0 0
1366 0 1 -1 15.675869355733893 22.95110666163508 6.944579372288086 0 0 0
1443 0 3 1 16.305143697722286 25.27318428980155 4.319611925118729 0 0 0
1447 0 1 -1 18.54308127085502 25.51381261780368 4.247907965545886 0 0 0
297 0 3 1 20.88044313612044 23.4420807134329 4.275577589835959 -1 0 0
1462 0 1 -1 21.582936386421714 24.7508523836415 6.017678295302938 0 0 0
1163 0 2 1 24.398391450429692 24.76229593817243 5.163952044816226 0 -1 0
685 0 1 -1 0.9864218397328006 0.22928016681896735 7.655966635937089 0 1 0
696 0 1 -1 1.9241684541995592 2.6324247516372887 9.496724417994193 0 1 0
692 0 2 1 4.124610941676125 0.7733231969993104 8.792486501080981 0 1 0
1463 0 1 -1 8.937791821591107 0.22365213773822745 8.92605217735249 0 1 0
19 0 2 1 20.650006425838576 1.1553492278744735 8.597647112361203 -1 0 0
782 0 1 -1 10.138261280724091 5.409781756539488 9.400828150730588 0 0 0
1177 0 2 1 8.14125246762297 3.7122894116744494 10.136315432612712 0 0 0
1450 0 2 1 12.749732787537376 3.7286687210431486 10.036105810382315 0 1 0
1175 0 1 -1 15.579538265967072 2.69199984949852 10.127191617177589 0 0 0
1172 0 2 1 17.101407735303567 3.4428629777398605 7.557615862282924 0 0 0
1176 0 1 -1 14.628517337414808 5.782431366689151 7.379192616863524 0 0 0
20 0 2 1 20.998681940304223 5.0414486162276475 9.930092482846405 -1 0 0
681 0 3 1 24.919897260870037 4.812779058652555 9.403131831416813 -1 1 0
395 0 2 1 -0.12488280563525866 6.024425882954088 9.203894797330417 0 0 0
408 0 1 -1 -1.2919021839766751 8.532726401394811 9.882693602144494 0 0 0
404 0 3 1 4.179470306978501 7.886745816647419 9.399905397815207 0 0 0
405 0 1 -1 2.708843643929 8.726640033520479 7.82129103705061 0 0 0
885 0 1 -1 5.561445795399044 6.403986308608956 8.355501006674443 0 0 0
1257 0 3 1 13.831295332770402 7.902269337140149 7.870296657657173 0 0 0
1263 0 1 -1 13.15646175481574 8.986757597652195 9.830539667623203 0 0 0
17 0 2 1 18.7891201687177 8.70334442386886 7.173436173013686 -1 0 0
1269 0 1 -1 18.714117487999573 6.999941150900286 9.742887417778322 0 0 0
15 0 1 -1 21.642027962222265 6.489819617210675 7.725998087291028 -1 0 0
312 0 1 -1 26.039048240596642 6.293706788740416 7.334969154940145 -1 1 0
785 0 2 1 24.507514514287777 8.758595798990896 9.226895800547135 -1 0 0
589 0 1 -1 0.5552595623967336 11.348605939811131 7.289070279056546 0 0 0
497 0 3 1 0.5067096480563449 9.312940267333147 8.717662269380252 0 0 0
596 0 2 1 3.4340295431998706 12.148477974231628 8.400268096680165 0 0 0
878 0 1 -1 8.347435392629293 9.879203378521893 7.98662727492264 0 0 0
883 0 3 1 7.663007253315383 11.224114639037003 9.836834124780939 0 0 0
1268 0 2 1 11.969808146632475 11.60865485460008 9.725823963918867 0 0 0
599 0 1 -1 21.92443780328309 11.032325733499102 9.458581013537353 -1 0 0
593 0 2 1 -0.5581885555178987 13.705537246481812 9.504582181439735 0 0 0
504 0 1 -1 2.0331791568263107 14.920300486971003 10.04151955566953 0 0 0
792 0 1 -1 6.153052981335895 13.110071972600473 8.99043486533979 0 0 0
1355 0 2 1 12.692965838289199 15.521368820880616 8.715691100156524 0 0 0
1261 0 1 -1 15.986150203771226 14.392789778712258 8.449856068200416 0 0 0
107 0 2 1 19.112171233233447 13.846506430778396 7.77506255363892 -1 0 0
117 0 1 -1 25.642301037652537 12.715147951388742 8.804810059456218 -1 0 0
675 0 2 1 1.8635083511597914 17.369673397713512 8.350988891194097 0 0 0
1359 0 1 -1 5.364098307948227 16.490685264760288 7.178352220453826 0 0 0
985 0 2 1 5.674452087852841 15.863192942807919 9.919595164595492 0 0 0
1262 0 1 -1 9.60181797956385 16.694712014504738 10.187294126679033 0 0 0
209 0 2 1 16.830751272414425 17.040204086515566 9.815566949109805 -1 0 0
1457 0 3 1 20.30846291801287 18.78710937618171 9.504561637147402 0 0 0
120 0 1 -1 21.099567089418223 16.443061923107145 9.534287373113335 -1 0 0
213 0 1 -1 25.964527026972732 17.520980996878507 9.99172587540879 -1 0 0
309 0 1 -1 0.0707913982428292 19.28356329916386 9.151199281471525 0 0 0
1069 0 1 -1 6.558666915442657 19.88669383186823 7.122222331619422 0 0 0
970 0 2 1 5.445351693796954 20.864075281139044 9.695179084060134 0 0 0
984 0 1 -1 8.59957919622753 20.81510113521967 9.63472920760125 0 0 0
1362 0 2 1 14.786081837636344 20.602628577016986 9.58987921955454 0 0 0
496 0 1 -1 18.423577357059713 19.50621016053237 8.738112785825168 -1 0 0
208 0 1 -1 20.96619313873365 21.252652323526277 9.442616353272145 -1 0 0
194 0 2 1 23.71564064598372 22.216945519520138 9.652493061515136 -1 0 0
206 0 1 -1 25.196435037805223 20.567817276822353 7.575712458982318 -1 0 0
305 0 3 1 26.515578865720983 19.554718724578755 8.992688780506196 -1 0 0
684 0 2 1 0.42236990815256803 23.100435894507278 7.422957817016465 0 0 0
1070 0 1 -1 2.7145510996545035 22.86266603990623 9.06239501341887 0 0 0
1364 0 2 1 9.88707381221215 23.488978188361727 8.821007726776353 0 0 0
1067 0 2 1 14.949550540387241 25.494204230605547 8.547880211673096 0 0 0
202 0 2 1 18.634594604498417 22.604873704027163 7.438716855318562 -1 0 0
303 0 1 -1 18.290274974794585 25.299789955810724 8.37372401623105 -1 0 0
693 0 1 -1 26.919469318274775 23.75924931614592 9.49433357823964 -1 0 0
690 0 2 1 -0.13743302678209202 0.10859377220634359 10.405452618157454 0 1 0
403 0 2 1 -1.2150280956850033 2.5297898903475553 12.750912527156403 0 0 0
1079 0 1 -1 4.090366862576336 1.743219784952446 12.027152566195445 0 1 0
1183 0 1 -1 9.938602342484677 2.150018154492646 12.356913398391848 0 0 0
787 0 3 1 9.775206773015434 -0.061690921588347214 11.184732052991404 0 0 0
1458 0 2 1 17.21348779455262 0.23497372550455697 11.55867553784897 0 1 0
302 0 1 -1 21.9670752982018 -0.5383857288862686 11.073282101767994 -1 1 0
306 0 3 1 23.655350183480785 0.827783299893035 10.342653356242165 -1 1 0
701 0 1 -1 26.45169911912535 0.1036813778592337 12.452809204986501 -1 1 0
788 0 2 1 3.0837613787134446 4.5130876722448985 11.897610631957969 0 0 0
789 0 1 -1 6.535156860050485 4.652826460921196 12.8006598676217 0 0 0
790 0 1 -1 13.40963628328199 5.507784550086021 12.076998536155791 0 0 0
1459 0 2 1 16.58780690503402 4.369485675709298 12.22874927612654 0 1 0
23 0 1 -1 19.525881915229178 3.0281159024636835 11.493434407983237 -1 0 0
310 0 1 -1 23.616762182441484 3.1996817430270563 10.618720341294955 -1 1 0
407 0 1 -1 26.528379408758155 5.251662144886881 11.04736241148035 -1 0 0
499 0 2 1 -1.4290723331706903 7.452667544126326 12.936965680375557 0 0 0
975 0 1 -1 2.6996547446862316 7.234633171083246 11.282202146147895 0 0 0
1259 0 2 1 7.252617203121554 7.322501515691173 11.448959089835514 0 0 0
1170 0 2 1 15.428386590666618 8.119378042403083 11.473888898204665 0 0 0
18 0 2 1 20.19884596958628 7.57712047993793 12.878469854390747 -1 0 0
22 0 1 -1 22.760972357190532 6.207684012504632 12.698272272908204 -1 0 0
884 0 2 1 3.500156316832207 9.502579011112799 13.141256125595035 0 0 0
887 0 1 -1 6.658080768480735 10.154260521437315 11.430421669822714 0 0 0
886 0 1 -1 9.353454155046384 12.36733661266841 10.908280880504504 0 0 0
113 0 2 1 15.490958257566723 12.204033856340898 11.573521091000933 -1 0 0
1271 0 1 -1 18.342202421818534 10.725431050589096 12.10435061460629 0 0 0
402 0 2 1 21.340892355349446 11.40798111514055 12.263978781025353 -1 0 0
597 0 1 -1 -1.3405109852637258 14.929098658891817 12.991174704123434 0 0 0
892 0 2 1 6.33847764211345 13.368546819472328 12.009016405023097 0 0 0
106 0 3 1 9.432003183730219 14.789126348316806 11.098761751083002 -1 0 0
111 0 1 -1 12.990358322802473 13.779754894874468 11.375063816043188 -1 0 0
114 0 3 1 18.63541720081423 12.764031745827824 12.583409081861767 -1 0 0
1270 0 1 -1 18.098680194396906 14.516445965164575 11.462834103767467 0 0 0
116 0 2 1 23.875202036229574 14.625500829756305 10.384151233878836 -1 0 0
595 0 2 1 -0.2043079646868673 16.83454205871014 10.91688424394412 0 0 0
600 0 1 -1 4.122200299147642 18.642403015777788 10.462784212098514 0 0 0
1258 0 2 1 7.008301688891708 18.588024811160267 11.84904266018696 0 0 0
1272 0 1 -1 6.572305990051245 15.841063960086801 12.975281905497573 0 0 0
221 0 1 -1 13.647780100400084 17.884484985464738 10.899782509297212 -1 0 0
216 0 1 -1 17.1259841845796 18.245876018731586 12.682987244225439 -1 0 0
211 0 2 1 20.051277054843368 16.687661783972743 12.239929195016574 -1 0 0
512 0 1 -1 23.526799773113034 16.886701909806938 12.823053429469118 -1 0 0
500 0 3 1 24.90756224449556 18.508383937296614 11.535257942471619 -1 0 0
691 0 2 1 0.6594170886004234 21.643381683894724 11.00934920890214 0 0 0
1077 0 1 -1 5.6437698085908234 20.709136429342756 13.28690957680283 0 0 0
979 0 2 1 8.387779471110663 21.64239005938527 13.005066723557094 0 0 0
1361 0 2 1 10.935095112260163 19.240547441634234 11.200812664527959 0 0 0
224 0 1 -1 13.404196024436345 21.212872334076067 12.531499326117371 -1 0 0
308 0 2 1 18.888316691257927 22.195098067544947 11.440122964035595 -1 0 0
214 0 1 -1 25.19999787132967 20.591327957985243 11.572359711377684 -1 0 0
689 0 2 1 -1.992604946748422 22.882650906512495 12.67684845743752 0 0 0
1464 0 1 -1 11.74610402841537 24.157944720512468 11.760868476311428 0 0 0
217 0 3 1 13.741412248024826 23.353614462169034 12.352038802379553 -1 0 0
311 0 1 -1 16.07696296653348 23.231883701588323 10.95441117672127 -1 0 0
1084 0 3 1 3.2270117590260217 2.3502605169600717 14.157665881406118 0 1 0
694 0 1 -1 1.9803479401166513 0.5503576139103832 15.051003232845556 0 1 0
786 0 2 1 7.246009928160079 2.2313356941563165 14.341990220220268 0 0 0
1472 0 1 -1 9.69875168837809 1.966356934627735 16.034148018424766 0 1 0
1178 0 3 1 9.737109903338924 -0.2661705556778392 14.889356792629627 0 0 0
1171 0 2 1 12.64565618961189 0.40494066409768226 16.565952221776236 0 0 0
1181 0 1 -1 23.789999082070132 1.732764708381505 15.812224658701798 0 0 0
409 0 2 1 25.791479230840295 -0.18668101707541207 16.278791600379638 -1 0 0
794 0 3 1 -1.7280098552906398 4.8036067122110415 16.38973043571984 0 0 0
1080 0 1 -1 1.765615222457062 4.2153179119366495 14.555837793959707 0 1 0
1266 0 3 1 7.170609720527681 5.818004500553607 14.931402176316219 0 0 0
804 0 2 1 11.309289854312748 4.504062543716637 13.773702459649709 0 0 0
401 0 2 1 22.138957565748925 3.457141843498648 13.502908836026506 -1 0 0
502 0 1 -1 26.206794842657303 4.7007165372217745 14.504483997009142 -1 0 0
509 0 1 -1 -0.45033760526802213 6.553810379084948 15.97979471263097 0 0 0
889 0 2 1 2.4954147819516708 7.179491202819194 16.143477500743032 0 0 0
893 0 1 -1 5.250462143987006 7.460612718151831 14.935434660899702 0 0 0
1184 0 1 -1 9.15444767470771 6.673085253468803 13.944603776012851 0 0 0
1273 0 2 1 11.002242015953815 7.040504223058022 16.48056183429949 0 0 0
1180 0 2 1 15.519379242519294 6.9655587505869185 16.022572852148446 0 0 0
1174 0 1 -1 17.785586185350986 6.405486324060318 13.78863921811735 0 0 0
28 0 2 1 24.201703104081773 7.134002479674617 14.833872637406472 -1 0 0
888 0 1 -1 0.44989703354948674 10.46885345177057 13.499178756970508 0 0 0
505 0 2 1 -0.5453226531692299 9.739700359783152 16.43609276556001 0 0 0
891 0 2 1 7.219214755904973 10.510933818615955 14.762335954714676 0 0 0
991 0 1 -1 4.759648654739726 11.926623646726856 14.984600729087798 0 0 0
1367 0 1 -1 10.404195651893973 11.049049570949398 16.34073812323425 0 0 0
1267 0 2 1 11.250564785265153 12.379691630647006 13.785173662689559 0 0 0
119 0 1 -1 15.650190117236134 11.705440022411382 14.528549971097366 -1 0 0
121 0 2 1 18.003069363496813 10.534645441274865 15.701545385359115 -1 0 0
24 0 1 -1 20.895927873862306 9.503078141275484 15.042181124983127 -1 0 0
882 0 2 1 26.44518986443282 12.082048131250154 14.043141047245793 -1 0 0
495 0 1 -1 25.901900201420105 9.257706653943565 15.329943597721872 -1 0 0
890 0 2 1 1.3914681346489912 13.017787992806344 14.686705637943092 0 0 0
989 0 1 -1 3.504742906929482 15.477634190054752 14.431503252125157 0 0 0
604 0 2 1 5.661144058849178 15.621535032923068 16.43312674175675 0 0 0
215 0 1 -1 9.914225489211896 14.922604249472853 13.745230041459276 -1 0 0
125 0 1 -1 20.196959961229553 13.262248439702473 15.446159064565428 -1 0 0
498 0 2 1 17.488132579267592 14.169869929681184 15.839735380553133 -1 0 0
118 0 1 -1 23.740316624943922 12.990996867182096 13.724491584515032 -1 0 0
115 0 2 1 21.873054567770104 15.568287451962496 15.92931429633878 -1 0 0
983 0 1 -1 1.0280897790019186 18.52095627020018 13.54492905358899 0 0 0
603 0 2 1 -1.5686503079055674 16.722664002764255 15.567892793827887 0 0 0
977 0 3 1 2.9318507312463717 17.66593579735177 14.59632506411291 0 0 0
598 0 1 -1 3.231517982356327 18.65912961785134 16.626075946140475 0 0 0
1265 0 3 1 8.580816792395446 16.482676707848867 14.424235248932622 0 0 0
1376 0 1 -1 9.579008715930852 18.9163309410186 13.744799363290323 0 0 0
124 0 2 1 13.461739371455385 17.739413826278664 14.24170930883319 -1 0 0
607 0 1 -1 19.066336375410565 16.912087621342245 15.318098074099428 -1 0 0
601 0 3 1 20.45933317005484 18.96522714736627 16.291978439652578 -1 0 0
986 0 3 1 0.8427202051469322 19.950052220275275 15.39257990628133 0 0 0
1369 0 2 1 6.089610788672902 19.2344389537282 15.995222622693532 0 0 0
220 0 2 1 16.444496600760814 21.1593790760446 13.545666456479442 -1 0 0
1373 0 1 -1 15.431175826493538 20.186094738939104 16.081993653308174 0 0 0
695 0 1 -1 20.33078666327811 21.600515958485097 14.837105134014084 -1 0 0
594 0 2 1 23.26967111064964 20.378070595227072 14.49733735188191 -1 0 0
608 0 1 -1 0.7452910090759151 22.643563913983733 13.958380804807078 0 0 0
1076 0 2 1 4.393445597591443 23.523617769390697 13.659239844370301 0 0 0
1455 0 1 -1 7.842678413470251 24.863249747251814 13.81898784833415 0 0 0
982 0 1 -1 10.154651563175374 24.28735551690818 16.310424601581445 0 0 0
1372 0 2 1 12.729235992662096 22.7833063250405 15.534594761746703 0 0 0
1469 0 1 -1 14.091754438128914 24.966577105205353 14.007548657066732 0 0 0
704 0 1 -1 17.62872014998772 24.026686814941762 14.144494760285014 -1 0 0
315 0 2 1 17.939787339551707 22.554755755034876 16.61330766269629 -1 0 0
602 0 2 1 21.74720767716351 24.872502215523475 14.907154355915381 -1 0 0
606 0 1 -1 24.800970857749242 23.607401428852036 15.108638676386118 -1 0 0
1074 0 3 1 3.4729003092742774 -0.5116346215463274 16.79386859276135 0 1 0
796 0 2 1 1.4984419311843569 2.5864102737761008 17.29975117877129 0 0 0
1078 0 1 -1 5.363010302933867 0.6731847725089548 17.425888241546122 0 1 0
1075 0 2 1 8.094243096509704 -0.24210129060502394 17.399082766550386 0 1 0
313 0 2 1 17.39078204701191 -0.4449387741961545 18.86900745495899 -1 1 0
1468 0 2 1 21.074315304966127 2.528126199547958 17.849838579321002 0 1 0
416 0 1 -1 -1.6386003325305079 2.7985506901987867 18.36232516412577 0 0 0
800 0 1 -1 3.1429376944622307 5.058711001495563 18.92894715256209 0 0 0
798 0 1 -1 7.132552290246487 4.511759273134802 16.799198926603857 0 0 0
1185 0 3 1 5.323333494777051 3.6566888645029723 18.280825479173465 0 0 0
1182 0 1 -1 13.452221984633507 4.9982683361581115 16.728836952861553 0 0 0
1188 0 2 1 15.404724052300205 4.4040827924864345 19.268653992561333 0 0 0
31 0 1 -1 18.493167559225952 3.8745089333347673 18.58311871758272 -1 0 0
32 0 1 -1 22.897832545715204 4.706605617169852 16.814364118969145 -1 0 0
29 0 1 -1 23.441930852164745 2.8971423203591655 19.815037505432926 -1 0 0
25 0 3 1 24.48492269733014 3.454623007840678 17.679575051911918 -1 0 0
507 0 2 1 6.4654999060450375 6.731278648230869 19.26872048893442 0 0 0
1280 0 1 -1 9.844879617270243 6.341878751333541 19.43538229936878 0 0 0
1277 0 1 -1 13.853002299217641 8.888563453741723 17.4751134416849 0 0 0
26 0 2 1 20.2254603964088 6.803940753593884 17.528372583915992 -1 0 0
40 0 1 -1 17.70442915977162 8.114680769075514 18.14019488201509 -1 0 0
414 0 1 -1 -1.3721819655799714 11.78462896297443 18.95213473077989 0 0 0
896 0 1 -1 1.6803067307798596 10.554365738049356 18.02369938006684 0 0 0
508 0 2 1 4.069933753297682 12.393337581952105 18.61002755129232 0 0 0
895 0 1 -1 5.786557103947045 9.956073739063658 18.901783291681586 0 0 0
1276 0 2 1 13.812332496413712 11.64181415390974 17.081519486355074 0 0 0
127 0 1 -1 16.994237223384197 12.03230953884027 18.168151709477808 -1 0 0
123 0 2 1 20.08652895035688 11.51862434738528 17.862825806029033 -1 0 0
126 0 1 -1 23.249250015338305 11.414343767205152 18.613722123128543 -1 0 0
506 0 2 1 26.042386487282684 9.224737972498104 19.66649583170394 -1 0 0
613 0 1 -1 -2.022784719846946 15.606381801978467 18.741757038874507 0 0 0