LAMMPS (2 Aug 2023)
OMP_NUM_THREADS environment is not set. Defaulting to 1 thread. (src/comm.cpp:98)
  using 1 OpenMP thread(s) per MPI task
read_restart    ../structure.ready
Reading restart file ...
  restart file = 2 Aug 2023, LAMMPS = 2 Aug 2023
  restoring atom style full from restart
  orthogonal box = (-0.73569318 -0.82717062 -9.2097329) to (24.671166 24.762643 81.01615)
  1 by 1 by 1 MPI processor grid
  pair style chgnet/gpu stores no restart info
  1536 atoms
Finding 1-2 1-3 1-4 neighbors ...
  special bond factors lj:    0        0        0       
  special bond factors coul:  0        0        0       
     0 = max # of 1-2 neighbors
     0 = max # of 1-3 neighbors
     0 = max # of 1-4 neighbors
     1 = max # of special neighbors
  special bonds CPU = 0.001 seconds
  read_restart CPU = 0.086 seconds

pair_style      chgnet/gpu /ocean/projects/cts180021p/wuziqi/clease/lammps-ASC/potentials/CHGNET
pair_coeff      * * MPtrj-efsm Cl K Li

neighbor        0.3 bin
neigh_modify    delay 10

timestep	    0.001
compute	        msd all msd
Resetting peratom fix info from restart file:
  fix style: STORE/ATOM, fix ID: msd_COMPUTE_STORE
thermo_style	custom step temp pe etotal press vol c_msd[4]
thermo	        10
dump	        1 all custom 10 xyz-mix.dump type id x y z
dump	        2 all custom 10 force-mix.dump type id fx fy fz

fix             2 gLiquid npt temp 1500 1200.0 $(100.0*dt) z 1.01325 1.01325 $(1000.0*dt) couple none
fix             2 gLiquid npt temp 1500 1200.0 0.10000000000000000555 z 1.01325 1.01325 $(1000.0*dt) couple none
fix             2 gLiquid npt temp 1500 1200.0 0.10000000000000000555 z 1.01325 1.01325 1 couple none
run             10000
All restart file peratom fix info was re-assigned
Neighbor list info ...
  update: every = 1 steps, delay = 10 steps, check = yes
  max neighbors/atom: 2000, page size: 100000
  master list distance cutoff = 6.3
  ghost atom cutoff = 6.3
  binsize = 3.15, bins = 9 9 29
  1 neighbor lists, perpetual/occasional/extra = 1 0 0
  (1) pair chgnet/gpu, perpetual
      attributes: full, newton on
      pair build: full/bin
      stencil: full/bin/3d
      bin: standard
Per MPI rank memory allocation (min/avg/max) = 6.519 | 6.519 | 6.519 Mbytes
   Step          Temp          PotEng         TotEng         Press          Volume        c_msd[4]   
     20000   1512.4261     -5388.108      -5088.021       2618.0881      58660.97       49.242492    
     20010   1521.4953     -5389.9369     -5088.0504      2461.3921      58661.128      49.35739     
     20020   1515.6523     -5388.8826     -5088.1554      2514.4881      58661.523      49.445333    
     20030   1508.7672     -5387.6917     -5088.3306      2722.2327      58662.173      49.523424    
     20040   1491.8848     -5384.5345     -5088.5232      2996.9804      58663.361      49.610476    
     20050   1485.6393     -5383.4799     -5088.7077      3222.1982      58665.357      49.704698    
     20060   1506.5602     -5387.799      -5088.8758      3243.1652      58667.997      49.794664    
     20070   1509.7239     -5388.6306     -5089.0798      3230.2688      58671.124      49.885797    
     20080   1492.0781     -5385.3812     -5089.3316      3230.2822      58674.972      49.984653    
     20090   1472.4089     -5381.7385     -5089.5915      3006.4289      58679.946      50.086077    
     20100   1462.1162     -5379.884      -5089.7792      2643.1211      58686.165      50.193996    
     20110   1459.0603     -5379.3684     -5089.8699      2217.0693      58693.153      50.313107    
     20120   1445.1722     -5376.5508     -5089.8079      2072.5273      58700.325      50.441652    
     20130   1453.7103     -5378.012      -5089.575       2052.2133      58707.288      50.577147    
     20140   1465.5267     -5379.9053     -5089.1238      2169.5628      58713.868      50.72646     
     20150   1465.3408     -5379.2117     -5088.4671      2498.5314      58720.231      50.894318    
     20160   1460.0576     -5377.2543     -5087.5579      2841.9268      58726.654      51.072171    
     20170   1489.3085     -5381.8678     -5086.3677      2712.9962      58733.404      51.250867    
     20180   1500.5845     -5382.672      -5084.9345      2810.5119      58740.887      51.427934    
     20190   1487.1447     -5378.4166     -5083.3458      3033.7168      58749.595      51.601751    
     20200   1479.325      -5375.1383     -5081.619       3054.3477      58759.566      51.765249    
     20210   1485.4678     -5374.5179     -5079.7799      2784.3835      58770.396      51.925781    
     20220   1510.9713     -5377.7161     -5077.9177      2365.5412      58781.646      52.093504    
     20230   1561.2499     -5385.9408     -5076.1665      1892.4666      58792.884      52.268143    
     20240   1573.4724     -5386.9413     -5074.7418      1830.9786      58803.632      52.438866    
     20250   1581.2036     -5387.491      -5073.7575      1704.8706      58813.684      52.601589    
     20260   1569.251      -5384.5386     -5073.1767      1666.1121      58823.065      52.753797    
     20270   1550.3494     -5380.5286     -5072.917       1839.9085      58831.682      52.890185    
     20280   1546.0639     -5379.6786     -5072.9174      2055.5076      58839.435      53.01461     
     20290   1524.8643     -5375.651      -5073.0961      2369.1193      58846.376      53.135047    
     20300   1506.426      -5372.2808     -5073.3843      2698.0211      58852.942      53.253869    
     20310   1506.6912     -5372.6656     -5073.7165      2801.7454      58859.847      53.383489    
     20320   1495.9619     -5370.9111     -5074.0909      2933.4298      58867.421      53.533289    
     20330   1479.5603     -5368.0342     -5074.4682      3056.8991      58875.831      53.695689    
     20340   1477.457      -5367.9412     -5074.7925      2887.1712      58885.001      53.857254    
     20350   1474.873      -5367.7053     -5075.0694      2742.2763      58894.562      54.012539    
     20360   1483.5206     -5369.6462     -5075.2945      2532.1181      58904.265      54.156842    
     20370   1512.507      -5375.632      -5075.5289      2324.5241      58914.123      54.281119    
     20380   1517.0757     -5376.839      -5075.8294      2418.1064      58924.404      54.412549    
     20390   1523.5892     -5378.5488     -5076.2469      2600.0903      58935.526      54.560227    
     20400   1515.5185     -5377.4901     -5076.7895      2789.3579      58947.839      54.705284    
     20410   1518.8235     -5378.8411     -5077.4847      2838.6483      58961.691      54.843656    
     20420   1508.5254     -5377.6143     -5078.3012      2860.8027      58977.301      54.988192    
     20430   1525.2006     -5381.8781     -5079.2564      2626.6544      58994.521      55.143876    
     20440   1516.8619     -5381.3481     -5080.381       2625.036       59012.923      55.317303    
     20450   1507.7738     -5380.8069     -5081.643       2697.9011      59032.19       55.498546    
     20460   1497.0336     -5380.0353     -5083.0024      2744.7019      59052.179      55.684557    
     20470   1504.911      -5383.0221     -5084.4262      2596.6009      59072.77       55.876723    
     20480   1502.0172     -5383.9167     -5085.895       2441.7635      59093.663      56.069926    
     20490   1479.4383     -5380.8798     -5087.338       2317.2874      59114.791      56.259565    
     20500   1485.5487     -5383.4125     -5088.6583      2030.753       59136.441      56.446326    
     20510   1495.383      -5386.5747     -5089.8693      1735.7573      59158.459      56.632726    
     20520   1483.3179     -5385.2366     -5090.9251      1620.5263      59180.255      56.831371    
     20530   1502.4953     -5389.9603     -5091.8437      1421.9625      59201.117      57.034846    
     20540   1498.6584     -5389.9882     -5092.6329      1511.2609      59220.585      57.227667    
     20550   1494.9062     -5389.9292     -5093.3184      1585.362       59238.702      57.403732    
     20560   1486.7757     -5388.9034     -5093.9058      1426.6839      59255.462      57.569293    
     20570   1463.6091     -5384.7491     -5094.3481      1239.7326      59270.723      57.734952    
     20580   1449.7354     -5382.2955     -5094.6473      1038.8989      59284.355      57.892688    
     20590   1438.0532     -5380.1074     -5094.7771      838.07238      59296.139      58.041533    
     20600   1439.8912     -5380.4542     -5094.7592      758.716        59305.862      58.187067    
     20610   1433.2363     -5378.9758     -5094.6012      916.44633      59313.411      58.334354    
     20620   1446.0471     -5381.2324     -5094.316       1166.3985      59318.632      58.481654    
     20630   1452.2175     -5382.0707     -5093.9299      1362.7073      59321.806      58.628312    
     20640   1443.5771     -5379.8983     -5093.4719      1535.6841      59323.538      58.769358    
     20650   1458.9184     -5382.4193     -5092.949       1452.6501      59324.107      58.903712    
     20660   1463.5018     -5382.7295     -5092.3498      1289.923       59323.308      59.027986    
     20670   1472.3718     -5383.8691     -5091.7295      1082.3465      59320.91       59.137448    
     20680   1481.108      -5384.9791     -5091.1061      1034.169       59316.754      59.239034    
     20690   1481.4924     -5384.4507     -5090.5014      1217.3213      59310.724      59.33068     
     20700   1482.1796     -5384.0035     -5089.9179      1455.9246      59302.98       59.412739    
     20710   1487.8784     -5384.5865     -5089.3702      1500.7021      59293.609      59.495006    
     20720   1478.9311     -5382.2798     -5088.8387      1569.5766      59282.52       59.586239    
     20730   1490.0099     -5383.9786     -5088.3393      1499.4004      59270.03       59.673406    
     20740   1480.1256     -5381.5514     -5087.8733      1690.4431      59256.365      59.755662    
     20750   1460.0317     -5377.0829     -5087.3917      1960.1102      59241.728      59.836082    
     20760   1489.7007     -5382.4651     -5086.8871      1709.6256      59226.37       59.90916     
     20770   1495.9232     -5383.1924     -5086.3798      1532.8091      59210.418      59.978893    
     20780   1474.33       -5378.462      -5085.9338      1804.299       59194.013      60.048957    
     20790   1466.2501     -5376.3988     -5085.4738      2089.6534      59177.43       60.110737    
     20800   1497.8752     -5382.186      -5084.9861      2040.0878      59160.65       60.156391    
     20810   1506.9303     -5383.5242     -5084.5276      2072.7363      59143.186      60.185806    
     20820   1517.7705     -5385.3182     -5084.1708      1828.9718      59124.613      60.193025    
     20830   1535.1243     -5388.5625     -5083.9718      1514.2557      59104.411      60.177518    
     20840   1552.8773     -5392.0906     -5083.9775      1355.7534      59082.259      60.1438      
     20850   1572.2092     -5396.2485     -5084.2997      1332.3124      59058.188      60.098125    
     20860   1565.0465     -5395.5439     -5085.0163      1421.1556      59032.565      60.04836     
     20870   1559.9556     -5395.7014     -5086.1839      1477.2067      59005.815      60.000743    
     20880   1536.3961     -5392.6388     -5087.7958      1773.4443      58978.329      59.954824    
     20890   1501.1914     -5387.5708     -5089.7129      2026.9709      58950.815      59.909613    
     20900   1493.2565     -5388.0894     -5091.8059      1841.8426      58923.401      59.863671    
     20910   1483.991      -5388.3746     -5093.9296      1542.1051      58895.491      59.815288    
     20920   1472.6824     -5388.1062     -5095.9049      1359.2772      58866.632      59.770416    
     20930   1469.3581     -5389.1609     -5097.6192      1482.1055      58836.493      59.735519    
     20940   1456.0244     -5387.8945     -5098.9984      1900.6392      58805.139      59.704175    
     20950   1460.4346     -5389.8171     -5100.046       2371.4625      58773.254      59.676186    
     20960   1479.5715     -5394.4292     -5100.861       2555.7319      58741.485      59.642142    
     20970   1490.7507     -5397.316      -5101.5298      2342.3404      58710.199      59.586321    
     20980   1507.7277     -5401.3279     -5102.1731      1936.0248      58679.28       59.522034    
     20990   1494.5328     -5399.3818     -5102.8451      1837.9888      58648.013      59.467594    
     21000   1463.7132     -5393.8997     -5103.478       2194.7804      58616.276      59.425993    
     21010   1457.3537     -5393.1702     -5104.0103      2268.6664      58584.571      59.395709    
     21020   1451.8846     -5392.5238     -5104.4491      2219.538       58552.996      59.37735     
     21030   1432.2612     -5388.9668     -5104.7857      2145.1195      58521.363      59.364871    
     21040   1429.9022     -5388.7046     -5104.9915      1935.1937      58489.663      59.339498    
     21050   1402.3793     -5383.2803     -5105.0281      2053.7464      58457.798      59.295302    
     21060   1407.2546     -5384.0852     -5104.8657      2103.7975      58425.92       59.235658    
     21070   1431.4602     -5388.5295     -5104.5073      1973.1892      58394.321      59.163415    
     21080   1458.6265     -5393.4313     -5104.0189      1957.9592      58362.996      59.074631    
     21090   1482.2907     -5397.5988     -5103.4911      2120.4821      58331.847      58.97405     
     21100   1478.5585     -5396.3474     -5102.9802      2495.5674      58300.974      58.869683    
     21110   1479.552      -5396.0731     -5102.5088      2821.5582      58270.666      58.765652    
     21120   1506.5597     -5401.0243     -5102.1013      2739.9448      58241.259      58.670644    
     21130   1490.52       -5397.5259     -5101.7854      2887.7752      58212.839      58.597427    
     21140   1484.3147     -5396.0958     -5101.5865      2887.1026      58185.428      58.537625    
     21150   1470.2536     -5393.146      -5101.4266      2931.9361      58158.836      58.479343    
     21160   1476.9706     -5394.3453     -5101.2932      2730.8839      58133.061      58.428177    
     21170   1469.5884     -5392.7926     -5101.2052      2789.5036      58107.722      58.387013    
     21180   1451.7499     -5389.1744     -5101.1265      2982.9903      58082.661      58.343741    
     21190   1433.7303     -5385.4574     -5100.9848      3187.0599      58057.822      58.293298    
     21200   1453.7141     -5389.1884     -5100.7507      2851.5533      58033.076      58.23778     
     21210   1473.3222     -5392.7589     -5100.4307      2558.3799      58008.202      58.176876    
     21220   1486.3806     -5395.0547     -5100.1355      2502.2393      57983.123      58.099425    
     21230   1483.6893     -5394.2607     -5099.8755      2724.1228      57957.963      58.003987    
     21240   1476.8261     -5392.6802     -5099.6567      2947.6633      57933.113      57.919195    
     21250   1475.1262     -5392.1448     -5099.4586      2984.1699      57908.989      57.85503     
     21260   1466.9688     -5390.3492     -5099.2816      2926.8717      57885.835      57.802148    
     21270   1447.9885     -5386.3806     -5099.079       3078.3043      57863.925      57.756989    
     21280   1467.2581     -5389.9607     -5098.8357      3143.8546      57843.342      57.714994    
     21290   1479.8341     -5392.1719     -5098.5516      3368.6372      57824.072      57.665382    
     21300   1494.5929     -5394.8401     -5098.2915      3480.3313      57806.445      57.605461    
     21310   1513.0475     -5398.344      -5098.1337      3478.5112      57790.595      57.556593    
     21320   1508.077      -5397.3622     -5098.1381      3731.5749      57776.552      57.538309    
     21330   1513.9159     -5398.7292     -5098.3466      3816.7863      57764.554      57.560047    
     21340   1509.9601     -5398.3861     -5098.7884      3812.2034      57754.679      57.621395    
     21350   1503.7621     -5397.8665     -5099.4985      3683.9676      57746.57       57.712921    
     21360   1498.7094     -5397.8467     -5100.4813      3640.1404      57739.703      57.811557    
     21370   1486.7823     -5396.7144     -5101.7155      3801.5958      57733.694      57.897607    
     21380   1480.1122     -5396.8184     -5103.1429      3863.9805      57728.272      57.973694    
     21390   1463.8649     -5395.158      -5104.7062      3938.1747      57723.238      58.043547    
     21400   1456.1553     -5395.2371     -5106.315       4106.0206      57718.84       58.104753    
     21410   1445.6954     -5394.7148     -5107.8682      4184.2929      57715.767      58.173366    
     21420   1446.2402     -5396.2496     -5109.2949      3866.6194      57714.629      58.263238    
     21430   1442.2487     -5396.7554     -5110.5926      3390.4953      57715.444      58.372159    
     21440   1421.1289     -5393.6858     -5111.7135      3189.537       57717.733      58.499252    
     21450   1406.0989     -5391.6094     -5112.6192      3074.6509      57721.094      58.622513    
     21460   1401.1358     -5391.2769     -5113.2714      2997.8226      57725.217      58.715598    
     21470   1424.9641     -5396.4437     -5113.7104      2773.187       57729.724      58.776839    
     21480   1440.5774     -5399.8422     -5114.011       2754.5542      57734.185      58.829371    
     21490   1451.997      -5402.3485     -5114.2515      2936.4802      57738.471      58.8937      
     21500   1466.451      -5405.436      -5114.4712      2994.2096      57742.567      58.978799    
     21510   1489.2799     -5410.2283     -5114.7338      2624.8419      57746.326      59.087123    
     21520   1494.3652     -5411.6074     -5115.104       2143.6519      57749.258      59.216779    
     21530   1461.5621     -5405.5891     -5115.5943      2011.5001      57750.751      59.354879    
     21540   1422.0405     -5398.2437     -5116.0904      2124.5866      57750.816      59.478148    
     21550   1409.8687     -5396.2156     -5116.4774      1976.2116      57749.76       59.569354    
     21560   1430.4945     -5400.5621     -5116.7315      1713.1094      57747.406      59.628541    
     21570   1437.9176     -5402.2017     -5116.8982      1723.2754      57743.36       59.670731    
     21580   1434.2843     -5401.5901     -5117.0075      1959.6225      57737.485      59.705079    
     21590   1445.3839     -5403.8632     -5117.0783      1899.4155      57729.986      59.722625    
     21600   1455.2258     -5405.8531     -5117.1155      1811.764       57721.116      59.731224    
     21610   1454.9615     -5405.8495     -5117.1643      1979.6954      57711.134      59.750432    
     21620   1452.1973     -5405.3672     -5117.2304      2199.0356      57700.262      59.781739    
     21630   1452.6072     -5405.5159     -5117.2978      2450.016       57688.688      59.81034     
     21640   1462.6916     -5407.6025     -5117.3836      2739.2909      57676.858      59.829548    
     21650   1475.6365     -5410.303      -5117.5156      2835.1086      57665.266      59.842658    
     21660   1478.8385     -5411.179      -5117.7562      2800.2004      57654.168      59.849333    
     21670   1467.0544     -5409.2307     -5118.1461      2580.6218      57643.656      59.862135    
     21680   1443.4187     -5405.0599     -5118.665       2300.8846      57633.622      59.89087     
     21690   1431.0796     -5403.2109     -5119.2642      2042.0019      57623.692      59.932576    
     21700   1430.6855     -5403.7819     -5119.9134      1866.1295      57613.655      59.986635    
     21710   1441.6173     -5406.6639     -5120.6264      1698.0994      57603.513      60.051381    
     21720   1458.0688     -5410.767      -5121.4652      1685.8086      57593.158      60.124477    
     21730   1461.9328     -5412.5643     -5122.4959      1754.0856      57582.411      60.2031      
     21740   1445.9719     -5410.6205     -5123.7189      1968.6668      57571.14       60.291523    
     21750   1424.1435     -5407.6307     -5125.0603      2303.7991      57559.591      60.384897    
     21760   1420.125      -5408.2068     -5126.4337      2479.708       57548.345      60.473287    
     21770   1408.9153     -5407.329      -5127.78        2930.525       57537.83       60.559344    
     21780   1395.5433     -5405.9004     -5129.0046      3297.3461      57528.409      60.65503     
     21790   1397.0257     -5407.2744     -5130.0845      3369.4871      57520.316      60.765702    
     21800   1378.9688     -5404.5784     -5130.9712      3347.0164      57513.396      60.876861    
     21810   1368.5774     -5403.1685     -5131.6231      3120.6704      57507.389      60.969443    
     21820   1382.4158     -5406.3234     -5132.0323      2901.1023      57502.007      61.045613    
     21830   1383.8356     -5406.7885     -5132.2157      2932.6375      57497.262      61.130812    
     21840   1376.2337     -5405.2592     -5132.1947      3192.4198      57493.424      61.234583    
     21850   1377.8797     -5405.3364     -5131.9454      3402.0611      57490.801      61.349895    
     21860   1368.2077     -5402.9282     -5131.4562      3733.3191      57489.62       61.465758    
     21870   1359.684      -5400.4786     -5130.6979      3996.8601      57490.341      61.584235    
     21880   1364.5417     -5400.3831     -5129.6384      3934.099       57493.566      61.718065    
     21890   1390.8557     -5404.2458     -5128.2802      3482.045       57499.371      61.85955     
     21900   1437.9305     -5412.0264     -5126.7204      2921.2055      57507.177      62.000617    
     21910   1459.077      -5414.6514     -5125.1496      2597.2533      57516.375      62.143265    
     21920   1471.9962     -5415.7958     -5123.7306      2242.7115      57526.511      62.292149    
     21930   1466.1818     -5413.4421     -5122.5307      2138.2976      57537.068      62.444689    
     21940   1452.7132     -5409.8053     -5121.5662      2306.9242      57547.77       62.599604    
     21950   1448.5167     -5408.1709     -5120.7644      2419.1961      57558.311      62.76577     
     21960   1436.5302     -5405.1064     -5120.0783      2485.0358      57568.094      62.941399    
     21970   1437.2848     -5404.6593     -5119.4814      2511.986       57576.794      63.12285     
     21980   1439.7519     -5404.6223     -5118.9549      2351.6877      57584.435      63.310875    
     21990   1448.2017     -5405.844      -5118.5         2063.4121      57590.932      63.499953    
     22000   1437.6243     -5403.3633     -5118.118       2162.6499      57596.412      63.67376     
     22010   1409.1292     -5397.3691     -5117.7777      2721.0727      57601.599      63.840494    
     22020   1399.8432     -5395.1345     -5117.3856      3009.088       57607.461      64.002863    
     22030   1408.358      -5396.3566     -5116.9182      3059.9616      57614.367      64.133186    
     22040   1411.1462     -5396.3621     -5116.3704      3175.0161      57621.936      64.235585    
     22050   1443.5208     -5402.2159     -5115.8007      3049.0432      57630.101      64.34313     
     22060   1458.9095     -5404.7322     -5115.2636      3122.689       57638.901      64.478386    
     22070   1447.8115     -5402.1046     -5114.8381      3369.5921      57648.496      64.649438    
     22080   1454.6667     -5403.1172     -5114.4905      3340.9602      57659.211      64.837605    
     22090   1442.697      -5400.4501     -5114.1983      3334.8572      57671.23       65.015382    
     22100   1456.5148     -5402.9615     -5113.9682      3149.6164      57684.636      65.17132     
     22110   1467.943      -5405.0625     -5113.8016      2895.734       57699.137      65.307991    
     22120   1466.0373     -5404.6351     -5113.7523      2639.855       57714.407      65.440722    
     22130   1462.9465     -5404.0763     -5113.8067      2375.9202      57730.237      65.584467    
     22140   1455.769      -5402.7982     -5113.9528      2192.4617      57746.146      65.740312    
     22150   1442.7735     -5400.4211     -5114.1542      2087.8466      57761.619      65.899102    
     22160   1435.9994     -5399.3126     -5114.3898      2058.8714      57776.303      66.063707    
     22170   1444.576      -5401.2667     -5114.6422      1955.1023      57790.041      66.22726     
     22180   1450.3852     -5402.699      -5114.9218      2008.6156      57802.765      66.373805    
     22190   1445.5289     -5402.0815     -5115.2679      2152.7339      57814.422      66.494862    
     22200   1443.6501     -5402.1145     -5115.6736      2129.8346      57824.94       66.594621    
     22210   1443.1954     -5402.4913     -5116.1407      2001.6906      57834.312      66.698258    
     22220   1428.5026     -5400.0886     -5116.6533      2074.1865      57842.79       66.819233    
     22230   1421.4785     -5399.2438     -5117.2021      2156.6262      57850.801      66.95498     
     22240   1418.6687     -5399.2412     -5117.757       2136.3512      57858.433      67.108335    
     22250   1425.228      -5401.1235     -5118.3379      2144.7196      57865.46       67.28316     
     22260   1430.3595     -5402.7671     -5118.9633      2215.2451      57871.788      67.467375    
     22270   1440.478      -5405.4917     -5119.6802      2273.8805      57877.476      67.653448    
     22280   1452.4136     -5408.7513     -5120.5717      2125.9914      57882.462      67.837274    
     22290   1443.6106     -5408.1259     -5121.6928      2009.8882      57886.405      68.003426    
     22300   1419.6371     -5404.7208     -5123.0445      2029.5778      57889.05       68.135472    
     22310   1399.7345     -5402.28       -5124.5527      2077.0924      57890.493      68.236577    
     22320   1395.0889     -5402.9429     -5126.1373      2035.4421      57890.884      68.310799    
     22330   1401.8585     -5405.8997     -5127.7509      1855.4537      57890.255      68.374706    
     22340   1396.149      -5406.3684     -5129.3524      1743.8114      57888.227      68.440865    
     22350   1381.5697     -5404.9666     -5130.8433      1728.2882      57884.577      68.518992    
     22360   1378.0724     -5405.5734     -5132.1441      1693.9546      57879.608      68.605594    
     22370   1394.8836     -5410.0111     -5133.2462      1589.0955      57873.774      68.69479     
     22380   1403.4543     -5412.6398     -5134.1743      1678.8321      57867.363      68.783324    
     22390   1404.3467     -5413.604      -5134.9615      1797.0868      57860.6        68.865635    
     22400   1401.5762     -5413.7043     -5135.6115      1863.508       57853.786      68.944188    
     22410   1406.8029     -5415.2739     -5136.1441      1615.8714      57847.297      69.027971    
     22420   1386.4367     -5411.6246     -5136.5357      1661.2132      57841.009      69.105938    
     22430   1389.0667     -5412.3918     -5136.7811      1584.7795      57834.906      69.161515    
     22440   1400.3513     -5414.7301     -5136.8803      1467.9408      57829.04       69.192012    
     22450   1375.1895     -5409.7207     -5136.8634      1841.5869      57822.98       69.204657    
     22460   1354.9717     -5405.5378     -5136.692       2246.2384      57816.354      69.20935     
     22470   1362.5204     -5406.6438     -5136.3002      2243.9902      57809.113      69.213118    
     22480   1398.9784     -5413.318      -5135.7406      1717.1666      57801.382      69.217287    
     22490   1424.3031     -5417.7173     -5135.1152      1227.0052      57793.159      69.220879    
     22500   1424.2862     -5417.1266     -5134.5278      1215.5634      57784.437      69.213419    
     22510   1407.4395     -5413.2448     -5133.9886      1490.8188      57775.384      69.19853     
     22520   1379.5231     -5407.1715     -5133.4544      1905.9097      57766.485      69.194187    
     22530   1362.3373     -5403.1344     -5132.8272      2178.2367      57758.479      69.200373    
     22540   1387.6867     -5407.4377     -5132.1008      2231.1299      57751.67       69.199605    
     22550   1417.5237     -5412.5793     -5131.3223      2328.1581      57745.833      69.195274    
     22560   1427.4021     -5413.8325     -5130.6155      2385.5578      57740.753      69.20464     
     22570   1433.2666     -5414.4229     -5130.0422      2307.9286      57736.265      69.235518    
     22580   1424.7385     -5412.2714     -5129.5828      2407.2051      57732.026      69.290198    
     22590   1408.4249     -5408.6653     -5129.2136      2547.6181      57727.736      69.361604    
     22600   1386.7141     -5404.0045     -5128.8606      2592.9945      57723.452      69.433275    
     22610   1380.0193     -5402.2745     -5128.4589      2334.0264      57719.268      69.489865    
     22620   1384.1309     -5402.6177     -5127.9863      1920.4674      57714.764      69.531006    
     22630   1391.5903     -5403.5856     -5127.4741      1652.2265      57709.304      69.562123    
     22640   1393.8863     -5403.4885     -5126.9215      1663.5081      57702.632      69.58673     
     22650   1411.3814     -5406.4032     -5126.3649      1785.6388      57694.97       69.617168    
     22660   1408.2574     -5405.2478     -5125.8294      2133.0932      57686.629      69.647394    
     22670   1392.6114     -5401.6194     -5125.3053      2520.5907      57678.013      69.669552    
     22680   1379.6533     -5398.4861     -5124.7431      2829.5855      57669.799      69.682399    
     22690   1378.6363     -5397.6541     -5124.1129      2916.809       57662.505      69.683629    
     22700   1371.8874     -5395.5839     -5123.3818      3130.8716      57655.984      69.674979    
     22710   1375.603      -5395.5004     -5122.561       3338.4586      57650.041      69.663025    
     22720   1403.7728     -5400.1897     -5121.6611      3288.5752      57644.845      69.660837    
     22730   1435.391      -5405.5605     -5120.7584      3270.1412      57640.499      69.678494    
     22740   1448.5931     -5407.377      -5119.9553      3311.255       57637.056      69.72873     
     22750   1445.8075     -5406.1831     -5119.3142      3499.1945      57634.593      69.808977    
     22760   1440.4585     -5404.6234     -5118.8158      3803.1927      57633.509      69.905203    
     22770   1440.1018     -5404.1785     -5118.4416      3929.3087      57634.478      70.002549    
     22780   1445.4619     -5404.972      -5118.1717      4015.9617      57637.836      70.092291    
     22790   1452.222      -5406.1443     -5118.0026      3989.6443      57643.623      70.184104    
     22800   1451.9787     -5406.0751     -5117.9817      3940.8263      57651.847      70.289705    
     22810   1457.3721     -5407.2517     -5118.0882      3635.9255      57662.533      70.403435    
     22820   1458.2673     -5407.6824     -5118.3412      3332.9573      57675.139      70.521358    
     22830   1453.652      -5407.1682     -5118.7428      3124.8555      57688.708      70.646267    
     22840   1443.9049     -5405.7682     -5119.2768      2788.0344      57702.56       70.781263    
     22850   1443.798      -5406.3988     -5119.9286      2430.5756      57716.219      70.927247    
     22860   1445.5508     -5407.4967     -5120.6787      2143.4044      57729.304      71.082315    
     22870   1451.0679     -5409.4702     -5121.5576      2044.4906      57741.629      71.243921    
     22880   1447.7592     -5409.8342     -5122.5781      2144.8451      57753.412      71.41288     
     22890   1440.5928     -5409.561      -5123.7268      2284.9433      57765.104      71.586093    
     22900   1421.1854     -5406.9163     -5124.9327      2435.3846      57777.038      71.746102    
     22910   1400.8393     -5404.0646     -5126.118       2524.4699      57789.531      71.883574    
     22920   1382.2605     -5401.437      -5127.1767      2759.688       57802.65       72.017374    
     22930   1368.5878     -5399.6052     -5128.0578      2904.9384      57816.43       72.152836    
     22940   1375.3098     -5401.6121     -5128.7309      2872.3042      57830.87       72.290136    
     22950   1375.7806     -5402.1918     -5129.2172      2753.4555      57845.654      72.441447    
     22960   1366.1915     -5400.6064     -5129.5345      2541.1048      57860.449      72.61133     
     22970   1368.0418     -5401.11       -5129.6709      2301.1075      57875.069      72.774341    
     22980   1378.8367     -5403.2512     -5129.6703      2083.5734      57889.483      72.900675    
     22990   1370.3591     -5401.4374     -5129.5385      2208.9309      57903.477      73.014524    
     23000   1387.248      -5404.5729     -5129.323       2192.6339      57916.906      73.143118    
     23010   1392.9151     -5405.395      -5129.0207      2235.888       57929.674      73.29659     
     23020   1409.1891     -5408.3199     -5128.7166      2175.3652      57941.827      73.462521    
     23030   1408.1436     -5407.8384     -5128.4425      2269.3797      57953.462      73.624003    
     23040   1400.0022     -5405.974      -5128.1935      2440.2711      57965.267      73.775818    
     23050   1396.3521     -5405.0109     -5127.9546      2574.6047      57977.652      73.913888    
     23060   1396.4253     -5404.7794     -5127.7086      2607.6433      57990.532      74.061394    
     23070   1425.0797     -5410.2228     -5127.4665      2276.2244      58004.033      74.240693    
     23080   1454.0499     -5415.8049     -5127.3006      1883.0122      58017.814      74.427166    
     23090   1450.8028     -5415.1501     -5127.2901      1724.7576      58031.07       74.607049    
     23100   1432.7246     -5411.7103     -5127.4373      1806.7934      58043.403      74.780775    
     23110   1401.8648     -5405.7839     -5127.6339      2067.718       58055.06       74.947643    
     23120   1397.4691     -5405.0889     -5127.811       2024.8573      58066.569      75.11392     
     23130   1403.1384     -5406.3398     -5127.9371      1769.1724      58078.076      75.293608    
     23140   1398.9929     -5405.6122     -5128.032       1798.1778      58089.328      75.487271    
     23150   1394.2246     -5404.7347     -5128.1006      2027.3897      58100.24       75.693743    
     23160   1387.9208     -5403.5065     -5128.1231      2349.8164      58111.019      75.914397    
     23170   1382.6056     -5402.4115     -5128.0827      2666.8885      58121.954      76.143658    
     23180   1385.3296     -5402.8535     -5127.9843      2778.243       58133.128      76.354496    
     23190   1386.6489     -5402.9451     -5127.8141      2674.3183      58144.326      76.528403    
     23200   1391.4119     -5403.6782     -5127.6022      2375.9147      58155.363      76.684598    
     23210   1399.1955     -5404.9717     -5127.3513      2065.641       58165.925      76.838387    
     23220   1391.6081     -5403.208      -5127.093       2060.2048      58175.695      76.984874    
     23230   1366.4929     -5397.9401     -5126.8083      2445.4033      58184.774      77.120046    
     23240   1357.7385     -5395.8149     -5126.4202      2723.6706      58193.62       77.230881    
     23250   1383.6453     -5400.4376     -5125.9026      2551.4288      58202.548      77.316997    
     23260   1422.256      -5407.5227     -5125.3268      2163.7937      58211.498      77.395909    
     23270   1442.8489     -5411.0973     -5124.8154      1926.2098      58220.026      77.482305    
     23280   1445.9259     -5411.3562     -5124.4638      1910.5186      58227.824      77.588297    
     23290   1456.5368     -5413.2762     -5124.2785      1807.7508      58234.899      77.724345    
     23300   1450.2712     -5412.037      -5124.2824      1674.6335      58241.261      77.896633    
     23310   1457.0507     -5413.5941     -5124.4944      1345.3513      58246.957      78.079869    
     23320   1444.3509     -5411.4668     -5124.8869      1187.1898      58252.039      78.249574    
     23330   1413.8809     -5405.9828     -5125.4486      1448.3098      58256.668      78.401719    
     23340   1389.3312     -5401.7069     -5126.0437      1776.333       58261.113      78.542763    
     23350   1378.2699     -5400.0736     -5126.6051      1950.9899      58265.189      78.683539    
     23360   1376.8091     -5400.2981     -5127.1195      1948.5853      58268.483      78.841717    
     23370   1375.7728     -5400.5468     -5127.5737      1877.5611      58270.862      79.010924    
     23380   1360.0685     -5397.8093     -5127.9523      1932.0301      58272.392      79.173998    
     23390   1354.0735     -5396.8883     -5128.2207      1878.0076      58273.273      79.317459    
     23400   1391.1274     -5404.4213     -5128.4017      1498.1704      58273.395      79.425281    
     23410   1400.8269     -5406.4984     -5128.5543      1393.8772      58272.101      79.505024    
     23420   1387.8463     -5404.1301     -5128.7616      1608.3584      58269.018      79.574088    
     23430   1352.3987     -5397.2791     -5128.9438      1969.3797      58264.338      79.636064    
     23440   1356.2033     -5398.1239     -5129.0337      2011.0118      58258.44       79.685832    
     23450   1389.8615     -5404.7703     -5129.0018      1814.3405      58251.369      79.726942    
     23460   1400.58       -5406.8024     -5128.9072      1798.0634      58243.074      79.771129    
     23470   1403.5964     -5407.2781     -5128.7844      1704.5891      58233.962      79.824515    
     23480   1406.742      -5407.8007     -5128.6829      1916.8001      58224.301      79.895992    
     23490   1378.6421     -5402.0914     -5128.5491      2423.6323      58214.315      79.973037    
     23500   1389.245      -5404.0148     -5128.3687      2580.1909      58204.121      80.032304    
     23510   1387.9008     -5403.4885     -5128.1091      2648.7021      58193.86       80.074475    
     23520   1407.1297     -5406.9851     -5127.7904      2554.0685      58183.85       80.11725     
     23530   1457.2273     -5416.6509     -5127.5161      2129.6249      58173.911      80.172133    
     23540   1478.1788     -5420.7155     -5127.4236      2189.3196      58163.235      80.224665    
     23550   1476.9364     -5420.6942     -5127.6489      2529.6503      58151.709      80.281146    
     23560   1470.8984     -5420.0596     -5128.2123      2733.2794      58139.56       80.35118     
     23570   1459.8416     -5418.7588     -5129.1053      2781.965       58126.842      80.42116     
     23580   1415.9884     -5411.1786     -5130.2262      2974.5926      58113.822      80.487742    
     23590   1365.2998     -5402.3002     -5131.4051      3009.327       58100.891      80.55343     
     23600   1334.3217     -5397.2047     -5132.4562      2849.3128      58088.126      80.617573    
     23610   1331.441      -5397.4728     -5133.2958      2413.7316      58075.524      80.673183    
     23620   1361.0411     -5404.006      -5133.9559      1933.8191      58062.701      80.7303      
     23630   1378.7221     -5408.064      -5134.5058      1663.8623      58049.092      80.782243    
     23640   1381.85       -5409.1952     -5135.0164      1606.1662      58034.395      80.808889    
     23650   1382.1826     -5409.7302     -5135.4854      1678.9785      58018.699      80.823431    
     23660   1386.1983     -5410.9929     -5135.9513      1671.8343      58002.367      80.8424      
     23670   1366.191      -5407.4524     -5136.3805      1774.7322      57985.567      80.864324    
     23680   1348.0117     -5404.1902     -5136.7254      1867.6541      57968.431      80.901585    
     23690   1351.198      -5405.035      -5136.938       1873.781       57951.296      80.977546    
     23700   1365.1404     -5407.8955     -5137.0321      1799.9816      57934.165      81.080499    
     23710   1377.5615     -5410.3645     -5137.0366      1702.6096      57916.864      81.178146    
     23720   1392.5575     -5413.3217     -5137.0183      1719.4582      57899.182      81.247629    
     23730   1389.4181     -5412.6731     -5136.9927      1901.3136      57881.022      81.298755    
     23740   1380.4061     -5410.8644     -5136.972       2063.516       57862.673      81.337911    
     23750   1368.167      -5408.376      -5136.9121      2318.1388      57844.473      81.372045    
     23760   1370.509      -5408.7286     -5136.8         2731.306       57826.592      81.41109     
     23770   1362.7845     -5406.9899     -5136.5939      3223.1334      57809.21       81.458496    
     23780   1369.4303     -5408.0193     -5136.3047      3192.0033      57792.594      81.509764    
     23790   1400.2893     -5413.7834     -5135.946       2708.2846      57776.761      81.545374    
     23800   1410.1918     -5415.3779     -5135.5757      2375.8425      57761.56       81.559761    
     23810   1412.1528     -5415.4647     -5135.2734      2346.2374      57747.145      81.576289    
     23820   1416.2529     -5416.0433     -5135.0385      2462.4009      57733.715      81.617906    
     23830   1407.8453     -5414.2397     -5134.9031      2727.7786      57721.243      81.686148    
     23840   1394.6135     -5411.5466     -5134.8353      2947.0729      57709.643      81.764988    
     23850   1380.5016     -5408.7041     -5134.7928      3006.0802      57699.023      81.846768    
     23860   1395.3        -5411.603      -5134.7555      2743.842       57689.397      81.932533    
     23870   1407.2954     -5413.9706     -5134.743       2471.4997      57680.673      82.014944    
     23880   1396.6152     -5411.9297     -5134.8212      2440.4881      57672.773      82.103823    
     23890   1383.9992     -5409.5607     -5134.9554      2653.4056      57665.63       82.215927    
     23900   1386.118      -5410.1532     -5135.1275      3057.4287      57659.342      82.337379    
     23910   1366.3018     -5406.386      -5135.2921      3626.6296      57654.179      82.450822    
     23920   1360.2778     -5405.3302     -5135.4316      3773.8308      57650.365      82.557135    
     23930   1372.958      -5407.9417     -5135.5271      3369.2641      57647.915      82.677988    
     23940   1379.1245     -5409.2267     -5135.5886      2980.6921      57646.355      82.823322    
     23950   1398.9676     -5413.2294     -5135.6542      2562.2914      57645.072      82.982412    
     23960   1424.4989     -5418.4457     -5135.8047      2196.2279      57643.682      83.137923    
     23970   1433.9286     -5420.6382     -5136.1262      2159.4496      57641.987      83.273773    
     23980   1430.5726     -5420.5503     -5136.7042      2291.4373      57640.07       83.383342    
     23990   1405.6853     -5416.4158     -5137.5077      2562.8908      57638.502      83.473664    
     24000   1414.6762     -5419.2217     -5138.5297      2462.3106      57637.967      83.558921    
     24010   1397.3945     -5417.0054     -5139.7423      2716.3017      57638.578      83.646708    
     24020   1368.6375     -5412.6152     -5141.058       3025.2264      57640.407      83.718665    
     24030   1377.3635     -5415.676      -5142.3874      3045.5139      57643.566      83.771533    
     24040   1388.525      -5419.2319     -5143.7287      2919.853       57648.091      83.823287    
     24050   1384.1393     -5419.7047     -5145.0717      2942.0267      57653.824      83.877906    
     24060   1377.0168     -5419.597      -5146.3772      2915.9928      57660.527      83.936691    
     24070   1366.9553     -5418.8232     -5147.5997      2787.5695      57667.883      84.003556    
     24080   1342.2606     -5414.9817     -5148.658       2688.3726      57675.508      84.091366    
     24090   1325.2801     -5412.4468     -5149.4922      2516.8777      57683.202      84.19051     
     24100   1326.4967     -5413.2916     -5150.0957      2148.5013      57690.768      84.282577    
     24110   1317.3118     -5411.8517     -5150.4782      1851.5088      57697.958      84.36858     
     24120   1307.55       -5410.0737     -5150.6371      1871.3163      57704.62       84.456484    
     24130   1310.3137     -5410.5579     -5150.5728      1851.4692      57710.807      84.55121     
     24140   1291.7765     -5406.5874     -5150.2804      2029.4713      57716.678      84.656334    
     24150   1300.953      -5407.8757     -5149.748       2039.5734      57722.486      84.764861    
     24160   1332.7174     -5413.4209     -5148.9907      1745.1567      57727.964      84.878704    
     24170   1337.0197     -5413.3696     -5148.0858      1626.1612      57732.348      85.006044    
     24180   1323.9921     -5409.8108     -5147.1118      1613.0966      57735.245      85.130037    
     24190   1309.6723     -5405.8839     -5146.0262      1788.9816      57736.616      85.244372    
     24200   1332.868      -5409.3062     -5144.8461      1725.624       57736.379      85.358795    
     24210   1346.3308     -5410.741      -5143.6097      1813.44        57734.387      85.473446    
     24220   1347.3529     -5409.7628     -5142.4287      2041.7299      57730.705      85.591705    
     24230   1353.4651     -5409.8679     -5141.3211      2225.6372      57725.551      85.720224    
     24240   1357.8781     -5409.7405     -5140.318       2358.3376      57719.114      85.858472    
     24250   1352.0378     -5407.6703     -5139.4066      2413.0375      57711.522      85.997836    
     24260   1383.9702     -5413.2114     -5138.6119      2067.9873      57702.762      86.133616    
     24270   1385.5015     -5412.843      -5137.9397      1917.6649      57692.516      86.260853    
     24280   1393.0534     -5413.8428     -5137.441       1840.2662      57680.752      86.375537    
     24290   1385.7911     -5412.019      -5137.0582      2182.3174      57667.64       86.479756    
     24300   1376.0583     -5409.8137     -5136.784       2654.2156      57653.558      86.572984    
     24310   1362.2232     -5406.8284     -5136.5438      2914.3577      57638.802      86.664161    
     24320   1360.5839     -5406.2633     -5136.304       2873.2142      57623.418      86.745019    
     24330   1372.7132     -5408.4152     -5136.0492      2599.0466      57607.32       86.804075    
     24340   1370.0292     -5407.6534     -5135.82        2385.3622      57590.354      86.827391    
     24350   1375.1629     -5408.4609     -5135.6089      2094.9643      57572.413      86.814843    
     24360   1384.9501     -5410.2297     -5135.4358      2003.7502      57553.343      86.781818    
     24370   1353.6006     -5403.8599     -5135.2861      2358.8277      57532.959      86.739536    
     24380   1346.7356     -5402.3276     -5135.116       2462.4382      57511.401      86.696785    
     24390   1356.228      -5403.9518     -5134.8567      2382.5319      57488.841      86.680602    
     24400   1387.0344     -5409.7866     -5134.5791      1897.4363      57465.31       86.697587    
     24410   1399.2244     -5411.9766     -5134.3504      1824.8316      57440.563      86.724771    
     24420   1396.2218     -5411.2573     -5134.2269      2095.8599      57414.738      86.750757    
     24430   1394.492      -5410.8779     -5134.1908      2314.4852      57388.295      86.774491    
     24440   1401.0362     -5412.2512     -5134.2656      2266.2684      57361.696      86.801736    
     24450   1388.8673     -5410.021      -5134.4498      2301.2928      57335.063      86.819321    
     24460   1379.5657     -5408.4598     -5134.7342      2436.0808      57308.466      86.813396    
     24470   1378.0855     -5408.5082     -5135.0763      2490.5586      57282.015      86.78929     
     24480   1407.2531     -5414.7451     -5135.5259      2191.3083      57255.647      86.754208    
     24490   1423.1101     -5418.5486     -5136.1832      1923.9423      57229.206      86.711581    
     24500   1399.3375     -5414.7565     -5137.1079      2056.0281      57202.501      86.671825    
     24510   1380.3685     -5412.1263     -5138.2415      2153.6105      57175.439      86.640119    
     24520   1370.6686     -5411.4902     -5139.53        2151.3162      57148.059      86.609885    
     24530   1350.8412     -5408.9161     -5140.8899      2415.8857      57120.826      86.58827     
     24540   1350.8436     -5410.2971     -5142.2704      2666.9032      57094.348      86.574179    
     24550   1345.6019     -5410.5908     -5143.6041      2903.0956      57068.709      86.581819    
     24560   1341.0099     -5410.9391     -5144.8635      3034.2245      57043.619      86.610696    
     24570   1342.4291     -5412.3702     -5146.0131      2989.0918      57018.929      86.631298    
     24580   1356.5124     -5416.1917     -5147.0402      2761.2596      56994.846      86.627099    
     24590   1364.9698     -5418.8134     -5147.9838      2646.5666      56971.607      86.604172    
     24600   1374.3073     -5421.5354     -5148.8532      2639.569       56949.605      86.581171    
     24610   1388.4527     -5425.1792     -5149.6903      2519.7791      56929.103      86.565801    
     24620   1389.5592     -5426.2441     -5150.5357      2542.4842      56909.655      86.540331    
     24630   1375.878      -5424.3629     -5151.369       2785.7475      56890.893      86.506589    
     24640   1362.8907     -5422.5403     -5152.1233      3049.4272      56872.752      86.481374    
     24650   1378.206      -5426.2562     -5152.8004      2946.2483      56855.24       86.466243    
     24660   1377.5852     -5426.7642     -5153.4315      2746.9897      56838.388      86.464231    
     24670   1367.3495     -5425.3077     -5154.006       2663.0971      56822.259      86.479938    
     24680   1354.2357     -5423.2145     -5154.5147      2698.4067      56806.842      86.517848    
     24690   1331.6267     -5419.125      -5154.9112      2950.7576      56792.215      86.570143    
     24700   1327.4513     -5418.564      -5155.1786      3029.6933      56778.644      86.628909    
     24710   1318.3816     -5416.8787     -5155.2929      3031.5454      56766.253      86.701722    
     24720   1312.1777     -5415.6149     -5155.26        2934.2207      56755.13       86.777024    
     24730   1323.9245     -5417.7806     -5155.0951      2658.154       56745.172      86.84193     
     24740   1353.4831     -5423.3855     -5154.8351      2462.2551      56736.133      86.904317    
     24750   1374.0966     -5427.2153     -5154.5749      2487.7732      56727.932      86.969457    
     24760   1389.8176     -5430.1505     -5154.3908      2530.9557      56720.604      87.034088    
     24770   1382.1315     -5428.5469     -5154.3122      2874.663       56714.226      87.110801    
     24780   1375.7508     -5427.3149     -5154.3463      3378.2882      56708.911      87.207444    
     24790   1376.6666     -5427.5903     -5154.44        3689.1089      56704.919      87.328096    
     24800   1376.1792     -5427.6423     -5154.5887      3725.2317      56702.744      87.450181    
     24810   1376.2051     -5427.8782     -5154.8194      3549.672       56702.665      87.546211    
     24820   1357.3027     -5424.4164     -5155.1081      3421.9396      56704.104      87.623537    
     24830   1348.004      -5422.8743     -5155.411       3210.4739      56706.279      87.699149    
     24840   1326.384      -5418.8434     -5155.6698      3123.6074      56708.61       87.781644    
     24850   1309.5618     -5415.6746     -5155.8388      3132.2191      56710.889      87.86617     
     24860   1302.3314     -5414.2566     -5155.8554      3153.7326      56713.349      87.953672    
     24870   1317.0276     -5417.0208     -5155.7036      2847.3463      56716.225      88.047454    
     24880   1329.099      -5419.1338     -5155.4215      2608.8755      56719.468      88.154859    
     24890   1325.4785     -5418.0088     -5155.0149      2775.5318      56723.021      88.280248    
     24900   1334.4651     -5419.2524     -5154.4754      3075.8113      56726.987      88.415469    
     24910   1348.0778     -5421.3116     -5153.8337      3261.4196      56731.305      88.558985    
     24920   1355.6035     -5422.069      -5153.0978      3185.2491      56735.883      88.719375    
     24930   1363.3319     -5422.8069     -5152.3023      3017.6641      56740.58       88.89001     
     24940   1368.474      -5422.9746     -5151.4498      2901.3699      56745.299      89.058147    
     24950   1386.4728     -5425.652      -5150.5559      2736.3586      56749.948      89.224817    
     24960   1396.597      -5426.7946     -5149.6897      2592.4959      56754.378      89.385479    
     24970   1379.0191     -5422.4755     -5148.8583      2692.8811      56758.537      89.530978    
     24980   1393.2332     -5424.5072     -5148.0698      2501.1087      56762.434      89.655473    
     24990   1427.258      -5430.5123     -5147.3239      2231.9282      56765.809      89.765959    
     25000   1437.7374     -5432.0204     -5146.7527      2362.6817      56768.277      89.877877    
     25010   1429.2319     -5430.0245     -5146.4445      2697.7947      56769.883      89.995849    
     25020   1407.0953     -5425.5879     -5146.4         3031.3378      56770.944      90.121272    
     25030   1379.5139     -5420.3046     -5146.5893      3234.7053      56771.688      90.251546    
     25040   1353.5967     -5415.5024     -5146.9295      3383.5595      56772.597      90.400687    
     25050   1352.866      -5415.7998     -5147.3718      3159.0305      56774.185      90.578249    
     25060   1370.1963     -5419.7996     -5147.933       2764.856       56776.416      90.770517    
     25070   1376.8251     -5421.8599     -5148.678       2617.9254      56778.85       90.959477    
     25080   1377.4153     -5422.9779     -5149.679       2508.8161      56781.338      91.135564    
     25090   1371.0778     -5422.9735     -5150.932       2401.1978      56784.01       91.303935    
     25100   1354.0133     -5421.0414     -5152.3857      2420.4539      56786.956      91.468011    
     25110   1355.1767     -5422.849      -5153.9625      2435.5921      56790.276      91.631134    
     25120   1364.6111     -5426.3602     -5155.6018      2531.1694      56793.842      91.790666    
     25130   1362.478      -5427.5867     -5157.2515      2690.3198      56797.387      91.950697    
     25140   1370.7119     -5430.8375     -5158.8687      2683.9047      56801.011      92.128546    
     25150   1363.0921     -5430.8727     -5160.4157      2818.6938      56804.933      92.311826    
     25160   1327.8662     -5425.2583     -5161.7906      3211.9845      56809.447      92.490378    
     25170   1312.3084     -5423.3016     -5162.9208      3441.846       56814.801      92.670237    
     25180   1313.5218     -5424.4091     -5163.7875      3377.5013      56820.947      92.838031    
     25190   1326.0174     -5427.5486     -5164.4477      3033.0795      56827.621      92.983559    
     25200   1331.9261     -5429.2533     -5164.9801      2763.7765      56834.568      93.107524    
     25210   1318.6784     -5427.0634     -5165.4187      2697.9438      56841.906      93.216908    
     25220   1305.9143     -5424.8383     -5165.7262      2476.3463      56849.892      93.322941    
     25230   1306.9734     -5425.218      -5165.8958      2251.1725      56858.462      93.427081    
     25240   1308.5797     -5425.5806     -5165.9396      2230.0656      56867.367      93.529179    
     25250   1293.8826     -5422.5754     -5165.8506      2380.7789      56876.51       93.623541    
     25260   1290.484      -5421.6643     -5165.6138      2402.8462      56885.799      93.719209    
     25270   1289.9137     -5421.1414     -5165.204       2332.209       56894.856      93.830392    
     25280   1298.2009     -5422.2045     -5164.6228      2262.4789      56903.294      93.950609    
     25290   1301.9238     -5422.2074     -5163.8871      2267.0744      56911.178      94.067864    
     25300   1311.9236     -5423.3298     -5163.0254      2215.6501      56918.805      94.185546    
     25310   1332.1325     -5426.3745     -5162.0603      2015.8317      56926.309      94.313957    
     25320   1346.3538     -5428.2092     -5161.0734      1927.3706      56933.543      94.454075    
     25330   1329.4429     -5423.8865     -5160.106       2169.8467      56940.322      94.609588    
     25340   1332.509      -5423.5598     -5159.1709      2297.6233      56946.835      94.7792      
     25350   1339.4655     -5423.9993     -5158.2301      2307.006       56953.204      94.940048    
     25360   1348.1259     -5424.8408     -5157.3533      2261.2493      56959.162      95.070358    
     25370   1341.1288     -5422.6274     -5156.5283      2397.4335      56964.452      95.180942    
     25380   1346.8117     -5422.9991     -5155.7724      2527.4624      56969.358      95.281167    
     25390   1354.6166     -5423.8649     -5155.0895      2734.6939      56974.233      95.368596    
     25400   1348.6692     -5422.0983     -5154.503       2940.8377      56979.319      95.474188    
     25410   1351.8734     -5422.2239     -5153.9928      2924.7718      56984.631      95.632148    
     25420   1371.8493     -5425.7622     -5153.5676      2631.5533      56989.931      95.832603    
     25430   1374.6606     -5426.0204     -5153.268       2405.7195      56994.859      96.029143    
     25440   1362.7448     -5423.4924     -5153.1044      2292.7192      56999.229      96.189512    
     25450   1359.8736     -5422.8699     -5153.0515      2235.7         57003.004      96.294738    
     25460   1351.8022     -5421.2915     -5153.0746      2306.1454      57006.228      96.358162    
     25470   1346.949      -5420.4141     -5153.1601      2496.47        57008.905      96.423487    
     25480   1342.6706     -5419.6857     -5153.2806      2728.586       57010.984      96.512039    
     25490   1361.4571     -5423.5785     -5153.4459      2669.5414      57012.296      96.614528    
     25500   1371.9789     -5425.9156     -5153.6954      2764.6107      57012.394      96.722173    
     25510   1352.6023     -5422.4509     -5154.0753      2961.0721      57011.234      96.83085     
     25520   1330.2854     -5418.46       -5154.5123      2991.2508      57009.276      96.923625    
     25530   1320.5706     -5416.9717     -5154.9516      2814.7424      57006.893      97.01236     
     25540   1319.6419     -5417.1837     -5155.3479      2622.6523      57004.329      97.10791     
     25550   1344.7765     -5422.5612     -5155.7382      2229.6522      57001.697      97.192488    
     25560   1379.1928     -5429.8638     -5156.2122      1769.6585      56998.703      97.247707    
     25570   1385.1066     -5431.7076     -5156.8826      1811.7064      56994.95       97.275778    
     25580   1376.9307     -5431.0345     -5157.8318      2184.6074      56990.62       97.292571    
     25590   1350.3775     -5426.9561     -5159.0218      2829.6338      56986.402      97.322662    
     25600   1335.6357     -5425.4019     -5160.3926      3252.3713      56983.044      97.372245    
     25610   1331.2935     -5426.0475     -5161.8998      3255.424       56980.929      97.452974    
     25620   1314.9216     -5424.3853     -5163.486       2942.7691      56979.909      97.564432    
     25630   1301.0985     -5423.2141     -5165.0575      2596.0835      56979.315      97.6893      
     25640   1285.8036     -5421.5962     -5166.4743      2395.0561      56978.341      97.807177    
     25650   1288.6986     -5423.376      -5167.6797      2040.8292      56976.483      97.908493    
     25660   1280.9563     -5422.8087     -5168.6486      1963.4741      56973.614      97.992683    
     25670   1257.5404     -5418.832      -5169.318       2134.1223      56969.839      98.058946    
     25680   1264.4945     -5420.5847     -5169.6909      2176.3235      56965.365      98.114551    
     25690   1287.9488     -5425.366      -5169.8185      2096.0585      56960.419      98.161539    
     25700   1304.6564     -5428.6633     -5169.8008      2054.4588      56955.034      98.18529     
     25710   1302.1621     -5428.0635     -5169.6959      2159.0645      56949.358      98.188625    
     25720   1303.2876     -5428.1254     -5169.5344      2357.2141      56943.472      98.178936    
     25730   1293.7202     -5426.0068     -5169.3142      2599.0951      56937.472      98.168623    
     25740   1293.7846     -5425.7563     -5169.051       2710.5196      56931.69       98.183286    
     25750   1288.0714     -5424.2802     -5168.7083      2693.1553      56926.492      98.214649    
     25760   1312.4482     -5428.7417     -5168.3332      2438.2449      56922.014      98.25389     
     25770   1309.9988     -5427.8672     -5167.9447      2592.2144      56918.041      98.295004    
     25780   1308.9844     -5427.2798     -5167.5585      2706.9876      56914.561      98.322832    
     25790   1318.2719     -5428.7252     -5167.1612      2534.6707      56911.449      98.339513    
     25800   1318.575      -5428.4048     -5166.7806      2244.6687      56908.368      98.362379    
     25810   1325.4818     -5429.4115     -5166.4169      2033.3193      56904.881      98.409179    
     25820   1328.3592     -5429.6407     -5166.0753      1996.2714      56900.555      98.493869    
     25830   1327.1189     -5429.0768     -5165.7574      2064.9909      56895.316      98.605509    
     25840   1354.089      -5434.1426     -5165.4719      1865.2631      56889.425      98.717342    
     25850   1369.3698     -5436.9976     -5165.295       1884.032       56883.205      98.822706    
     25860   1360.0798     -5435.1145     -5165.2552      2239.7559      56877.132      98.929165    
     25870   1367.8325     -5436.765      -5165.3675      2423.0807      56871.715      99.021202    
     25880   1374.9693     -5438.4375     -5165.6239      2322.8892      56866.849      99.126769    
     25890   1370.4448     -5437.9995     -5166.0836      2126.4874      56862.127      99.266536    
     25900   1358.4113     -5436.2377     -5166.7094      1880.3359      56857.37       99.412357    
     25910   1329.6147     -5431.262      -5167.4474      1920.459       56852.432      99.558898    
     25920   1319.7989     -5430.0875     -5168.2205      1988.0947      56847.369      99.710921    
     25930   1313.7659     -5429.6565     -5168.9865      2311.5197      56842.182      99.860004    
     25940   1316.9697     -5431.0389     -5169.7333      2739.5018      56836.926      100.00096    
     25950   1302.9622     -5428.9801     -5170.4537      3201.0658      56831.929      100.13964    
     25960   1285.3984     -5426.135      -5171.0936      3295.6834      56827.609      100.27876    
     25970   1297.1525     -5429.0116     -5171.638       2801.139       56823.972      100.41091    
     25980   1286.4108     -5427.3274     -5172.0851      2587.7807      56820.418      100.52908    
     25990   1267.4543     -5423.8964     -5172.4153      2632.5398      56816.548      100.62762    
     26000   1262.2729     -5423.0328     -5172.5798      2712.5149      56812.406      100.70887    
     26010   1257.0959     -5421.9591     -5172.5333      2783.9963      56808.252      100.78798    
     26020   1282.8172     -5426.8348     -5172.3055      2674.1899      56804.313      100.88168    
     26030   1294.8425     -5428.8212     -5171.9059      2603.0698      56800.706      100.99656    
     26040   1309.1836     -5431.158      -5171.3972      2512.5195      56797.445      101.12641    
     26050   1304.7145     -5429.6656     -5170.7916      2572.6936      56794.651      101.26045    
     26060   1288.5665     -5425.7516     -5170.0815      2791.9889      56792.566      101.38875    
     26070   1290.723      -5425.3055     -5169.2076      2843.5903      56791.289      101.49558    
     26080   1279.4506     -5421.9987     -5168.1373      3048.002       56790.68       101.57348    
     26090   1272.1575     -5419.2451     -5166.8308      3163.9128      56790.828      101.64759    
     26100   1303.6594     -5423.9462     -5165.2815      2999.9381      56792.008      101.74178    
     26110   1316.5058     -5424.7734     -5163.5598      2914.2845      56794.275      101.84283    
     26120   1337.898      -5427.327      -5161.8689      2949.9596      56797.622      101.93701    
     26130   1348.1312     -5427.8093     -5160.3208      3020.1392      56802.045      102.03617    
     26140   1375.5948     -5431.9969     -5159.0592      2879.6144      56807.456      102.14902    
     26150   1381.7609     -5432.3148     -5158.1537      2860.58        56813.602      102.27557    
     26160   1385.1023     -5432.4518     -5157.6277      2906.2032      56820.122      102.407      
     26170   1382.1158     -5431.6538     -5157.4222      3001.8449      56826.712      102.52492    
     26180   1384.4277     -5432.1786     -5157.4883      2898.483       56833.261      102.62472    
     26190   1366.1352     -5428.827      -5157.7662      2898.6693      56839.91       102.72337    
     26200   1350.7527     -5426.1716     -5158.163       2773.801       56846.904      102.83427    
     26210   1359.1437     -5428.3118     -5158.6382      2552.8842      56854.239      102.95798    
     26220   1351.2451     -5427.2838     -5159.1774      2514.6076      56861.61       103.08499    
     26230   1339.5912     -5425.5743     -5159.7803      2703.0472      56868.769      103.19723    
     26240   1331.3993     -5424.5592     -5160.3905      3000.4383      56876.03       103.29135    
     26250   1337.611      -5426.4016     -5161.0004      3131.2071      56884.267      103.37288    
     26260   1351.3269     -5429.774      -5161.6514      3002.9561      56894.386      103.45133    
     26270   1344.6521     -5429.1731     -5162.3749      2861.9848      56906.629      103.55172    
     26280   1333.7143     -5427.7544     -5163.1264      2747.4091      56920.519      103.68476    
     26290   1327.9984     -5427.3885     -5163.8946      2579.6575      56935.451      103.83415    
     26300   1304.1505     -5423.3954     -5164.6333      2568.2333      56950.897      103.97128    
     26310   1302.2192     -5423.6689     -5165.29        2430.5306      56966.702      104.08294    
     26320   1316.7103     -5427.1505     -5165.8963      2283.234       56983.044      104.17072    
     26330   1320.1287     -5428.411      -5166.4786      2381.2165      57000.072      104.2499     
     26340   1309.698      -5426.926      -5167.0632      2568.3662      57017.969      104.3436     
     26350   1305.8885     -5426.733      -5167.626       2626.2922      57037.094      104.46652    
     26360   1306.0291     -5427.2747     -5168.1398      2627.064       57057.548      104.60882    
     26370   1304.0241     -5427.3655     -5168.6284      2750.7677      57079.168      104.75368    
     26380   1285.3581     -5424.0985     -5169.065       2962.6879      57102.038      104.89467    
     26390   1284.8013     -5424.3523     -5169.4293      2848.8214      57126.527      105.04582    
     26400   1277.0608     -5423.0845     -5169.6973      2575.4305      57152.689      105.22071    
     26410   1275.7782     -5422.9819     -5169.8493      2097.1996      57180.207      105.41152    
     26420   1281.3997     -5424.1337     -5169.8856      1525.9036      57208.643      105.60651    
     26430   1282.031      -5424.1992     -5169.8259      1181.4614      57237.546      105.79392    
     26440   1262.7773     -5420.2137     -5169.6606      1325.0975      57266.497      105.95946    
     26450   1248.0523     -5416.9724     -5169.341       1591.0508      57295.298      106.10215    
     26460   1274.0282     -5421.624      -5168.8386      1604.7117      57323.85       106.25269    
     26470   1289.7941     -5424.0879     -5168.1743      1652.2373      57352.014      106.43783    
     26480   1298.9347     -5425.1382     -5167.4109      1735.7721      57379.906      106.6436     
     26490   1314.4353     -5427.3929     -5166.5901      1700.0517      57407.588      106.8452     
     26500   1314.5809     -5426.5613     -5165.7296      1672.7745      57434.655      107.04234    
     26510   1324.3166     -5427.6372     -5164.8738      1550.2842      57460.663      107.24848    
     26520   1316.0572     -5425.1539     -5164.0293      1713.627       57485.337      107.45731    
     26530   1313.3988     -5423.8081     -5163.211       1885.2653      57508.824      107.6405     
     26540   1339.3296     -5428.136      -5162.3938      1867.6364      57531.518      107.77628    
     26550   1349.8051     -5429.4642     -5161.6436      1753.1771      57553.779      107.88308    
     26560   1356.3539     -5430.1392     -5161.0191      1724.1094      57575.731      107.9823     
     26570   1345.8425     -5427.5779     -5160.5435      1714.4024      57597.6        108.10088    
     26580   1363.2331     -5430.7009     -5160.216       1171.3623      57619.77       108.25437    
     26590   1366.6588     -5431.2363     -5160.0716      832.10859      57641.948      108.42911    
     26600   1352.1498     -5428.4363     -5160.1504      859.1554       57664.032      108.61077    
     26610   1349.9066     -5428.3191     -5160.4783      907.52315      57686.283      108.79422    
     26620   1337.4811     -5426.4221     -5161.0467      1116.1017      57708.638      109.00389    
     26630   1330.8156     -5425.9431     -5161.8902      1194.3635      57731          109.23926    
     26640   1318.3823     -5424.6449     -5163.059       1193.1066      57753.408      109.48222    
     26650   1295.2067     -5421.4893     -5164.5017      1195.5844      57775.773      109.71121    
     26660   1296.4509     -5423.4097     -5166.1752      864.0468       57797.595      109.9266     
     26670   1283.4411     -5422.6304     -5167.9773      694.41132      57818.096      110.13113    
     26680   1276.102      -5422.9629     -5169.766       676.10372      57836.882      110.33093    
     26690   1273.1528     -5424.0374     -5171.4256      721.96052      57853.981      110.53989    
     26700   1257.7142     -5422.3857     -5172.8372      815.83252      57869.64       110.76592    
     26710   1262.9288     -5424.5544     -5173.9713      891.85676      57884.08       111.00363    
     26720   1264.0655     -5425.6399     -5174.8312      1115.1802      57897.274      111.2312     
     26730   1250.3231     -5423.5228     -5175.4408      1526.015       57909.106      111.41831    
     26740   1253.899      -5424.6233     -5175.8318      1650.7432      57919.537      111.55339    
     26750   1263.5379     -5426.7458     -5176.0418      1572.7542      57928.514      111.65243    
     26760   1254.3872     -5424.9869     -5176.0986      1526.2992      57936.075      111.73638    
     26770   1273.6277     -5428.7545     -5176.0485      1141.8735      57942.373      111.81249    
     26780   1264.9349     -5426.8722     -5175.891       955.88834      57947.351      111.88414    
     26790   1247.8079     -5423.2357     -5175.6528      1089.0799      57950.839      111.96326    
     26800   1234.5847     -5420.2394     -5175.2801      1212.991       57952.818      112.05369    
     26810   1232.1124     -5419.1935     -5174.7247      1267.3502      57953.305      112.14574    
     26820   1249.7193     -5421.9668     -5174.0046      1224.8698      57952.438      112.21932    
     26830   1260.9963     -5423.3525     -5173.1528      1210.5436      57950.237      112.2636     
     26840   1259.2986     -5422.0847     -5172.2218      1222.0452      57946.482      112.29076    
     26850   1280.7286     -5425.3557     -5171.2408      901.49234      57941.127      112.31392    
     26860   1297.5864     -5427.7258     -5170.2661      798.47461      57934.199      112.32861    
     26870   1311.0139     -5429.5012     -5169.3773      746.37356      57925.711      112.31029    
     26880   1324.2366     -5431.3689     -5168.6214      722.68609      57915.59       112.27167    
     26890   1325.6308     -5431.0576     -5168.0335      776.67358      57903.664      112.24997    
     26900   1331.1024     -5431.7285     -5167.6187      922.55401      57889.908      112.25092    
     26910   1306.6821     -5426.6151     -5167.3507      1337.5084      57874.646      112.27555    
     26920   1310.1656     -5427.1282     -5167.1725      1514.6245      57858.465      112.31005    
     26930   1310.9317     -5427.167      -5167.0594      1636.4505      57841.575      112.32302    
     26940   1308.9802     -5426.7393     -5167.0188      1696.9439      57823.858      112.29785    
     26950   1314.7075     -5427.9111     -5167.0543      1635.9526      57804.896      112.25586    
     26960   1314.6245     -5428.0225     -5167.1821      1571.3322      57784.174      112.21305    
     26970   1311.6675     -5427.6299     -5167.3763      1659.5818      57761.653      112.16153    
     26980   1310.6259     -5427.6896     -5167.6426      1675.9185      57737.647      112.10262    
     26990   1304.4472     -5426.7968     -5167.9757      1559.4452      57712.165      112.04694    
     27000   1294.6642     -5425.2323     -5168.3524      1268.0685      57684.905      111.98818    
     27010   1276.3214     -5421.9756     -5168.7351      1074.5129      57655.688      111.91839    
     27020   1275.1302     -5422.0906     -5169.0865      972.28299      57624.467      111.84237    
     27030   1281.2951     -5423.6235     -5169.3962      1036.7252      57591.082      111.77383    
     27040   1292.2516     -5426.1035     -5169.7023      1154.3522      57555.243      111.71988    
     27050   1277.4355     -5423.4866     -5170.0251      1579.8468      57516.561      111.6684     
     27060   1263.3108     -5420.9696     -5170.3107      1965.7339      57475.062      111.59917    
     27070   1269.8428     -5422.4824     -5170.5274      2051.3506      57431.027      111.50019    
     27080   1275.8267     -5423.8363     -5170.694       2070.1873      57384.616      111.36381    
     27090   1274.3677     -5423.6715     -5170.8187      1953.5693      57336.058      111.19487    
     27100   1293.5662     -5427.576      -5170.914       1650.0054      57285.687      111.03403    
     27110   1325.0158     -5433.9408     -5171.0387      1375.7046      57233.654      110.89792    
     27120   1335.4853     -5436.2937     -5171.3143      1430.668       57180.142      110.75249    
     27130   1321.0984     -5433.9294     -5171.8046      1606.6055      57125.506      110.58096    
     27140   1324.3314     -5435.347      -5172.5807      1549.0216      57069.874      110.39581    
     27150   1323.0209     -5436.2109     -5173.7046      1508.4227      57013.022      110.1875     
     27160   1291.3505     -5431.3938     -5175.1714      1778.443       56955.102      109.96386    
     27170   1269.1857     -5428.704      -5176.8794      2059.3244      56896.648      109.74484    
     27180   1260.57       -5428.812      -5178.6969      2154.6679      56838.027      109.5288     
     27190   1260.856      -5430.657      -5180.4851      2218.1485      56779.395      109.31645    
     27200   1269.4702     -5434.0488     -5182.1678      2262.6187      56720.891      109.12012    
     27210   1263.1409     -5434.2803     -5183.655       2276.1162      56662.818      108.92829    
     27220   1249.7632     -5432.8612     -5184.8903      2370.5386      56605.558      108.73559    
     27230   1245.1209     -5432.9114     -5185.8616      2375.218       56549.374      108.5532     
     27240   1252.9008     -5435.1969     -5186.6034      2179.3932      56494.137      108.38906    
     27250   1263.6746     -5437.905      -5187.1739      1936.8622      56439.497      108.23558    
     27260   1263.2238     -5438.2588     -5187.6171      1921.4185      56385.278      108.07427    
     27270   1257.1991     -5437.4004     -5187.9541      2020.9991      56331.62       107.91218    
     27280   1260.6766     -5438.3145     -5188.1782      2043.67        56278.672      107.76848    
     27290   1268.9447     -5440.1096     -5188.3328      2059.3903      56226.519      107.65476    
     27300   1261.3347     -5438.6931     -5188.4263      2264.4701      56175.196      107.56856    
     27310   1253.9698     -5437.2495     -5188.4439      2462.7302      56124.745      107.49717    
     27320   1268.196      -5440.0269     -5188.3986      2424.4056      56075.097      107.42358    
     27330   1251.9488     -5436.6786     -5188.274       2477.3386      56026.24       107.33624    
     27340   1255.2063     -5437.1422     -5188.0913      2429.6263      55978.179      107.23992    
     27350   1261.8854     -5438.1962     -5187.82        2583.8782      55930.741      107.13837    
     27360   1262.1263     -5437.908      -5187.484       2958.0217      55883.928      107.03955    
     27370   1263.5827     -5437.782      -5187.0691      3260.2103      55838.144      106.95675    
     27380   1267.0843     -5437.9779     -5186.5702      3256.0562      55794.058      106.89462    
     27390   1282.3379     -5440.4659     -5186.0317      3102.8872      55751.987      106.84661    
     27400   1271.4519     -5437.7289     -5185.4546      3046.462       55711.901      106.80243    
     27410   1284.8654     -5439.8071     -5184.8714      2805.62        55673.889      106.74857    
     27420   1291.4029     -5440.522      -5184.2891      2750.1369      55637.689      106.69257    
     27430   1299.5507     -5441.5964     -5183.747       2846.7265      55602.921      106.63749    
     27440   1298.5116     -5440.8867     -5183.2434      3120.9288      55569.607      106.57579    
     27450   1317.7205     -5444.2606     -5182.806       3264.4188      55537.91       106.49603    
     27460   1305.5753     -5441.5001     -5182.4553      3729.2525      55507.904      106.4151     
     27470   1305.8864     -5441.3236     -5182.217       4228.5319      55479.904      106.36468    
     27480   1295.8414     -5439.1633     -5182.0498      4504.6364      55454.25       106.35953    
     27490   1291.5389     -5438.2156     -5181.9558      4585.4209      55431.268      106.38738    
     27500   1286.6758     -5437.2019     -5181.907       4377.5249      55410.978      106.42491    
     27510   1287.8243     -5437.4359     -5181.9131      4017.4954      55392.859      106.47324    
     27520   1278.4032     -5435.6349     -5181.9814      3885.2396      55376.386      106.53164    
     27530   1278.1253     -5435.6686     -5182.0702      3721.8842      55361.545      106.59451    
     27540   1293.6354     -5438.8916     -5182.2158      3557.2801      55348.335      106.6614     
     27550   1291.4074     -5438.6938     -5182.4601      3596.619       55336.615      106.7268     
     27560   1277.0249     -5436.2139     -5182.8338      3878.5176      55326.425      106.78308    
     27570   1259.6939     -5433.2271     -5183.2857      4184.8926      55318.064      106.84477    
     27580   1262.1085     -5434.2231     -5183.8027      4278.4897      55311.774      106.9159     
     27590   1262.1644     -5434.7996     -5184.3681      4286.9728      55307.595      106.98186    
     27600   1265.8185     -5436.1542     -5184.9977      4239.6987      55305.373      107.03888    
[...]
     48200   1207.1727     -5390.5111     -5150.9907      202.10117      66867.529      377.49995    
     48210   1205.4463     -5389.8051     -5150.6272      76.561284      66916.755      377.9278     
     48220   1214.9613     -5391.3501     -5150.2844     -160.51113      66965.384      378.34001    
     48230   1216.0904     -5391.2823     -5149.9926     -317.32382      67012.263      378.71137    
     48240   1201.774      -5388.2021     -5149.753      -344.57533      67056.639      379.04608    
     48250   1196.408      -5386.9058     -5149.5213     -508.02891      67098.258      379.35564    
     48260   1206.4571     -5388.6504     -5149.272      -827.46789      67136.289      379.63556    
     48270   1210.6631     -5389.2418     -5149.0289     -1028.9422      67169.234      379.88084    
     48280   1198.9408     -5386.6992     -5148.8122     -937.20715      67196.175      380.0933     
     48290   1197.5477     -5386.2089     -5148.5982     -801.82066      67217.627      380.28737    
     48300   1197.4601     -5385.9529     -5148.3596     -706.3098       67234.38       380.47664    
     48310   1192.4182     -5384.6858     -5148.0929     -480.54239      67247.15       380.67065    
     48320   1195.6432     -5385.0106     -5147.7779     -357.51916      67257.041      380.86947    
     48330   1207.894      -5387.0775     -5147.414      -297.92682      67264.81       381.06333    
     48340   1217.7331     -5388.6599     -5147.0442     -257.12862      67270.845      381.23896    
     48350   1215.9649     -5387.9645     -5146.6996     -200.0792       67275.423      381.41819    
     48360   1218.6908     -5388.1941     -5146.3884     -176.98058      67278.866      381.60674    
     48370   1232.1429     -5390.6001     -5146.1253     -309.46412      67281.2        381.79537    
     48380   1236.7238     -5391.3406     -5145.9569     -333.14448      67281.916      381.96501    
     48390   1223.8372     -5388.7416     -5145.9148     -176.86966      67280.984      382.09738    
     48400   1210.5819     -5386.1635     -5145.9667     -9.4855772      67279.178      382.17865    
     48410   1213.3873     -5386.8472     -5146.0938     -20.280473      67277.311      382.21196    
     48420   1211.0618     -5386.582      -5146.29       -90.653532      67275.389      382.22831    
     48430   1204.7321     -5385.5951     -5146.559      -131.92575      67273.062      382.23152    
     48440   1208.6792     -5386.7289     -5146.9096     -53.55403       67270.127      382.23033    
     48450   1189.8793     -5383.4172     -5147.3281      241.17538      67267.083      382.27182    
     48460   1178.3919     -5381.5701     -5147.7602      437.78049      67265.353      382.3887     
     48470   1180.3226     -5382.3604     -5148.1675      370.4771       67265.871      382.55684    
     48480   1182.5339     -5383.1792     -5148.5475      179.46         67268.286      382.74362    
     48490   1179.7766     -5382.98       -5148.8954     -12.823841      67271.614      382.92807    
     48500   1190.3337     -5385.3856     -5149.2064     -352.28179      67274.717      383.08306    
     48510   1193.5279     -5386.3264     -5149.5134     -618.80749      67275.922      383.186      
     48520   1185.0616     -5384.9443     -5149.8111     -742.16898      67273.913      383.24925    
     48530   1197.8605     -5387.774      -5150.1014     -979.3044       67267.986      383.31721    
     48540   1204.2478     -5389.3469     -5150.4069     -1139.178       67257.089      383.41242    
     48550   1196.2584     -5388.1165     -5150.7616     -1103.0803      67240.509      383.50865    
     48560   1174.9455     -5384.2544     -5151.1284     -898.40156      67218.512      383.57161    
     48570   1155.1498     -5380.6099     -5151.4116     -643.7914       67192.274      383.5888     
     48580   1155.1997     -5380.7556     -5151.5475     -474.44612      67163.158      383.55395    
     48590   1157.5928     -5381.1969     -5151.5139     -287.19073      67132.135      383.46935    
     48600   1158.4624     -5381.1581     -5151.3025      33.749302      67100.298      383.35888    
     48610   1160.4344     -5381.1453     -5150.8985      345.03006      67069.27       383.26977    
     48620   1168.0388     -5382.0494     -5150.2938      613.65868      67040.653      383.21681    
     48630   1192.4196     -5386.11       -5149.5169      754.24854      67015.761      383.19011    
     48640   1214.8947     -5389.6853     -5148.6328      861.21393      66995.297      383.19803    
     48650   1230.153      -5391.8269     -5147.7469      946.9282       66979.735      383.24395    
     48660   1230.3514     -5391.0487     -5146.9294      980.79677      66969.424      383.30447    
     48670   1242.5341     -5392.7545     -5146.218       756.33276      66964.334      383.36598    
     48680   1251.5177     -5393.967      -5145.648       376.74309      66963.24       383.43911    
     48690   1248.3874     -5392.9585     -5145.2605      50.331939      66964.181      383.53437    
     48700   1239.4297     -5390.9821     -5145.0614     -131.06141      66965.409      383.66052    
     48710   1219.1349     -5386.912      -5145.0182     -82.123304      66966.003      383.80751    
     48720   1199.8413     -5383.1133     -5145.0476      69.912703      66966.218      383.96468    
     48730   1196.9331     -5382.5837     -5145.0951      177.16414      66966.804      384.13227    
     48740   1185.474      -5380.3315     -5145.1165      302.10997      66968.324      384.31154    
     48750   1192.7349     -5381.7561     -5145.1004      301.79493      66971.374      384.49968    
     48760   1205.8592     -5384.3071     -5145.0474      153.49674      66975.882      384.68704    
     48770   1194.7634     -5382.0557     -5144.9975      186.99493      66981.212      384.86991    
     48780   1183.9388     -5379.8317     -5144.9213      223.00425      66987.452      385.03112    
     48790   1193.3322     -5381.5598     -5144.7856      64.061019      66994.654      385.15037    
     48800   1202.8061     -5383.2532     -5144.5992     -90.47132       67002.104      385.2354     
     48810   1216.3522     -5385.7416     -5144.3999     -216.02138      67009.016      385.32292    
     48820   1213.2055     -5384.9462     -5144.2288     -246.38859      67014.776      385.4426     
     48830   1212.2242     -5384.6188     -5144.0961     -284.32136      67019.145      385.58783    
     48840   1218.1042     -5385.6866     -5143.9973     -381.96389      67021.892      385.74836    
     48850   1230.075      -5388.0227     -5143.9582     -464.43275      67022.614      385.90656    
     48860   1240.095      -5390.1068     -5144.0542     -484.16211      67020.91       386.03834    
     48870   1223.2981     -5387.0398     -5144.3199     -356.32929      67016.741      386.12263    
     48880   1201.5548     -5383.1188     -5144.7131     -327.21125      67010.703      386.16503    
     48890   1194.9703     -5382.2798     -5145.1806     -527.3391       67002.881      386.19252    
     48900   1195.713      -5382.932      -5145.6854     -663.66168      66992.429      386.21131    
     48910   1204.3828     -5385.215      -5146.2482     -658.67718      66978.645      386.20383    
     48920   1198.7486     -5384.7279     -5146.879      -417.40578      66961.642      386.17292    
     48930   1196.9346     -5385.0542     -5147.5652     -177.90722      66942.606      386.1427     
     48940   1210.2495     -5388.4417     -5148.3108     -142.59035      66922.743      386.13315    
     48950   1215.8337     -5390.3928     -5149.154      -230.29805      66902.304      386.14936    
     48960   1216.5199     -5391.4969     -5150.122      -386.01467      66880.822      386.18178    
     48970   1202.6707     -5389.8237     -5151.1966     -392.73568      66857.567      386.22986    
     48980   1174.4961     -5385.3219     -5152.285      -189.50205      66832.577      386.2702     
     48990   1167.0954     -5384.8535     -5153.2851      8.5345419      66806.826      386.2888     
     49000   1164.6208     -5385.2322     -5154.1547      246.74564      66781.403      386.30252    
     49010   1171.7779     -5387.3829     -5154.8854      369.21684      66757.442      386.32312    
     49020   1191.1984     -5391.8727     -5155.5219      308.91119      66735.504      386.36559    
     49030   1204.0656     -5395.0349     -5156.1311      197.10189      66715.343      386.44996    
     49040   1202.0539     -5395.2598     -5156.7551      82.955829      66696.376      386.55591    
     49050   1192.1115     -5393.9176     -5157.3856      32.810499      66678.062      386.6381     
     49060   1185.6814     -5393.2441     -5157.988       22.206402      66660.065      386.67551    
     49070   1186.2712     -5393.9121     -5158.5389      64.164317      66642.31       386.67741    
     49080   1198.4668     -5396.8469     -5159.0539      198.86844      66625.026      386.66917    
     49090   1193.8955     -5396.443      -5159.557       573.77875      66609.018      386.67509    
     49100   1180.9491     -5394.3527     -5160.0354      916.6114       66596.135      386.72107    
     49110   1184.6311     -5395.5007     -5160.4529      931.44178      66588.018      386.82924    
     49120   1192.6362     -5397.46       -5160.8239      722.53798      66584.702      386.99225    
     49130   1196.9634     -5398.6824     -5161.1877      551.02836      66585.181      387.17168    
     49140   1190.5283     -5397.7646     -5161.5468      535.30848      66588.595      387.3373     
     49150   1190.4503     -5398.1041     -5161.9017      468.96435      66594.718      387.48642    
     49160   1186.1522     -5397.5925     -5162.243       485.80171      66603.305      387.63122    
     49170   1173.9983     -5395.4916     -5162.5535      620.67404      66614.467      387.78252    
     49180   1172.0711     -5395.3612     -5162.8055      587.20624      66628.74       387.94204    
     49190   1172.6586     -5395.6447     -5162.9724      442.34761      66646.02       388.10952    
     49200   1174.893      -5396.1588     -5163.0432      241.10615      66665.576      388.28568    
     49210   1182.657      -5397.6863     -5163.0302      69.679587      66686.412      388.46856    
     49220   1193.3558     -5399.7125     -5162.9336     -27.119615      66707.618      388.66279    
     49230   1197.1186     -5400.3109     -5162.7854     -51.12384       66728.683      388.85612    
     49240   1198.7588     -5400.4395     -5162.5885     -61.683486      66749.485      389.04127    
     49250   1202.86       -5401.002      -5162.3373     -210.04265      66769.885      389.23469    
     49260   1208.295      -5401.7831     -5162.0401     -422.83641      66789.18       389.44226    
     49270   1216.1675     -5403.0223     -5161.7173     -667.34789      66806.235      389.63399    
     49280   1212.8645     -5402.0479     -5161.3982     -777.35725      66819.842      389.79655    
     49290   1196.3232     -5398.4473     -5161.0796     -742.29767      66829.44       389.9562     
     49300   1196.8646     -5398.1887     -5160.7136     -776.06168      66835.103      390.12543    
     49310   1201.8464     -5398.7593     -5160.2957     -754.03651      66836.711      390.30564    
     49320   1188.0205     -5395.5377     -5159.8174     -440.89791      66834.501      390.49068    
     49330   1181.1664     -5393.6162     -5159.2559     -54.122096      66830.008      390.67333    
     49340   1186.788      -5394.0454     -5158.5697      193.85921      66825.176      390.84685    
     49350   1196.4349     -5395.1616     -5157.7718      321.9512       66821.343      390.99005    
     49360   1220.9509     -5399.1643     -5156.9102      259.65405      66819.126      391.08806    
     49370   1237.2899     -5401.5699     -5156.0739      176.01085      66818.257      391.17122    
     49380   1226.1265     -5398.623      -5155.342       301.44904      66818.455      391.27486    
     49390   1225.7166     -5397.921      -5154.7213      409.57324      66820.243      391.41275    
     49400   1219.8803     -5396.2244     -5154.1826      425.33081      66824.153      391.57634    
     49410   1220.8387     -5395.9504     -5153.7186      384.61526      66830.338      391.75408    
     49420   1221.5116     -5395.6882     -5153.3228      332.22473      66838.59       391.9474     
     49430   1204.0494     -5391.8807     -5152.9801      411.62317      66848.702      392.17553    
     49440   1208.0835     -5392.3722     -5152.6711      279.73076      66860.84       392.44994    
     49450   1210.4727     -5392.5505     -5152.3754      211.38085      66874.542      392.76586    
     49460   1201.1085     -5390.4232     -5152.1061      249.50328      66889.464      393.11725    
     49470   1200.2248     -5389.9772     -5151.8354      319.65262      66905.766      393.50347    
     49480   1210.438      -5391.7192     -5151.551       308.03357      66923.751      393.90664    
     49490   1218.5397     -5393.0544     -5151.2787      198.69212      66943.361      394.30093    
     49500   1228.0029     -5394.7101     -5151.0567      57.680595      66964.062      394.6582     
     49510   1222.5039     -5393.4866     -5150.9243     -12.391547      66985.158      394.97161    
     49520   1204.9084     -5389.9427     -5150.8717     -56.116745      67006.215      395.27565    
     49530   1197.0233     -5388.3508     -5150.8443     -54.705536      67027.038      395.58019    
     49540   1199.7074     -5388.8408     -5150.8017     -26.357169      67047.64       395.87781    
     49550   1213.4791     -5391.5288     -5150.7572     -55.760619      67068.108      396.17366    
     49560   1222.7735     -5393.3763     -5150.7606     -44.971304      67088.356      396.47258    
     49570   1211.7305     -5391.2717     -5150.847       36.395751      67108.437      396.77494    
     49580   1198.6016     -5388.8126     -5150.9929      58.463508      67128.734      397.074      
     49590   1196.2347     -5388.5072     -5151.1571     -46.407946      67149.351      397.36106    
     49600   1196.1046     -5388.6573     -5151.3331     -120.86017      67169.788      397.62393    
     49610   1192.868      -5388.2065     -5151.5244     -114.39419      67189.648      397.86125    
     49620   1189.9079     -5387.8015     -5151.7067      0.12394214     67209.012      398.08801    
     49630   1202.1295     -5390.4148     -5151.8951     -10.012297      67228.334      398.32203    
     49640   1196.4009     -5389.4832     -5152.1001     -13.226039      67247.659      398.57859    
     49650   1190.2538     -5388.4834     -5152.32       -80.157039      67266.92       398.87744    
     49660   1196.1805     -5389.879      -5152.5397     -247.17252      67285.713      399.21285    
     49670   1199.5251     -5390.7693     -5152.7663     -389.49437      67303.247      399.55367    
     49680   1206.0218     -5392.3187     -5153.0267     -578.65048      67318.66       399.88025    
     49690   1201.6524     -5391.7522     -5153.3271     -689.46811      67331.043      400.174      
     49700   1201.6803     -5392.1008     -5153.6703     -835.21689      67339.718      400.41718    
     49710   1210.0388     -5394.1589     -5154.0699     -969.13577      67343.893      400.61048    
     49720   1210.7038     -5394.7661     -5154.5451     -975.97834      67342.953      400.76347    
     49730   1197.679      -5392.7362     -5155.0995     -845.96697      67336.887      400.89077    
     49740   1191.13       -5392.0433     -5155.7061     -805.03245      67326.27       401.02046    
     49750   1183.071      -5391.0703     -5156.3321     -777.91753      67311.371      401.1541     
     49760   1170.3355     -5389.1433     -5156.932      -683.49923      67292.364      401.28433    
     49770   1170.0743     -5389.6241     -5157.4646     -625.29417      67269.707      401.40092    
     49780   1166.1666     -5389.2905     -5157.9064     -585.57347      67243.746      401.4736     
     49790   1171.0172     -5390.6019     -5158.2554     -561.08497      67214.74       401.48289    
     49800   1176.8682     -5392.0195     -5158.512      -575.00428      67182.766      401.4343     
     49810   1179.2555     -5392.6787     -5158.6975     -490.61926      67147.839      401.3591     
     49820   1172.8322     -5391.5175     -5158.8108     -283.81623      67110.457      401.28495    
     49830   1169.7278     -5390.9121     -5158.8214     -82.282996      67071.671      401.21621    
     49840   1177.5953     -5392.3689     -5158.7171     -69.428024      67032.436      401.15846    
     49850   1181.6247     -5392.9677     -5158.5164     -152.33113      66992.885      401.11013    
     49860   1173.3816     -5391.0311     -5158.2154     -170.34727      66952.684      401.04816    
     49870   1172.4161     -5390.4097     -5157.7855     -109.49528      66911.737      400.96108    
     49880   1169.6899     -5389.27       -5157.1868      59.786687      66870.369      400.85238    
     49890   1168.8488     -5388.3256     -5156.4092      302.65932      66829.463      400.73475    
     49900   1173.8359     -5388.3259     -5155.4201      558.76548      66790.279      400.63917    
     49910   1194.2344     -5391.2029     -5154.2497      614.11413      66754.065      400.58608    
     49920   1221.4084     -5395.3293     -5152.9844      531.14731      66721.172      400.5762     
     49930   1226.028      -5395.0034     -5151.7419      462.82674      66691.183      400.58576    
     49940   1222.0499     -5393.0731     -5150.6009      401.23323      66663.719      400.56512    
     49950   1231.6676     -5393.9575     -5149.577       264.36027      66638.395      400.49693    
     49960   1221.0612     -5390.9597     -5148.6837      421.33849      66614.718      400.41466    
     49970   1216.6707     -5389.3231     -5147.9182      658.1751       66593.382      400.35037    
     49980   1212.5523     -5387.8129     -5147.2251      920.9458       66575.578      400.33361    
     49990   1221.2719     -5388.9185     -5146.6006      943.84258      66562.492      400.40557    
     50000   1229.6429     -5390.0486     -5146.0698      907.50633      66554.378      400.56108    
Loop time of 4950.2 on 1 procs for 20000 steps with 1536 atoms

Performance: 0.349 ns/day, 68.753 hours/ns, 4.040 timesteps/s, 6.206 katom-step/s
138.2% CPU use with 1 MPI tasks x 1 OpenMP threads

MPI task timing breakdown:
Section |  min time  |  avg time  |  max time  |%varavg| %total
---------------------------------------------------------------
Pair    | 4891.9     | 4891.9     | 4891.9     |   0.0 | 98.82
Bond    | 0.045829   | 0.045829   | 0.045829   |   0.0 |  0.00
Neigh   | 5.0784     | 5.0784     | 5.0784     |   0.0 |  0.10
Comm    | 0.66097    | 0.66097    | 0.66097    |   0.0 |  0.01
Output  | 50.767     | 50.767     | 50.767     |   0.0 |  1.03
Modify  | 1.5313     | 1.5313     | 1.5313     |   0.0 |  0.03
Other   |            | 0.1708     |            |       |  0.00

Nlocal:           1536 ave        1536 max        1536 min
Histogram: 1 0 0 0 0 0 0 0 0 0
Nghost:           2295 ave        2295 max        2295 min
Histogram: 1 0 0 0 0 0 0 0 0 0
Neighs:              0 ave           0 max           0 min
Histogram: 1 0 0 0 0 0 0 0 0 0
FullNghs:        35834 ave       35834 max       35834 min
Histogram: 1 0 0 0 0 0 0 0 0 0

Total # of neighbors = 35834
Ave neighs/atom = 23.329427
Ave special neighs/atom = 0
Neighbor list builds = 2000
Dangerous builds = 2000
unfix           3

write_data      structure.end.data
System init for write_data ...
write_restart   structure.end
System init for write_restart ...
                    
Total wall time: 2:10:52
