LAMMPS (2 Aug 2023)
OMP_NUM_THREADS environment is not set. Defaulting to 1 thread. (src/comm.cpp:98)
  using 1 OpenMP thread(s) per MPI task
Reading restart file ...
  restart file = 2 Aug 2023, LAMMPS = 2 Aug 2023
  restoring atom style full from restart
  orthogonal box = (-0.33623157 -0.341427 -13.879934) to (25.471202 25.476397 89.284846)
  1 by 1 by 1 MPI processor grid
  pair style chgnet/gpu stores no restart info
  1536 atoms
Finding 1-2 1-3 1-4 neighbors ...
  special bond factors lj:    0        0        0       
  special bond factors coul:  0        0        0       
     0 = max # of 1-2 neighbors
     0 = max # of 1-3 neighbors
     0 = max # of 1-4 neighbors
     1 = max # of special neighbors
  special bonds CPU = 0.002 seconds
  read_restart CPU = 0.015 seconds
Resetting peratom fix info from restart file:
  fix style: STORE/ATOM, fix ID: msd_COMPUTE_STORE
All restart file peratom fix info was re-assigned
Neighbor list info ...
  update: every = 1 steps, delay = 10 steps, check = yes
  max neighbors/atom: 2000, page size: 100000
  master list distance cutoff = 6.3
  ghost atom cutoff = 6.3
  binsize = 3.15, bins = 9 9 33
  1 neighbor lists, perpetual/occasional/extra = 1 0 0
  (1) pair chgnet/gpu, perpetual
      attributes: full, newton on
      pair build: full/bin
      stencil: full/bin/3d
      bin: standard
Setting up Verlet run ...
  Unit style    : metal
  Current step  : 20000
  Time step     : 0.001
Per MPI rank memory allocation (min/avg/max) = 6.512 | 6.512 | 6.512 Mbytes
   Step          Temp          PotEng         TotEng         Press          Volume        c_msd[4]   
     20000   1480.9672     -5265.483      -4971.6379      1074.1698      68737.846      80.319031    
     20010   1474.5485     -5264.172      -4971.6005      1165.4912      68739.028      80.428916    
     20020   1471.0253     -5263.3579     -4971.4854      1238.893       68742.748      80.559208    
     20030   1460.2047     -5260.9882     -4971.2626      1216.8702      68749.016      80.706526    
     20040   1460.966      -5260.7834     -4970.9069      1036.9299      68757.407      80.864124    
     20050   1471.3545     -5262.3446     -4970.4068      752.16432      68767.188      81.02438     
     20060   1475.0605     -5262.4493     -4969.7762      465.81856      68777.597      81.181707    
     20070   1486.0044     -5263.8801     -4969.0356      138.18003      68787.916      81.332179    
     20080   1496.0204     -5265.0348     -4968.2029     -104.88728      68797.54       81.473443    
     20090   1501.3521     -5265.2043     -4967.3146     -169.99685      68806.32       81.606982    
     20100   1497.5879     -5263.5337     -4966.3908     -7.475344       68814.52       81.737334    
     20110   1481.4556     -5259.364      -4965.422       311.36262      68822.524      81.86922     
     20120   1470.3175     -5256.0916     -4964.3595      592.70558      68830.654      82.005696    
     20130   1478.3208     -5256.4856     -4963.1656      659.77738      68838.974      82.147956    
     20140   1499.3822     -5259.3497     -4961.8508      661.56419      68847.271      82.295537    
     20150   1515.7667     -5261.2471     -4960.4972      664.1872       68855.491      82.447818    
     20160   1524.4989     -5261.6737     -4959.1913      662.33275      68863.925      82.605045    
     20170   1535.428      -5262.6497     -4957.9988      607.588        68872.912      82.768817    
     20180   1541.5753     -5262.8463     -4956.9757      540.52097      68882.577      82.941668    
     20190   1548.5887     -5263.4172     -4956.1551      524.27646      68892.905      83.124573    
     20200   1552.254      -5263.5626     -4955.5732      578.17769      68903.826      83.315476    
     20210   1536.4318     -5260.066      -4955.216       791.57229      68915.398      83.511047    
     20220   1527.8888     -5258.1991     -4955.0441      985.81637      68927.887      83.708456    
     20230   1535.7606     -5259.7386     -4955.0218      1086.8019      68941.518      83.907451    
     20240   1545.1293     -5261.7469     -4955.1712      1197.2541      68956.465      84.109916    
     20250   1534.715      -5260.0232     -4955.5138      1464.3137      68972.997      84.318787    
     20260   1513.0501     -5256.2168     -4956.006       1790.2585      68991.617      84.538197    
     20270   1501.6838     -5254.5421     -4956.5865      1944.6409      69012.847      84.771984    
     20280   1512.3747     -5257.2949     -4957.2181      1806.7612      69036.98       85.023595    
     20290   1532.9328     -5262.1014     -4957.9456      1533.6627      69063.847      85.294117    
     20300   1536.4063     -5263.674      -4958.8289      1404.5641      69093.153      85.583047    
     20310   1511.2983     -5259.7262     -4959.863       1553.0603      69124.938      85.890939    
     20320   1476.9545     -5253.9763     -4960.9274      1742.9126      69159.572      86.218606    
     20330   1477.5563     -5255.0914     -4961.9231      1650.6808      69197.305      86.564207    
     20340   1497.0581     -5259.88       -4962.8422      1392.8522      69237.894      86.925592    
     20350   1500.5396     -5261.4349     -4963.7064      1279.8069      69280.812      87.301865    
     20360   1501.4024     -5262.423      -4964.5232      1172.0126      69325.693      87.691444    
     20370   1503.2788     -5263.5249     -4965.2529      1064.4004      69372.239      88.092209    
     20380   1514.9811     -5266.5095     -4965.9156      894.60728      69420.215      88.503861    
     20390   1512.402      -5266.5985     -4966.5163      790.47834      69469.504      88.92859     
     20400   1493.3504     -5263.3414     -4967.0393      826.07392      69520.187      89.369615    
     20410   1484.8179     -5262.0725     -4967.4634      796.13647      69572.537      89.829931    
     20420   1481.2491     -5261.7063     -4967.8053      688.0155       69626.724      90.310149    
     20430   1477.6612     -5261.2518     -4968.0627      564.18745      69682.845      90.808673    
     20440   1475.1212     -5260.9545     -4968.2693      436.82659      69740.665      91.320391    
     20450   1466.8487     -5259.4603     -4968.4165      457.63395      69799.691      91.838773    
     20460   1455.1659     -5257.2188     -4968.493       554.63564      69859.517      92.359788    
     20470   1454.8925     -5257.1565     -4968.485       600.39318      69919.862      92.88251     
     20480   1470.3483     -5260.1371     -4968.3989      511.91512      69980.405      93.406412    
     20490   1475.3775     -5261.0167     -4968.2807      575.36577      70040.869      93.930115    
     20500   1461.5251     -5258.1431     -4968.1556      835.58051      70101.432      94.455736    
     20510   1458.2205     -5257.329      -4967.9972      995.37884      70162.524      94.986626    
     20520   1472.0638     -5259.8635     -4967.785       1015.0032      70224.309      95.522773    
     20530   1477.4703     -5260.6985     -4967.5472      1008.6741      70286.706      96.062217    
     20540   1465.0581     -5257.9948     -4967.3062      1091.2276      70349.669      96.603311    
     20550   1454.3432     -5255.5913     -4967.0288      1119.3283      70413.267      97.143903    
     20560   1474.4048     -5259.2208     -4966.6778      836.90044      70477.441      97.68098     
     20570   1498.8916     -5263.6978     -4966.2962      468.30556      70541.838      98.214066    
     20580   1499.4026     -5263.4835     -4965.9806      409.00849      70606.224      98.747161    
     20590   1484.8574     -5260.3612     -4965.7442      570.75424      70670.674      99.285642    
     20600   1482.4877     -5259.6987     -4965.5519      691.02711      70735.282      99.832402    
     20610   1501.2508     -5263.2627     -4965.393       592.42598      70800.001      100.38748    
     20620   1515.2151     -5265.9562     -4965.3158      466.36224      70864.508      100.94912    
     20630   1513.082      -5265.5848     -4965.3677      379.74677      70928.289      101.51382    
     20640   1503.6101     -5263.9098     -4965.572       327.54816      70990.92       102.07765    
     20650   1483.491      -5260.2502     -4965.9044      359.05966      71052.265      102.63833    
     20660   1458.2785     -5255.6473     -4966.304       384.82268      71112.549      103.19585    
     20670   1438.8853     -5252.1863     -4966.6908      375.28506      71172.006      103.75093    
     20680   1428.4575     -5250.4138     -4966.9874      261.6849       71230.717      104.3054     
     20690   1438.2843     -5252.5378     -4967.1616     -50.350597      71288.454      104.8584     
     20700   1451.3977     -5255.2068     -4967.2287     -267.83423      71344.548      105.40398    
     20710   1441.5856     -5253.2461     -4967.2149     -248.80104      71398.381      105.93583    
     20720   1417.8758     -5248.4432     -4967.1164     -31.463217      71449.865      106.4523     
     20730   1394.3145     -5243.5031     -4966.8511      308.27976      71499.572      106.9587     
     20740   1379.6429     -5240.075      -4966.334       471.19773      71548.337      107.46279    
     20750   1390.6071     -5241.4039     -4965.4876      439.1879       71596.792      107.96887    
     20760   1414.0615     -5244.8624     -4964.2924      218.06034      71645.302      108.47884    
     20770   1439.6478     -5248.4641     -4962.8174     -13.541883      71694.019      108.99329    
     20780   1463.1999     -5251.4934     -4961.1736     -144.42627      71742.758      109.51078    
     20790   1466.75       -5250.5259     -4959.5017     -81.847016      71791.043      110.02839    
     20800   1458.318      -5247.2662     -4957.9151      175.20588      71838.489      110.54327    
     20810   1448.5226     -5243.8495     -4956.4419      396.90842      71885.027      111.05423    
     20820   1450.5662     -5242.8995     -4955.0864      512.62482      71930.651      111.5611     
     20830   1450.3788     -5241.6185     -4953.8426      525.73247      71975.35       112.0649     
     20840   1455.6562     -5241.5651     -4952.742       454.69063      72019.151      112.56549    
     20850   1468.5683     -5243.1379     -4951.7529      367.44757      72061.741      113.05809    
     20860   1486.102      -5245.7783     -4950.9144      262.40642      72102.705      113.53865    
     20870   1479.9707     -5243.8934     -4950.246       383.15317      72141.731      114.00648    
     20880   1471.1259     -5241.6215     -4949.729       552.34872      72178.894      114.46084    
     20890   1479.1883     -5242.8164     -4949.3243      584.57395      72214.667      114.90359    
     20900   1488.9291     -5244.4508     -4949.0259      570.58999      72249.555      115.33851    
     20910   1484.7915     -5243.4503     -4948.8464      582.13529      72284.047      115.76964    
     20920   1483.6683     -5243.1617     -4948.7807      538.25786      72318.633      116.19949    
     20930   1486.5869     -5243.7726     -4948.8125      468.20708      72353.794      116.63083    
     20940   1493.202      -5245.2177     -4948.945       328.58593      72389.882      117.06672    
     20950   1498.4725     -5246.5228     -4949.2044      242.45843      72426.87       117.5065     
     20960   1488.9627     -5245.0221     -4949.5906      235.45798      72464.478      117.94729    
     20970   1484.321      -5244.601      -4950.0904      164.73251      72502.411      118.38773    
     20980   1472.2509     -5242.79       -4950.6744      154.36889      72540.379      118.82809    
     20990   1452.8272     -5239.5579     -4951.2961      102.18         72578.233      119.26892    
     21000   1450.7448     -5239.7626     -4951.914      -105.54608      72615.856      119.71       
     21010   1467.019      -5243.5983     -4952.5207     -477.67273      72652.985      120.14868    
     21020   1490.9685     -5249.0123     -4953.1828     -904.52555      72689.029      120.57873    
     21030   1500.8877     -5251.7787     -4953.9811     -1107.6411      72723.268      120.99361    
     21040   1491.0563     -5250.8046     -4954.9576     -1066.9713      72755.513      121.39152    
     21050   1472.5639     -5248.233      -4956.0553     -867.94712      72786.031      121.77447    
     21060   1468.035      -5248.4967     -4957.2175     -738.86172      72815.191      122.14579    
     21070   1477.0788     -5251.4875     -4958.414      -773.53651      72843.308      122.50795    
     21080   1488.2959     -5254.9647     -4959.6655     -800.72023      72870.383      122.86066    
     21090   1476.8682     -5253.9906     -4960.9588     -674.1145       72896.103      123.20223    
     21100   1459.2866     -5251.7454     -4962.202      -534.14475      72920.175      123.53023    
     21110   1459.5914     -5252.9476     -4963.3438     -548.54429      72942.543      123.84419    
     21120   1458.9968     -5253.861      -4964.3751     -590.70741      72963.403      124.14806    
     21130   1443.8599     -5251.7545     -4965.272      -502.41683      72983.207      124.44731    
     21140   1431.8343     -5250.104      -4966.0076     -472.65303      73002.43       124.74491    
     21150   1428.8138     -5250.0648     -4966.5677     -542.77416      73021.239      125.03884    
     21160   1426.8576     -5250.0809     -4966.9719     -671.38153      73039.451      125.32406    
     21170   1421.563      -5249.298      -4967.2395     -717.51274      73056.683      125.59675    
     21180   1413.797      -5247.8979     -4967.3804     -763.64441      73072.689      125.85689    
     21190   1415.5144     -5248.2568     -4967.3985     -920.46327      73087.334      126.10563    
     21200   1424.5171     -5249.9645     -4967.3199     -1101.0565      73100.437      126.34288    
     21210   1422.3283     -5249.3837     -4967.1734     -1151.18        73111.96       126.56868    
     21220   1409.9143     -5246.7081     -4966.9609     -1114.9994      73122.203      126.78527    
     21230   1405.6232     -5245.5538     -4966.6581     -1080.8165      73131.46       126.99474    
     21240   1409.2368     -5245.8607     -4966.248      -1060.8659      73139.692      127.19759    
     21250   1410.0436     -5245.5201     -4965.7473     -976.19462      73146.673      127.39304    
     21260   1399.8517     -5242.9069     -4965.1562     -739.55405      73152.337      127.58209    
     21270   1397.2296     -5241.6896     -4964.4592     -600.30362      73157.005      127.76849    
     21280   1408.9809     -5243.2053     -4963.6433     -605.80518      73161.139      127.95623    
     21290   1428.4638     -5246.1753     -4962.7476     -718.7733       73165.024      128.14642    
     21300   1444.0558     -5248.3517     -4961.8303     -738.79484      73168.69       128.3366     
     21310   1470.2938     -5252.6957     -4960.9683     -838.89407      73172.104      128.52398    
     21320   1497.1195     -5257.2887     -4960.2387     -916.88202      73175.148      128.70727    
     21330   1506.2494     -5258.5997     -4959.7383     -815.74893      73177.607      128.88542    
     21340   1493.6144     -5255.844      -4959.4895     -576.64402      73179.28       129.05674    
     21350   1476.6344     -5252.4357     -4959.4502     -335.16778      73180.149      129.22082    
     21360   1460.722      -5249.3763     -4959.5482     -203.43925      73180.458      129.37948    
     21370   1445.4109     -5246.5012     -4959.711      -191.62752      73180.621      129.53511    
     21380   1444.999      -5246.614      -4959.9055     -392.47887      73181.047      129.68878    
     21390   1449.3114     -5247.6841     -4960.1199     -695.12725      73181.935      129.84093    
     21400   1446.5707     -5247.3915     -4960.3711     -942.66652      73183.197      129.99289    
     21410   1436.2675     -5245.6271     -4960.651      -1091.7391      73184.469      130.14608    
     21420   1429.2801     -5244.531      -4960.9414     -1199.3293      73185.202      130.29862    
     21430   1419.8615     -5242.9263     -4961.2054     -1244.2444      73184.98       130.44605    
     21440   1409.1035     -5241.0084     -4961.4221     -1219.5375      73183.746      130.58446    
     21450   1410.1643     -5241.3593     -4961.5625     -1187.1857      73181.674      130.71196    
     21460   1417.7106     -5242.9299     -4961.6359     -1140.2275      73178.795      130.82847    
     21470   1410.1043     -5241.4285     -4961.6436     -1012.1587      73174.994      130.93523    
     21480   1401.1787     -5239.5798     -4961.5659     -867.34634      73170.324      131.03459    
     21490   1412.9584     -5241.7269     -4961.3757     -882.69738      73164.989      131.12907    
     21500   1427.9523     -5244.3937     -4961.0675     -874.04961      73159.222      131.22054    
     21510   1438.5817     -5246.1021     -4960.6668     -730.265        73153.3        131.31191    
     21520   1439.1423     -5245.7377     -4960.1912     -461.61693      73147.577      131.40871    
     21530   1428.4656     -5243.0468     -4959.6187     -112.30495      73142.644      131.51858    
     21540   1430.0884     -5242.649      -4958.899       123.78842      73139.396      131.64859    
     21550   1443.4711     -5244.4054     -4958.0001      151.52892      73138.621      131.8028     
     21560   1462.4386     -5247.1113     -4956.9426      127.34871      73140.762      131.98229    
     21570   1465.9287     -5246.6481     -4955.7868      168.01602      73146.056      132.18586    
     21580   1460.7635     -5244.4471     -4954.6107      175.21734      73154.664      132.41174    
     21590   1448.3136     -5240.7894     -4953.4233      247.91461      73166.458      132.65861    
     21600   1436.4801     -5237.243      -4952.2248      212.19679      73180.976      132.92353    
     21610   1450.6757     -5238.8397     -4951.0049      1.4947539      73197.549      133.20076    
     21620   1466.6798     -5240.8187     -4949.8084     -132.33524      73215.588      133.48608    
     21630   1461.1473     -5238.6335     -4948.721      -69.848084      73234.743      133.77815    
     21640   1454.4391     -5236.3425     -4947.761       29.734755      73254.834      134.07753    
     21650   1466.9566     -5237.978      -4946.9128      17.647727      73275.737      134.38645    
     21660   1479.8657     -5239.8365     -4946.21        76.116742      73297.263      134.70699    
     21670   1479.4568     -5239.2407     -4945.6953      117.45157      73319.161      135.0393     
     21680   1474.0023     -5237.8407     -4945.3775      147.8231       73341.068      135.38105    
     21690   1468.6983     -5236.6501     -4945.2394      26.36892       73362.598      135.72916    
     21700   1465.111      -5235.9569     -4945.2579     -91.181368      73383.515      136.08157    
     21710   1481.1338     -5239.3206     -4945.4424     -358.64207      73403.883      136.43545    
     21720   1501.8261     -5243.8396     -4945.8558     -701.49602      73423.726      136.78441    
     21730   1501.2979     -5244.4581     -4946.5791     -864.57437      73442.781      137.12037    
     21740   1483.7684     -5242.021      -4947.6201     -760.53344      73460.895      137.43981    
     21750   1461.987      -5238.9836     -4948.9045     -532.81162      73478.313      137.74552    
     21760   1451.2895     -5238.3007     -4950.344      -375.51968      73495.793      138.04578    
     21770   1451.7946     -5239.9398     -4951.883      -312.82967      73514.155      138.34951    
     21780   1445.5979     -5240.2819     -4953.4545     -268.42527      73533.759      138.66183    
     21790   1433.5154     -5239.3964     -4954.9664     -255.27736      73554.473      138.98372    
     21800   1440.6291     -5242.2067     -4956.3652     -454.91379      73575.853      139.31147    
     21810   1449.2216     -5245.1982     -4957.6519     -601.0746       73597.379      139.6403     
     21820   1435.5047     -5243.6514     -4958.8267     -553.46593      73618.824      139.96806    
     21830   1407.2736     -5239.0536     -4959.8304     -366.71713      73640.232      140.29237    
     21840   1395.3151     -5237.4774     -4960.6269     -287.85428      73661.666      140.6104     
     21850   1383.0292     -5235.6273     -4961.2145     -170.68502      73682.898      140.92023    
     21860   1376.4974     -5234.707      -4961.5902     -165.91502      73703.779      141.22187    
     21870   1404.1814     -5240.4166     -4961.8069     -433.96084      73724.125      141.51437    
     21880   1450.873      -5249.848      -4961.974      -842.38491      73743.59       141.79639    
     21890   1473.6168     -5254.6219     -4962.2353     -1028.3729      73761.909      142.0683     
     21900   1473.0222     -5254.9468     -4962.6781     -967.17115      73779.042      142.33167    
     21910   1459.953      -5252.9685     -4963.2929     -785.63407      73795.137      142.58991    
     21920   1449.1178     -5251.5557     -4964.0299     -669.48715      73810.384      142.84566    
     21930   1444.8414     -5251.5282     -4964.851      -666.46795      73824.836      143.09822    
     21940   1441.5385     -5251.7585     -4965.7367     -721.4588       73838.375      143.34512    
     21950   1433.5034     -5251.0994     -4966.6718     -784.43718      73850.899      143.58442    
     21960   1416.5408     -5248.6816     -4967.6197     -829.07194      73862.441      143.81486    
     21970   1399.2279     -5246.1412     -4968.5144     -863.30416      73873.141      144.03602    
     21980   1394.0468     -5245.9171     -4969.3183     -935.84683      73883.131      144.24925    
     21990   1398.9732     -5247.5966     -4970.0202     -1051.2288      73892.389      144.45653    
     22000   1400.6569     -5248.5564     -4970.646      -1146.9678      73900.674      144.65909    
     22010   1390.2231     -5247.0443     -4971.2041     -1089.1456      73907.686      144.85777    
     22020   1375.6883     -5244.6182     -4971.6619     -1084.5303      73913.181      145.05231    
     22030   1366.7712     -5243.1786     -4971.9916     -1074.9219      73916.876      145.23912    
     22040   1365.2319     -5243.0552     -4972.1736     -1174.4278      73918.556      145.41307    
     22050   1369.8375     -5244.0092     -4972.2138     -1346.9661      73917.998      145.56857    
     22060   1375.3135     -5245.0071     -4972.1252     -1457.0463      73914.859      145.69986    
     22070   1386.6046     -5247.0575     -4971.9353     -1515.1689      73908.954      145.80462    
     22080   1398.499      -5249.1584     -4971.6762     -1536.0768      73900.42       145.8849     
     22090   1400.2225     -5249.2039     -4971.3796     -1467.8281      73889.577      145.9435     
     22100   1394.0316     -5247.6508     -4971.0549     -1351.1911      73876.671      145.98248    
     22110   1395.4365     -5247.5614     -4970.6868     -1308.8142      73861.747      146.00358    
     22120   1394.4457     -5246.9495     -4970.2715     -1253.695       73844.832      146.00977    
     22130   1383.8905     -5244.3754     -4969.7917     -1137.0495      73826.065      146.00374    
     22140   1376.6542     -5242.3608     -4969.2129     -1032.524       73805.715      145.98839    
     22150   1378.0048     -5241.9133     -4968.4974     -980.42258      73784.121      145.96698    
     22160   1387.1384     -5242.8647     -4967.6366     -936.50653      73761.559      145.94142    
     22170   1398.3688     -5244.0989     -4966.6425     -946.81413      73738.044      145.91189    
     22180   1403.4644     -5244.015      -4965.5476     -873.49806      73713.333      145.87704    
     22190   1401.1988     -5242.3912     -4964.3733     -728.22139      73687.346      145.83629    
     22200   1405.6062     -5242.0294     -4963.137      -608.52994      73660.134      145.78833    
     22210   1407.701      -5241.1644     -4961.8564     -491.68826      73631.636      145.73       
     22220   1416.8078     -5241.6804     -4960.5655     -502.83383      73601.723      145.65655    
     22230   1434.352      -5243.9216     -4959.3256     -598.96519      73570.31       145.56279    
     22240   1443.8702     -5244.6943     -4958.2098     -609.59977      73537.475      145.44563    
     22250   1442.5398     -5243.5001     -4957.2796     -530.58273      73503.53       145.30559    
     22260   1436.9057     -5241.6493     -4956.5466     -440.27745      73468.867      145.14532    
     22270   1435.1323     -5240.7469     -4955.9962     -349.69111      73433.686      144.96707    
     22280   1433.8508     -5240.1028     -4955.6063     -358.52746      73398.037      144.77311    
     22290   1442.0689     -5241.509      -4955.3819     -477.76922      73361.841      144.56627    
     22300   1457.1297     -5244.4457     -4955.3303     -587.24455      73325.06       144.35006    
     22310   1463.5293     -5245.8721     -4955.4869     -596.93281      73288.002      144.12938    
     22320   1456.6037     -5244.8646     -4955.8536     -459.3118       73251.251      143.91254    
     22330   1448.8775     -5243.8682     -4956.3901     -301.13874      73215.429      143.70897    
     22340   1440.9207     -5242.9471     -4957.0478     -192.46918      73181.005      143.5251     
     22350   1435.537      -5242.6025     -4957.7714     -140.53598      73148.293      143.36393    
     22360   1445.3993     -5245.3297     -4958.5418     -229.83593      73117.328      143.2245     
     22370   1450.2319     -5247.1014     -4959.3547     -284.30129      73087.756      143.10031    
     22380   1435.9622     -5245.0994     -4960.1839     -139.39345      73059.269      142.98376    
     22390   1414.0079     -5241.5156     -4960.9562      115.92215      73031.883      142.87188    
     22400   1396.7697     -5238.7416     -4961.6025      227.48788      73005.836      142.76659    
     22410   1392.9065     -5238.4852     -4962.1126      207.38648      72981.53       142.67159    
     22420   1395.4775     -5239.4011     -4962.5184      109.33436      72959.312      142.58962    
     22430   1391.1159     -5238.8723     -4962.855      -29.932856      72939.23       142.52193    
     22440   1390.2948     -5238.9972     -4963.1428     -190.70957      72921.049      142.46887    
     22450   1391.8669     -5239.5648     -4963.3985     -286.85545      72904.275      142.42929    
     22460   1379.3427     -5237.3108     -4963.6294     -287.16834      72888.286      142.39812    
     22470   1383.2568     -5238.2728     -4963.8149     -287.65804      72872.345      142.36704    
     22480   1407.3073     -5243.2141     -4963.9842     -463.3349       72855.768      142.33241    
     22490   1435.6069     -5249.0691     -4964.2241     -649.4608       72837.994      142.2932     
     22500   1451.1556     -5252.5587     -4964.6287     -633.92988      72818.875      142.24718    
     22510   1440.6582     -5251.0891     -4965.2419     -430.37715      72798.697      142.19399    
     22520   1416.2619     -5247.0209     -4966.0142     -181.20201      72778.141      142.13699    
     22530   1402.0572     -5245.0598     -4966.8716     -116.13873      72758.06       142.08139    
     22540   1400.5834     -5245.6692     -4967.7734     -156.07615      72738.95       142.03029    
     22550   1392.7252     -5245.0367     -4968.7001     -181.63838      72720.842      141.9826     
     22560   1388.6437     -5245.1481     -4969.6213     -218.68653      72703.73       141.93462    
     22570   1400.5256     -5248.4268     -4970.5424     -440.46828      72687.664      141.88556    
     22580   1413.9243     -5252.0468     -4971.5039     -691.24518      72672.406      141.83733    
     22590   1420.4035     -5254.3726     -4972.5442     -922.83107      72657.418      141.79023    
     22600   1412.6878     -5253.962      -4973.6645     -1050.4445      72642.107      141.74354    
     22610   1398.1504     -5252.2273     -4974.8142     -1057.4058      72626.091      141.6975     
     22620   1387.7302     -5251.281      -4975.9355     -1079.9393      72609.148      141.65011    
     22630   1383.1014     -5251.4183     -4976.9912     -1046.3275      72591.107      141.59726    
     22640   1378.2187     -5251.4172     -4977.9589     -1025.0311      72571.971      141.5367     
     22650   1378.781      -5252.4064     -4978.8365     -943.69769      72551.854      141.46832    
     22660   1379.2709     -5253.2955     -4979.6284     -814.973        72531.021      141.39346    
     22670   1383.6816     -5254.8849     -4980.3426     -702.69056      72509.931      141.31435    
     22680   1401.8944     -5259.1783     -4981.0224     -706.27657      72489.012      141.23426    
     22690   1414.2058     -5262.3358     -4981.7371     -685.13187      72468.238      141.15386    
     22700   1399.028      -5260.0909     -4982.5037     -454.80408      72447.334      141.07122    
     22710   1372.3102     -5255.5411     -4983.2551     -149.84805      72426.218      140.98478    
     22720   1360.8832     -5253.9481     -4983.9294     -40.051057      72405.061      140.89521    
     22730   1363.2762     -5254.9977     -4984.5042     -91.747179      72384.074      140.80636    
     22740   1356.0415     -5254.0367     -4984.9787     -131.971        72363.432      140.72246    
     22750   1345.605      -5252.3357     -4985.3484     -113.69092      72343.344      140.64648    
     22760   1337.302      -5250.9371     -4985.5973     -88.594085      72323.959      140.58012    
     22770   1333.8563     -5250.3647     -4985.7086     -124.57406      72305.136      140.52076    
     22780   1339.2063     -5251.3967     -4985.679      -251.07123      72286.536      140.46211    
     22790   1355.9755     -5254.5846     -4985.5396     -443.62529      72267.915      140.39825    
     22800   1377.3558     -5258.6323     -4985.3452     -592.58743      72249.041      140.32503    
     22810   1389.1856     -5260.7919     -4985.1576     -633.06952      72229.682      140.24102    
     22820   1385.5198     -5259.9313     -4985.0243     -588.81251      72209.572      140.14501    
     22830   1369.3513     -5256.6313     -4984.9324     -449.83501      72188.5        140.03527    
     22840   1346.2372     -5251.9369     -4984.8241     -242.97997      72166.643      139.91513    
     22850   1328.5965     -5248.2341     -4984.6216     -149.95287      72144.571      139.79317    
     22860   1331.1331     -5248.3934     -4984.2776     -183.92268      72122.87       139.67732    
     22870   1338.799      -5249.402      -4983.7651     -249.32282      72101.997      139.57279    
     22880   1341.4984     -5249.2767     -4983.1042     -283.42363      72082.491      139.48284    
     22890   1356.2632     -5251.4019     -4982.2998     -409.63294      72064.971      139.40977    
     22900   1379.4588     -5255.0896     -4981.3852     -588.18894      72049.535      139.3535     
     22910   1389.8943     -5256.1934     -4980.4184     -553.16025      72035.607      139.31151    
     22920   1394.0433     -5256.0604     -4979.4623     -397.09106      72022.628      139.28197    
     22930   1394.6957     -5255.2522     -4978.5246     -152.16968      72010.368      139.26529    
     22940   1402.0603     -5255.8063     -4977.6174     -40.804825      71998.88       139.26276    
     22950   1421.4911     -5258.8077     -4976.7635     -46.976236      71988.152      139.27415    
     22960   1432.4873     -5260.251      -4976.025      -60.191545      71978.088      139.29734    
     22970   1424.4991     -5258.0936     -4975.4526      55.98626       71968.546      139.32696    
     22980   1411.7413     -5255.1522     -4975.0425      226.13129      71959.561      139.35847    
     22990   1404.4886     -5253.4263     -4974.7556      276.9975       71951.323      139.39068    
     23000   1399.6461     -5252.2786     -4974.5687      230.98439      71943.846      139.42353    
     23010   1392.1414     -5250.7009     -4974.4801      119.17333      71936.914      139.45663    
     23020   1383.951      -5249.0764     -4974.4807     -44.45776       71930.203      139.48982    
     23030   1372.225      -5246.8301     -4974.561      -238.87524      71923.314      139.52219    
     23040   1360.0313     -5244.5482     -4974.6985     -456.6341       71915.834      139.55141    
     23050   1358.8933     -5244.4933     -4974.8694     -681.34968      71907.34       139.57565    
     23060   1368.5507     -5246.6147     -4975.0747     -863.20132      71897.511      139.59497    
     23070   1377.4768     -5248.66       -4975.3489     -858.65295      71886.254      139.61017    
     23080   1380.0874     -5249.5675     -4975.7384     -653.85838      71873.707      139.62086    
     23090   1384.0326     -5250.8668     -4976.2549     -431.49178      71860.157      139.62576    
     23100   1396.6493     -5254.0452     -4976.9299     -260.29828      71846.018      139.6255     
     23110   1413.1265     -5258.2028     -4977.8182     -139.11054      71831.731      139.62335    
     23120   1429.081      -5262.5383     -4978.9882     -85.874456      71817.727      139.62371    
     23130   1430.857      -5264.3785     -4980.476       16.453285      71804.399      139.63122    
     23140   1406.1598     -5261.209      -4982.2067      212.28686      71792.078      139.64926    
     23150   1374.169      -5256.6493     -4983.9945      381.8913       71781.091      139.67955    
     23160   1368.1446     -5257.1393     -4985.6798      279.24024      71771.735      139.72211    
     23170   1385.9189     -5262.2461     -4987.2599     -51.551849      71763.91       139.77325    
     23180   1391.7082     -5264.8931     -4988.7582     -303.36705      71757.124      139.82581    
     23190   1378.7225     -5263.7358     -4990.1776     -335.44482      71750.788      139.87188    
     23200   1370.7055     -5263.4535     -4991.4859     -362.30744      71744.328      139.90591    
     23210   1373.0461     -5265.1208     -4992.6888     -435.2535       71737.271      139.92631    
     23220   1374.8848     -5266.6121     -4993.8152     -571.27104      71729.422      139.93454    
     23230   1374.6754     -5267.651      -4994.8957     -639.2818       71720.583      139.93141    
     23240   1358.8859     -5265.5581     -4995.9357     -504.29282      71710.444      139.91585    
     23250   1334.6846     -5261.6924     -4996.8718     -269.98758      71698.853      139.8885     
     23260   1336.2795     -5262.8251     -4997.6881     -255.85491      71685.909      139.85477    
     23270   1354.064      -5267.0702     -4998.4045     -355.64971      71671.786      139.82229    
     23280   1370.9616     -5271.1201     -4999.1017     -444.5767       71656.58       139.79516    
     23290   1378.4545     -5273.3408     -4999.8357     -453.11034      71640.436      139.77458    
     23300   1379.1278     -5274.278      -5000.6392     -435.22594      71623.592      139.76101    
     23310   1368.2127     -5272.9786     -5001.5056     -383.30032      71606.247      139.75427    
     23320   1344.5697     -5269.1613     -5002.3794     -283.78711      71588.628      139.75373    
     23330   1328.6409     -5266.8179     -5003.1965     -326.97305      71570.895      139.75788    
     23340   1324.5483     -5266.7271     -5003.9177     -468.07551      71553.026      139.76588    
     23350   1325.973      -5267.6353     -5004.5432     -649.16262      71534.903      139.77597    
     23360   1316.1831     -5266.2144     -5005.0648     -655.09541      71516.451      139.78799    
     23370   1307.8885     -5264.97       -5005.4662     -613.5034       71497.731      139.80444    
     23380   1322.0572     -5268.0608     -5005.7457     -702.94892      71478.74       139.82715    
     23390   1336.4593     -5271.1139     -5005.9412     -748.07703      71459.346      139.85627    
     23400   1338.2251     -5271.6174     -5006.0944     -574.05207      71439.517      139.89201    
     23410   1336.1421     -5271.3285     -5006.2188     -383.47606      71419.405      139.93434    
     23420   1338.2581     -5271.8383     -5006.3087     -247.17869      71399.107      139.97958    
     23430   1345.6407     -5273.3738     -5006.3794     -231.48958      71378.657      140.02175    
     23440   1345.8939     -5273.4943     -5006.4496     -215.72247      71358.108      140.0586     
     23450   1335.1965     -5271.4398     -5006.5177     -166.52696      71337.572      140.09237    
     23460   1331.4774     -5270.7433     -5006.5591     -226.66266      71317.115      140.1255     
     23470   1342.2613     -5272.8878     -5006.564      -419.96252      71296.618      140.15891    
     23480   1352.0223     -5274.8236     -5006.563      -568.61139      71275.984      140.19389    
     23490   1342.718      -5272.9988     -5006.5843     -528.70975      71255.144      140.22834    
     23500   1324.4416     -5269.3872     -5006.599      -337.38418      71234.145      140.25737    
     23510   1317.4019     -5267.9513     -5006.5599     -240.81024      71213.262      140.27977    
     23520   1313.7932     -5267.1024     -5006.427      -219.87338      71192.692      140.29672    
     23530   1317.0294     -5267.4972     -5006.1797     -227.4181       71172.422      140.30834    
     23540   1329.8183     -5269.6827     -5005.8278     -330.17357      71152.25       140.31405    
     23550   1332.5588     -5269.7831     -5005.3843     -364.37192      71131.788      140.3125     
     23560   1324.7869     -5267.7107     -5004.854      -272.05757      71110.812      140.3033     
     23570   1321.9494     -5266.5055     -5004.2118     -194.71408      71089.409      140.28861    
     23580   1332.8906     -5267.8934     -5003.4288     -244.11019      71067.82       140.27113    
     23590   1355.151      -5271.4156     -5002.5343     -411.13008      71046.286      140.25238    
     23600   1378.2623     -5275.0569     -5001.5899     -532.64115      71024.925      140.23414    
     23610   1393.7975     -5277.252      -5000.7026     -495.27211      71003.805      140.21842    
     23620   1401.0048     -5277.9276     -4999.9482     -373.59986      70982.962      140.20531    
     23630   1406.4194     -5278.4407     -4999.3869     -260.1992       70962.293      140.19129    
     23640   1399.0761     -5276.6385     -4999.0418     -65.041745      70941.639      140.17245    
     23650   1378.8505     -5272.4879     -4998.9042      215.53709      70920.99       140.14711    
     23660   1361.9223     -5269.1437     -4998.9188      447.45611      70900.505      140.1156     
     23670   1352.2479     -5267.3394     -4999.034       472.43987      70880.326      140.079      
     23680   1337.8441     -5264.6708     -4999.2233      494.06231      70860.319      140.03615    
     23690   1325.6823     -5262.4775     -4999.4432      560.0124       70840.424      139.98653    
     23700   1334.1758     -5264.3866     -4999.667       553.11559      70820.834      139.93479    
     23710   1345.2707     -5266.8435     -4999.9225      473.72601      70801.758      139.88636    
     23720   1342.7899     -5266.6776     -5000.2489      539.2523       70783.303      139.84346    
     23730   1342.687      -5267.0728     -5000.6644      578.62422      70765.677      139.80782    
     23740   1346.6337     -5268.3673     -5001.1759      535.95975      70748.959      139.77848    
     23750   1356.3561     -5270.9462     -5001.8257      398.19105      70732.975      139.75152    
     23760   1353.0078     -5271.1099     -5002.6537      316.77579      70717.547      139.72653    
     23770   1340.4414     -5269.6132     -5003.6504      305.89134      70702.822      139.70701    
     23780   1330.1502     -5268.6954     -5004.7746      289.36477      70689.169      139.69542    
     23790   1324.4391     -5268.7745     -5005.9869      311.43851      70676.893      139.69212    
     23800   1311.8237     -5267.5082     -5007.2236      369.63767      70666.05       139.69677    
     23810   1296.1891     -5265.6006     -5008.4181      432.03583      70656.445      139.70801    
     23820   1294.7305     -5266.3993     -5009.5062      365.30382      70647.724      139.72234    
     23830   1300.8435     -5268.5764     -5010.4704      221.72497      70639.391      139.73549    
     23840   1309.4448     -5271.1399     -5011.3273      63.352496      70631.015      139.74395    
     23850   1317.7837     -5273.5734     -5012.1062     -54.572818      70622.369      139.74588    
     23860   1314.4224     -5273.6202     -5012.82       -58.838013      70613.439      139.74341    
     23870   1305.5634     -5272.5015     -5013.459      -35.836531      70604.359      139.74135    
     23880   1305.057      -5272.9548     -5014.0128     -73.616269      70595.178      139.74212    
     23890   1303.4786     -5273.1072     -5014.4784     -166.57617      70585.723      139.74477    
     23900   1296.5612     -5272.1111     -5014.8548     -257.41521      70575.703      139.74776    
     23910   1299.2615     -5272.9197     -5015.1276     -471.61782      70564.873      139.75021    
     23920   1319.4372     -5277.126      -5015.3307     -802.48333      70553.039      139.74991    
     23930   1341.2546     -5281.6443     -5015.5202     -1037.2831      70539.985      139.74254    
     23940   1346.916      -5283.0139     -5015.7665     -1086.2605      70525.676      139.72546    
     23950   1342.7282     -5282.5144     -5016.0979     -927.09674      70510.206      139.69913    
     23960   1335.2178     -5281.4319     -5016.5056     -653.69492      70493.81       139.66515    
     23970   1323.7703     -5279.6199     -5016.9649     -340.33283      70476.717      139.6245     
     23980   1316.7086     -5278.6959     -5017.4421     -70.002521      70459.039      139.5782     
     23990   1316.8978     -5279.2185     -5017.9271      67.929295      70440.966      139.52832    
     24000   1321.2122     -5280.5742     -5018.4268      92.756855      70422.831      139.47648    
     24010   1323.9814     -5281.6575     -5018.9606      143.17666      70405.012      139.42459    
     24020   1314.63       -5280.3838     -5019.5424      252.45312      70387.909      139.37548    
     24030   1303.4941     -5278.7904     -5020.1585      338.19889      70371.828      139.33213    
     24040   1294.3093     -5277.6031     -5020.7936      331.46157      70356.835      139.29718    
     24050   1284.3776     -5276.2548     -5021.4159      311.37809      70342.802      139.27078    
     24060   1280.1602     -5276.0262     -5022.0241      193.65976      70329.546      139.25121    
     24070   1282.269      -5277.0223     -5022.6018      44.619759      70316.647      139.23609    
     24080   1296.7402     -5280.4819     -5023.1901     -174.98097      70303.652      139.2232     
     24090   1306.0661     -5282.985      -5023.8428     -302.85501      70290.339      139.2109     
     24100   1286.9443     -5279.9462     -5024.598      -222.4283       70276.825      139.19999    
     24110   1262.7888     -5275.9578     -5025.4024     -99.075707      70263.397      139.19481    
     24120   1267.8208     -5277.7584     -5026.2046     -260.92439      70250.269      139.20012    
     24130   1289.9589     -5282.9718     -5027.0255     -603.1664       70237.21       139.21275    
     24140   1297.0048     -5285.2566     -5027.9123     -809.67196      70223.751      139.22514    
     24150   1287.0073     -5284.2279     -5028.8672     -806.15883      70209.575      139.23159    
     24160   1276.2232     -5283.0615     -5029.8406     -680.45492      70194.62       139.22788    
     24170   1264.2239     -5281.6099     -5030.7697     -562.95061      70179.106      139.21051    
     24180   1252.6751     -5280.1403     -5031.5916     -395.29311      70163.371      139.17889    
     24190   1251.6798     -5280.6119     -5032.2607     -387.53466      70147.788      139.13669    
     24200   1263.7751     -5283.5262     -5032.7752     -442.23414      70132.543      139.08809    
     24210   1276.0277     -5286.342      -5033.1599     -508.44694      70117.591      139.0346     
     24220   1283.6789     -5288.1515     -5033.4512     -553.8711       70102.706      138.97739    
     24230   1289.8252     -5289.5885     -5033.6687     -594.87737      70087.614      138.9179     
     24240   1296.5869     -5291.0929     -5033.8315     -679.94804      70072.105      138.85664    
     24250   1300.8757     -5292.0784     -5033.966      -676.96536      70055.908      138.79238    
     24260   1297.3139     -5291.4829     -5034.0773     -665.01038      70038.784      138.72286    
     24270   1291.6378     -5290.4323     -5034.1528     -640.09862      70020.693      138.64595    
     24280   1301.7284     -5292.472      -5034.1905     -781.95854      70001.86       138.56181    
     24290   1308.6583     -5293.8625     -5034.206      -882.43842      69982.468      138.47303    
     24300   1296.9345     -5291.5503     -5034.2199     -742.10652      69962.658      138.38106    
     24310   1276.0255     -5287.37       -5034.1883     -523.15721      69942.723      138.2868     
     24320   1272.3597     -5286.5131     -5034.0587     -421.32262      69922.94       138.19147    
     24330   1282.4359     -5288.2537     -5033.8        -382.81115      69903.344      138.09517    
     24340   1283.3518     -5288.0577     -5033.4224     -347.47555      69883.769      137.99453    
     24350   1279.8238     -5286.8668     -5032.9314     -245.5614       69863.82       137.88448    
     24360   1274.8712     -5285.2504     -5032.2977     -94.51913       69843.055      137.76297    
     24370   1280.4754     -5285.5657     -5031.501      -38.624283      69821.244      137.6317     
     24380   1298.6371     -5288.2072     -5030.5389     -112.95361      69798.389      137.49555    
     24390   1317.9337     -5290.9666     -5029.4696     -250.07449      69774.458      137.36002    
     24400   1335.9095     -5293.4484     -5028.3848     -368.13932      69749.315      137.22805    
     24410   1334.3109     -5292.1066     -5027.3602     -330.27799      69722.928      137.09869    
     24420   1321.5127     -5288.6382     -5026.4311     -215.99659      69695.578      136.96917    
     24430   1324.0713     -5288.2921     -5025.5774     -203.03711      69667.668      136.8385     
     24440   1327.3558     -5288.1588     -5024.7924     -215.8525       69639.45       136.70831    
     24450   1317.9596     -5285.6027     -5024.1006     -157.4915       69611.161      136.58053    
     24460   1308.5571     -5283.1121     -5023.4756     -79.376291      69583.101      136.45458    
     24470   1308.9169     -5282.6012     -5022.8933     -148.90292      69555.377      136.32548    
     24480   1311.5317     -5282.5726     -5022.346      -243.10677      69527.755      136.18573    
     24490   1315.1062     -5282.7806     -5021.8447     -310.6248       69499.926      136.0307     
     24500   1318.0109     -5282.9147     -5021.4024     -391.01557      69471.667      135.86155    
     24510   1314.4328     -5281.8259     -5021.0236     -427.16937      69442.724      135.68254    
     24520   1300.9253     -5278.8245     -5020.7023     -386.33741      69412.85       135.49686    
     24530   1282.0883     -5274.772      -5020.3873     -249.5631       69381.9        135.30622    
     24540   1273.8183     -5272.7644     -5020.0206     -234.12359      69349.906      135.11275    
     24550   1276.2282     -5272.7904     -5019.5685     -387.35982      69316.85       134.91905    
     24560   1286.1845     -5274.2131     -5019.0157     -561.54686      69282.609      134.72772    
     24570   1302.6078     -5276.8466     -5018.3905     -754.40311      69246.955      134.53793    
     24580   1316.1197     -5278.8787     -5017.7417     -889.08406      69209.544      134.34417    
     24590   1325.2097     -5280.0439     -5017.1034     -921.23402      69170.193      134.14092    
     24600   1325.3458     -5279.4719     -5016.5043     -815.85067      69129.033      133.9275     
     24610   1317.1936     -5277.2974     -5015.9473     -561.31321      69086.346      133.70587    
     24620   1307.0648     -5274.7493     -5015.4089     -270.81925      69042.394      133.47723    
     24630   1312.1247     -5275.1829     -5014.8385     -76.636664      68997.412      133.24227    
     24640   1328.5965     -5277.8518     -5014.2392     -19.650862      68951.68       133.00363    
     24650   1337.9773     -5279.1226     -5013.6487      6.1434725      68905.379      132.76398    
     24660   1339.8321     -5278.9545     -5013.1126      52.984496      68858.535      132.52216    
     24670   1341.3271     -5278.7908     -5012.6523      77.65538       68811.112      132.27536    
     24680   1338.7872     -5277.9133     -5012.2788      119.71306      68763.12       132.02154    
     24690   1331.9221     -5276.2808     -5012.0083      212.09234      68714.62       131.75883    
     24700   1330.7404     -5275.8823     -5011.8444      232.87341      68665.687      131.48495    
     24710   1332.0115     -5276.0929     -5011.8027      226.64581      68616.375      131.19905    
     24720   1332.532      -5276.302      -5011.9086      180.60372      68566.867      130.90441    
     24730   1337.9415     -5277.6654     -5012.1986      183.60798      68517.483      130.60792    
     24740   1342.4425     -5279.0863     -5012.7265      188.846        68468.551      130.31703    
     24750   1340.8964     -5279.5858     -5013.5328      257.3963       68420.288      130.03736    
     24760   1339.9873     -5280.4929     -5014.6203      439.51277      68373.018      129.77463    
     24770   1349.051      -5283.6757     -5016.0046      573.7867       68327.143      129.53343    
     24780   1360.1768     -5287.5626     -5017.6841      694.8822       68282.876      129.31418    
     24790   1363.3483     -5290.1323     -5019.6245      761.92684      68240.209      129.11446    
     24800   1353.5875     -5290.2638     -5021.6927      916.60842      68198.994      128.92792    
     24810   1349.2703     -5291.4441     -5023.7295      965.4233       68159.111      128.74619    
     24820   1347.4816     -5292.9998     -5025.6401      931.49736      68120.471      128.56735    
     24830   1337.9507     -5292.8566     -5027.388       873.1361       68082.89       128.39138    
     24840   1322.6525     -5291.3947     -5028.9615      741.48761      68045.977      128.21552    
     24850   1310.9383     -5290.4725     -5030.3636      595.48352      68009.254      128.03743    
     24860   1304.3315     -5290.4235     -5031.6254      434.64863      67972.516      127.85626    
     24870   1290.054      -5288.7323     -5032.7671      329.03356      67935.847      127.67276    
     24880   1282.8818     -5288.3397     -5033.7976      251.05151      67899.32       127.48859    
     24890   1283.2438     -5289.3593     -5034.7453      73.541264      67862.709      127.30254    
     24900   1282.5275     -5290.1089     -5035.6371     -47.257861      67825.625      127.11157    
     24910   1274.8546     -5289.4244     -5036.475      -14.706786      67787.907      126.91691    
     24920   1268.6875     -5288.9791     -5037.2534      55.869762      67749.733      126.72565    
     24930   1271.8619     -5290.3198     -5037.9642      74.798121      67711.454      126.54566    
     24940   1277.5748     -5292.1241     -5038.635       7.0744077      67673.315      126.3817     
     24950   1286.514      -5294.5594     -5039.2966     -78.101901      67635.321      126.23388    
     24960   1295.8654     -5297.1105     -5039.9922     -137.86751      67597.273      126.0979     
     24970   1300.3719     -5298.7635     -5040.7511     -56.992896      67559          125.96797    
     24980   1290.2576     -5297.5803     -5041.5747      191.87695      67520.482      125.84068    
     24990   1268.4162     -5294.0936     -5042.4217      479.73108      67481.866      125.71596    
     25000   1250.6239     -5291.3525     -5043.2108      708.56624      67443.434      125.59652    
     25010   1244.5598     -5290.8347     -5043.8962      788.55338      67405.479      125.48491    
     25020   1251.8417     -5292.8602     -5044.4769      685.40753      67368.249      125.38248    
     25030   1260.0901     -5294.9967     -5044.9768      535.00112      67331.975      125.29179    
     25040   1261.4886     -5295.7203     -5045.4229      421.8595       67296.862      125.21604    
     25050   1259.7448     -5295.7808     -5045.8294      433.6291       67263.021      125.15496    
     25060   1253.4076     -5294.8854     -5046.1914      484.53015      67230.471      125.10546    
     25070   1247.5954     -5294.0306     -5046.4898      534.69         67199.09       125.06348    
     25080   1254.1758     -5295.5717     -5046.7252      523.34182      67168.556      125.0251     
     25090   1267.5059     -5298.4091     -5046.9177      463.96708      67138.458      124.98811    
     25100   1274.3929     -5299.9556     -5047.0978      417.08331      67108.571      124.94979    
     25110   1274.1972     -5300.113      -5047.2941      408.09239      67078.867      124.90707    
     25120   1274.6999     -5300.4379     -5047.5191      367.68621      67049.251      124.85788    
     25130   1272.1828     -5300.1918     -5047.7725      343.52412      67019.484      124.7995     
     25140   1265.5589     -5299.1488     -5048.0438      384.82243      66989.386      124.72803    
     25150   1258.7914     -5298.0725     -5048.3103      474.43319      66959.039      124.64041    
     25160   1255.3046     -5297.6283     -5048.5579      535.47026      66928.693      124.53779    
     25170   1253.8572     -5297.5551     -5048.7718      613.08197      66898.456      124.42556    
     25180   1253.4542     -5297.6547     -5048.9514      612.42933      66868.329      124.30983    
     25190   1247.6786     -5296.6465     -5049.0892      616.50342      66838.338      124.19347    
     25200   1243.3275     -5295.8665     -5049.1725      529.59153      66808.578      124.07714    
     25210   1247.147      -5296.6403     -5049.1884      326.75987      66778.911      123.9598     
     25220   1258.349      -5298.8218     -5049.1473      70.541098      66748.839      123.84       
     25230   1271.7278     -5301.4127     -5049.0837     -220.62195      66717.865      123.71767    
     25240   1281.0906     -5303.2225     -5049.0358     -425.77238      66685.711      123.59458    
     25250   1293.3751     -5305.6699     -5049.0458     -611.11675      66652.314      123.47278    
     25260   1298.4558     -5306.8008     -5049.1686     -714.22391      66617.581      123.35002    
     25270   1283.7045     -5304.1208     -5049.4155     -594.10482      66581.466      123.21955    
     25280   1263.1246     -5300.3738     -5049.7518     -372.55371      66544.196      123.07522    
     25290   1251.1057     -5298.356      -5050.1187     -169.36973      66506.205      122.91652    
     25300   1253.2842     -5299.1528     -5050.4833     -65.657225      66467.856      122.74694    
     25310   1264.666      -5301.7925     -5050.8646      11.323686      66429.26       122.56935    
     25320   1270.1902     -5303.3218     -5051.2978      177.05996      66390.408      122.38538    
     25330   1264.362      -5302.6721     -5051.8046      506.08651      66351.378      122.19614    
     25340   1249.3245     -5300.2452     -5052.3614      956.61559      66312.503      122.00441    
     25350   1243.2671     -5299.6095     -5052.9275      1245.1037      66274.273      121.81488    
     25360   1261.7324     -5303.855      -5053.5092      1262.3473      66237.006      121.63337    
     25370   1278.3579     -5307.8093     -5054.1648      1243.2864      66200.669      121.46507    
     25380   1277.4839     -5308.4154     -5054.9443      1327.1101      66165.141      121.31386    
     25390   1270.7426     -5307.9836     -5055.8501      1389.5117      66130.499      121.18163    
     25400   1264.8226     -5307.8225     -5056.8636      1410.1107      66096.793      121.06766    
     25410   1252.8961     -5306.5305     -5057.938       1475.1506      66063.902      120.97114    
     25420   1249.3464     -5306.9132     -5059.025       1527.105       66031.725      120.88991    
     25430   1255.0348     -5309.1204     -5060.1035      1437.7827      66000.174      120.81616    
     25440   1267.6088     -5312.6898     -5061.1781      1310.2376      65969.125      120.73887    
     25450   1285.0062     -5317.2521     -5062.2884      1147.68        65938.499      120.6538     
     25460   1282.6747     -5317.9479     -5063.4468      1190.7471      65908.195      120.56651    
     25470   1264.2765     -5315.4554     -5064.6049      1352.3982      65878.39       120.48553    
     25480   1246.3433     -5312.9729     -5065.6805      1464.8552      65849.336      120.4152     
     25490   1234.5404     -5311.5582     -5066.6077      1471.4662      65821.133      120.35666    
     25500   1226.487      -5310.7148     -5067.3622      1368.6839      65793.783      120.30847    
     25510   1221.4737     -5310.3032     -5067.9453      1162.3877      65767.204      120.26667    
     25520   1221.9185     -5310.8159     -5068.3698      886.05148      65741.016      120.22368    
     25530   1226.11       -5311.9442     -5068.6664      617.36452      65714.561      120.17079    
     25540   1231.5515     -5313.2201     -5068.8626      389.52347      65687.286      120.10351    
     25550   1232.482      -5313.5226     -5068.9805      297.62956      65658.994      120.02172    
     25560   1231.3885     -5313.3545     -5069.0294      327.82706      65629.93       119.92807    
     25570   1226.6767     -5312.395      -5069.0048      426.70353      65600.752      119.82772    
     25580   1217.3463     -5310.4369     -5068.8979      633.95847      65572.231      119.72646    
     25590   1212.3474     -5309.239      -5068.6919      771.19408      65544.901      119.62878    
     25600   1216.9456     -5309.8436     -5068.3842      792.93994      65518.78       119.53689    
     25610   1229.1132     -5311.8669     -5067.9933      685.94631      65493.576      119.45137    
     25620   1238.0377     -5313.1996     -5067.5552      561.41281      65468.885      119.36836    
     25630   1241.4582     -5313.4175     -5067.0944      447.91941      65444.427      119.28114    
     25640   1246.9146     -5314.0389     -5066.6332      360.74518      65420.09       119.18563    
     25650   1251.7958     -5314.5575     -5066.1833      324.74957      65395.875      119.08081    
     25660   1256.5195     -5315.0684     -5065.7569      309.20118      65371.812      118.96836    
     25670   1268.4717     -5317.0638     -5065.3809      350.01633      65347.872      118.85134    
     25680   1279.1484     -5318.8909     -5065.0895      509.14053      65324.062      118.73315    
     25690   1276.8051     -5318.2482     -5064.9118      825.326        65300.495      118.61727    
     25700   1273.7311     -5317.5685     -5064.842       1152.68        65277.444      118.50802    
     25710   1283.9338     -5319.6383     -5064.8874      1361.0259      65255.158      118.40948    
     25720   1289.4749     -5320.9226     -5065.0723      1504.1473      65233.808      118.3268     
     25730   1287.8044     -5320.9563     -5065.4375      1649.2567      65213.525      118.26642    
     25740   1281.3871     -5320.2316     -5065.986       1844.7932      65194.349      118.23513    
     25750   1265.8221     -5317.8534     -5066.6962      1996.5363      65176.427      118.23599    
     25760   1254.3911     -5316.4292     -5067.54        2057.8274      65160.052      118.2658     
     25770   1258.1281     -5318.1292     -5068.4985      1858.0717      65145.423      118.31866    
     25780   1270.647      -5321.7275     -5069.613       1495.007       65132.184      118.38751    
     25790   1271.6964     -5323.233      -5070.9102      1201.2561      65119.573      118.46239    
     25800   1265.8826     -5323.5388     -5072.3696      950.43008      65106.957      118.53176    
     25810   1260.9728     -5324.1156     -5073.9205      705.60242      65093.78       118.58738    
     25820   1249.2251     -5323.3213     -5075.4571      556.7964       65079.499      118.62764    
     25830   1240.5093     -5322.995      -5076.8602      410.016        65063.707      118.65428    
     25840   1229.1582     -5321.9161     -5078.0336      256.71038      65046.186      118.66843    
     25850   1215.8406     -5320.1704     -5078.9302      206.17759      65026.829      118.66816    
     25860   1207.0857     -5319.0546     -5079.5515      210.35902      65005.683      118.64984    
     25870   1204.2749     -5318.8813     -5079.936       213.48996      64982.905      118.61286    
     25880   1217.1421     -5321.6503     -5080.1518      193.27681      64958.616      118.56279    
     25890   1234.9504     -5325.3105     -5080.2787      161.47731      64932.847      118.50845    
     25900   1244.1694     -5327.2456     -5080.3846      252.58959      64905.631      118.45477    
     25910   1249.5042     -5328.4263     -5080.5067      413.03533      64877.142      118.40234    
     25920   1255.8183     -5329.8468     -5080.6745      573.55844      64847.614      118.34923    
     25930   1249.3411     -5328.7841     -5080.8969      768.67376      64817.359      118.29278    
     25940   1224.7218     -5324.1383     -5081.136       1006.9329      64786.798      118.23055    
     25950   1210.5333     -5321.5195     -5081.3324      1093.6884      64756.418      118.16137    
     25960   1218.7671     -5323.2836     -5081.4627      853.23473      64726.449      118.08416    
     25970   1229.1698     -5325.438      -5081.5531      594.72157      64696.636      117.99583    
     25980   1237.4018     -5327.161      -5081.6428      438.26611      64666.535      117.89413    
     25990   1240.7832     -5327.9539     -5081.7647      378.37201      64635.617      117.77792    
     26000   1226.591      -5325.2911     -5081.9179      510.60001      64603.396      117.64589    
     26010   1211.6947     -5322.4849     -5082.0673      797.74934      64569.671      117.49655    
     26020   1204.1398     -5321.0728     -5082.1542      919.32994      64534.693      117.33137    
     26030   1204.7116     -5321.1921     -5082.1601      903.34757      64498.836      117.15394    
     26040   1206.7891     -5321.5221     -5082.0779      891.39565      64462.359      116.96949    
     26050   1203.3952     -5320.6842     -5081.9134      919.00585      64425.459      116.78389    
     26060   1209.0589     -5321.5503     -5081.6557      890.84586      64388.366      116.60157    
     26070   1230.176      -5325.4043     -5081.3198      825.69616      64351.277      116.42496    
     26080   1240.4978     -5327.0947     -5080.9622      870.49098      64314.348      116.25456    
     26090   1228.5855     -5324.3851     -5080.6162      1144.942       64277.832      116.09119    
     26100   1207.6287     -5319.8632     -5080.2523      1461.9911      64242.122      115.93728    
     26110   1192.8599     -5316.4929     -5079.8124      1731.2964      64207.505      115.79526    
     26120   1192.6834     -5315.885      -5079.2395      1867.8414      64174.11       115.66596    
     26130   1208.7383     -5318.3595     -5078.5285      1852.2527      64141.812      115.54725    
     26140   1225.6652     -5320.9047     -5077.7151      1903.4926      64110.237      115.43564    
     26150   1230.8549     -5321.072      -5076.8528      2024.2597      64079.094      115.33       
     26160   1239.1266     -5321.8462     -5075.9857      2020.2082      64048.367      115.23117    
     26170   1255.1799     -5324.1936     -5075.1479      1888.0499      64018.207      115.13979    
     26180   1273.3075     -5327.0358     -5074.3933      1670.5404      63988.773      115.05551    
     26190   1290.665      -5329.8915     -5073.8051      1381.5869      63960.06       114.97621    
     26200   1296.4418     -5330.6953     -5073.4627      1177.3091      63931.883      114.89952    
     26210   1286.8614     -5328.7108     -5073.3791      1105.416       63904.145      114.82331    
     26220   1274.5737     -5326.4308     -5073.5371      1193.4339      63876.881      114.74626    
     26230   1262.9627     -5324.4858     -5073.896       1332.2435      63850.181      114.66784    
     26240   1254.1369     -5323.2664     -5074.4276      1440.0134      63824.076      114.58966    
     26250   1249.2495     -5322.9833     -5075.1143      1533.8437      63798.596      114.51525    
     26260   1244.4327     -5322.8555     -5075.9422      1571.4428      63773.829      114.4462     
     26270   1243.6189     -5323.6696     -5076.9178      1631.1294      63749.812      114.38177    
     26280   1234.5389     -5322.969      -5078.0188      1759.1068      63726.444      114.32349    
     26290   1214.3505     -5320.1334     -5079.1889      1940.0108      63703.651      114.27534    
     26300   1206.3256     -5319.6888     -5080.3366      1990.851       63681.489      114.24147    
     26310   1217.8886     -5323.0862     -5081.4396      1848.5513      63660.021      114.2215     
     26320   1229.2143     -5326.3993     -5082.5056      1656.2022      63639.099      114.20929    
     26330   1236.8168     -5328.9536     -5083.5514      1528.1773      63618.398      114.19729    
     26340   1235.8883     -5329.7853     -5084.5673      1560.9061      63597.62       114.18045    
     26350   1226.0338     -5328.7811     -5085.5185      1726.768       63576.582      114.15572    
     26360   1213.7305     -5327.1709     -5086.3494      1872.7951      63555.196      114.12359    
     26370   1208.3754     -5326.7955     -5087.0365      1943.2549      63533.465      114.08712    
     26380   1207.9777     -5327.2617     -5087.5816      1923.7186      63511.474      114.04801    
     26390   1205.8154     -5327.2566     -5088.0055      1963.1056      63489.321      114.00508    
     26400   1201.948      -5326.8105     -5088.3268      1995.4745      63467.178      113.95689    
     26410   1208.3649     -5328.3215     -5088.5646      1986.7393      63445.172      113.90411    
     26420   1218.2528     -5330.4847     -5088.7659      1934.0514      63423.271      113.84788    
     26430   1222.16       -5331.4519     -5088.9579      1917.8922      63401.394      113.78745    
     26440   1221.3169     -5331.4889     -5089.1621      1957.562       63379.592      113.72289    
     26450   1221.733      -5331.7888     -5089.3795      1992.2352      63358.064      113.65692    
     26460   1225.7844     -5332.8344     -5089.6212      1975.4083      63337.005      113.59004    
     26470   1223.6319     -5332.6846     -5089.8985      1977.1485      63316.607      113.52358    
     26480   1210.4433     -5330.3643     -5090.195       2043.823       63297.143      113.46294    
     26490   1211.8314     -5330.9366     -5090.4919      1959.6084      63278.852      113.4118     
     26500   1225.034      -5333.8638     -5090.7995      1747.8742      63261.538      113.36889    
     26510   1232.7797     -5335.7651     -5091.164       1483.7117      63244.687      113.33004    
     26520   1244.2        -5338.4879     -5091.6208      1212.8569      63227.813      113.29175    
     26530   1246.2119     -5339.4723     -5092.206       1095.4915      63210.602      113.25319    
     26540   1236.3967     -5338.24       -5092.9212      1133.7971      63193.018      113.21485    
     26550   1220.3524     -5335.8552     -5093.7198      1308.2695      63175.251      113.1768     
     26560   1202.6858     -5333.1705     -5094.5404      1546.6022      63157.483      113.13901    
     26570   1190.3945     -5331.516      -5095.3247      1714.1408      63139.81       113.10341    
     26580   1192.7279     -5332.6952     -5096.0409      1673.3597      63122.209      113.07282    
     26590   1204.2961     -5335.6545     -5096.705       1521.4139      63104.44       113.04809    
     26600   1211.5664     -5337.7478     -5097.3557      1343.1908      63086.077      113.02819    
     26610   1208.7392     -5337.8445     -5098.0133      1216.0964      63066.761      113.01199    
     26620   1195.5908     -5335.879      -5098.6567      1158.201       63046.365      112.99846    
     26630   1185.3155     -5334.4277     -5099.2442      1167.118       63024.966      112.98585    
     26640   1184.0913     -5334.698      -5099.7573      1100.6927      63002.682      112.97163    
     26650   1182.8628     -5334.8906     -5100.1937      1073.0137      62979.51       112.95385    
     26660   1179.0034     -5334.4812     -5100.55        1128.7511      62955.485      112.93197    
     26670   1180.7924     -5335.1107     -5100.8246      1164.9953      62930.738      112.90443    
     26680   1190.3764     -5337.2245     -5101.0368      1193.493       62905.299      112.86656    
     26690   1199.0842     -5339.131      -5101.2155      1244.5074      62879.102      112.81395    
     26700   1203.7227     -5340.2252     -5101.3894      1375.9626      62852.187      112.74509    
     26710   1205.0019     -5340.6654     -5101.5758      1582.1791      62824.778      112.66199    
     26720   1204.6456     -5340.7987     -5101.7798      1782.7646      62797.201      112.56883    
     26730   1204.3431     -5340.9657     -5102.0068      2025.2025      62769.682      112.47058    
     26740   1209.807      -5342.3104     -5102.2674      2171.9897      62742.35       112.37118    
     26750   1207.9113     -5342.2397     -5102.5728      2371.1242      62715.29       112.2727     
     26760   1203.5816     -5341.7307     -5102.9229      2551.9223      62688.791      112.17847    
     26770   1201.7839     -5341.7695     -5103.3184      2654.5251      62663.306      112.0929     
     26780   1193.3125     -5340.5208     -5103.7505      2770.5326      62639.308      112.02056    
     26790   1185.4704     -5339.4294     -5104.2151      2792.0305      62617.225      111.96489    
     26800   1182.5415     -5339.3383     -5104.7051      2642.3327      62597.159      111.92412    
     26810   1187.526      -5340.8577     -5105.2355      2416.9593      62578.818      111.8912     
     26820   1194.3268     -5342.8184     -5105.8468      2063.8583      62561.66       111.85924    
     26830   1198.2686     -5344.3436     -5106.59        1739.9186      62545.084      111.82385    
     26840   1202.3485     -5346.0938     -5107.5306      1417.0673      62528.669      111.78344    
     26850   1203.6621     -5347.5626     -5108.7388      1193.891       62512.071      111.73695    
     26860   1191.4653     -5346.6306     -5110.2268      1152.7437      62494.978      111.68294    
     26870   1162.2069     -5342.5045     -5111.906       1364.0541      62477.318      111.62239    
     26880   1126.9995     -5337.167      -5113.5542      1608.4218      62459.428      111.55942    
     26890   1111.952      -5335.6062     -5114.979       1751.6715      62441.77       111.49846    
     26900   1118.0386     -5337.9379     -5116.103       1744.9257      62424.521      111.44148    
     26910   1128.0475     -5340.7544     -5116.9336      1693.6518      62407.503      111.38852    
     26920   1132.5387     -5342.2152     -5117.5033      1731.8862      62390.458      111.33854    
     26930   1143.8412     -5344.8083     -5117.8539      1716.7065      62373.258      111.29062    
     26940   1152.0697     -5346.6244     -5118.0373      1756.9743      62355.756      111.24285    
     26950   1153.0791     -5346.8811     -5118.0937      1922.8061      62337.956      111.19374    
     26960   1145.3978     -5345.2961     -5118.0328      2162.3188      62320.084      111.14316    
     26970   1130.2088     -5342.0933     -5117.8437      2431.7052      62302.403      111.09114    
     26980   1122.2619     -5340.1761     -5117.5033      2564.887       62285.183      111.04043    
     26990   1122.2291     -5339.6638     -5116.9975      2521.9781      62268.652      110.99772    
     27000   1134.9264     -5341.5227     -5116.3371      2296.5568      62252.771      110.96725    
     27010   1158.1687     -5345.3749     -5115.5776      1926.1052      62237.133      110.94605    
     27020   1177.5188     -5348.432      -5114.7954      1611.3793      62221.077      110.92684    
     27030   1192.0852     -5350.6022     -5114.0754      1379.6982      62204.063      110.90314    
     27040   1190.5497     -5349.6866     -5113.4645      1322.0462      62185.818      110.87243    
     27050   1175.1018     -5346.1113     -5112.9543      1430.8959      62166.505      110.83623    
     27060   1176.276      -5345.8894     -5112.4994      1469.2808      62146.525      110.79826    
     27070   1189.3308     -5348.0698     -5112.0896      1445.4411      62126.19       110.76265    
     27080   1189.8977     -5347.8365     -5111.7438      1536.7974      62105.705      110.7328     
     27090   1175.4801     -5344.6934     -5111.4613      1892.3489      62085.416      110.7107     
     27100   1155.2609     -5340.4153     -5111.195       2216.9718      62065.676      110.69531    
     27110   1152.0338     -5339.4668     -5110.8868      2356.2974      62046.547      110.68275    
     27120   1182.8072     -5345.2258     -5110.54        2148.0227      62027.837      110.66722    
     27130   1215.9588     -5351.495      -5110.2314      1841.3682      62009.161      110.64369    
     27140   1226.5624     -5353.4301     -5110.0625      1753.8777      61990.118      110.61102    
     27150   1219.7303     -5352.0809     -5110.069       1847.0477      61970.472      110.57151    
     27160   1207.7042     -5349.8405     -5110.2146      1954.7531      61950.157      110.5292     
     27170   1194.0581     -5347.3718     -5110.4536      2090.7243      61929.196      110.48702    
     27180   1182.3688     -5345.3284     -5110.7295      2201.6181      61907.691      110.4447     
     27190   1182.9686     -5345.7363     -5111.0184      2187.4437      61885.673      110.39794    
     27200   1188.7274     -5347.1851     -5111.3245      2157.7733      61863.046      110.34138    
     27210   1189.1728     -5347.6091     -5111.6602      2191.2955      61839.745      110.27257    
     27220   1188.95       -5347.9365     -5112.0318      2267.6102      61815.96       110.19156    
     27230   1190.2063     -5348.5942     -5112.4403      2246.8707      61792.077      110.09778    
     27240   1192.5764     -5349.5112     -5112.887       2225.6729      61768.527      109.99013    
     27250   1196.5986     -5350.8153     -5113.393       2157.861       61745.679      109.8704     
     27260   1194.3338     -5350.9409     -5113.968       2099.9961      61723.675      109.74172    
     27270   1180.5516     -5348.8341     -5114.5958      2173.7179      61702.573      109.60854    
     27280   1171.2125     -5347.6172     -5115.2318      2225.4381      61682.462      109.47724    
     27290   1176.4673     -5349.293      -5115.865       2150.1266      61663.248      109.35267    
     27300   1182.4477     -5351.12       -5116.5054      2125.5879      61644.669      109.23566    
     27310   1177.5017     -5350.7955     -5117.1623      2232.5654      61626.538      109.12402    
     27320   1171.0572     -5350.1704     -5117.8159      2457.4797      61608.75       109.01691    
     27330   1164.9224     -5349.5815     -5118.4443      2716.8242      61591.412      108.91762    
     27340   1163.6102     -5349.8947     -5119.0177      2867.6913      61574.79       108.83153    
     27350   1176.271      -5352.9382     -5119.5492      2847.3641      61559.131      108.76336    
     27360   1185.7512     -5355.3468     -5120.0768      2753.9755      61544.456      108.7156     
     27370   1179.0227     -5354.5536     -5120.6186      2840.96        61530.647      108.68764    
     27380   1166.6516     -5352.6266     -5121.1462      2907.1093      61517.601      108.67469    
     27390   1163.8925     -5352.5544     -5121.6215      2921.1313      61505.137      108.66797    
     27400   1166.7823     -5353.5436     -5122.0373      2858.9731      61493.065      108.65928    
     27410   1167.8771     -5354.1281     -5122.4045      2865.2767      61481.298      108.64634    
     27420   1160.5336     -5352.9851     -5122.7186      3048.9783      61469.964      108.6326     
     27430   1150.575      -5351.2507     -5122.9602      3264.4249      61459.46       108.62395    
     27440   1153.2113     -5351.933      -5123.1194      3371.4079      61450.257      108.62265    
     27450   1158.7618     -5353.1323     -5123.2174      3373.4095      61442.544      108.62488    
     27460   1155.9587     -5352.6324     -5123.2737      3327.7704      61436.152      108.62509    
     27470   1156.0215     -5352.6709     -5123.2997      3154.138       61430.791      108.61995    
     27480   1163.2052     -5354.0922     -5123.2956      2880.7046      61426.202      108.61023    
     27490   1175.8114     -5356.5967     -5123.2989      2523.9774      61422.165      108.60039    
     27500   1179.9358     -5357.4569     -5123.3407      2313.1869      61418.338      108.59495    
     27510   1172.2772     -5356.0232     -5123.4266      2307.2641      61414.496      108.59543    
     27520   1159.5544     -5353.6033     -5123.5311      2363.1431      61410.595      108.6019     
     27530   1155.5402     -5352.8965     -5123.6208      2399.0295      61406.648      108.61623    
     27540   1153.3873     -5352.5365     -5123.6879      2423.5324      61402.537      108.64042    
     27550   1150.0726     -5351.9117     -5123.7209      2402.7653      61398.076      108.67327    
     27560   1154.5113     -5352.7994     -5123.7279      2283.3637      61393.089      108.71166    
     27570   1152.9963     -5352.4852     -5123.7142      2196.5192      61387.426      108.75384    
     27580   1140.7873     -5350.0254     -5123.6768      2218.8747      61381.117      108.79707    
     27590   1130.5038     -5347.8885     -5123.5804      2203.5495      61374.374      108.8365     
     27600   1131.6876     -5347.9449     -5123.4019      2084.0659      61367.36       108.86722    
     27610   1134.8648     -5348.3137     -5123.1403      2052.1864      61360.152      108.8865     
     27620   1130.6971     -5347.1418     -5122.7953      2138.7628      61352.931      108.89511    
     27630   1129.1657     -5346.408      -5122.3653      2291.717       61345.938      108.89589    
     27640   1129.3046     -5345.9121     -5121.8419      2372.7258      61339.27       108.89091    
     27650   1130.8322     -5345.5994     -5121.2261      2381.8534      61332.826      108.87981    
     27660   1145.812      -5347.8717     -5120.5262      2183.0901      61326.41       108.86054    
     27670   1169.0067     -5351.7268     -5119.7791      1888.3473      61319.763      108.8337     
[...]
     48200   1023.908      -5306.4181     -5103.2601     -501.99898      69987.454      258.06244    
     48210   1018.6641     -5305.4414     -5103.3238     -427.10735      69973.827      257.93305    
     48220   1018.7173     -5305.3986     -5103.2705     -360.54379      69957.482      257.78924    
     48230   1020.8356     -5305.6271     -5103.0787     -327.69167      69938.839      257.63333    
     48240   1024.3026     -5305.9742     -5102.7379     -305.96496      69918.15       257.46938    
     48250   1031.8411     -5306.9634     -5102.2313     -254.42115      69895.606      257.30235    
     48260   1043.2538     -5308.5421     -5101.5456     -273.59587      69871.489      257.1367     
     48270   1054.6822     -5309.9542     -5100.6902     -331.24751      69845.688      256.97386    
     48280   1062.7155     -5310.5314     -5099.6734     -326.10774      69817.896      256.81363    
     48290   1064.5223     -5309.7411     -5098.5246     -247.90643      69788.173      256.65705    
     48300   1061.5064     -5307.8815     -5097.2634     -111.40769      69757.028      256.50588    
     48310   1057.9275     -5305.8193     -5095.9114     -16.800451      69725.272      256.36206    
     48320   1058.3013     -5304.4805     -5094.4983      81.876489      69693.579      256.22679    
     48330   1063.1836     -5304.0293     -5093.0784      140.32757      69662.572      256.10192    
     48340   1069.532      -5303.9304     -5091.72        235.74638      69632.709      255.98876    
     48350   1074.3675     -5303.6646     -5090.4947      337.68706      69604.531      255.88734    
     48360   1077.781      -5303.2991     -5089.4519      427.94926      69578.696      255.79768    
     48370   1079.8478     -5302.8666     -5088.6093      526.7658       69555.771      255.72039    
     48380   1078.7809     -5302.0133     -5087.9677      667.48422      69536.402      255.6584     
     48390   1074.1034     -5300.6228     -5087.5053      772.02982      69521.453      255.61707    
     48400   1068.6502     -5299.2242     -5087.1887      872.11715      69511.611      255.60154    
     48410   1066.2565     -5298.5431     -5086.9825      918.17703      69507.424      255.61523    
     48420   1067.9908     -5298.7657     -5086.8611      864.59773      69509.138      255.65822    
     48430   1073.1252     -5299.7476     -5086.8242      774.65025      69516.436      255.72659    
     48440   1077.1274     -5300.6005     -5086.883       707.55026      69528.755      255.8156     
     48450   1075.0678     -5300.3511     -5087.0422      648.67024      69545.636      255.9221     
     48460   1068.1035     -5299.2151     -5087.2881      640.67777      69566.744      256.04559    
     48470   1061.232      -5298.1527     -5087.5891      581.54441      69591.95       256.1864     
     48480   1060.1686     -5298.2743     -5087.9217      474.2512       69620.87       256.34381    
     48490   1059.2693     -5298.4537     -5088.2795      329.51456      69652.787      256.51783    
     48500   1056.8169     -5298.3406     -5088.653       229.12082      69686.793      256.70787    
     48510   1057.03       -5298.7687     -5089.0388      144.41488      69722.203      256.91181    
     48520   1054.8874     -5298.7394     -5089.4346      33.005869      69758.422      257.12618    
     48530   1048.2213     -5297.8154     -5089.8333     -2.4329819      69794.835      257.34733    
     48540   1040.288      -5296.6201     -5090.2121      31.534638      69831.221      257.57407    
     48550   1035.6161     -5296.0265     -5090.5454      55.570195      69867.735      257.80886    
     48560   1040.2615     -5297.2284     -5090.8256      21.037168      69904.511      258.05479    
     48570   1054.1595     -5300.2332     -5091.0728     -106.62645      69941.289      258.3125     
     48580   1067.8487     -5303.2134     -5091.3369     -225.82426      69977.285      258.57896    
     48590   1069.5168     -5303.881      -5091.6735     -161.45283      70011.842      258.85027    
     48600   1057.1821     -5301.8485     -5092.0884      39.607992      70045.36       259.12555    
     48610   1042.3915     -5299.3696     -5092.5442      181.71054      70079.04       259.40801    
     48620   1035.8748     -5298.5189     -5092.9865      200.63804      70113.779      259.7016     
     48630   1034.9704     -5298.7452     -5093.3923      121.71753      70149.689      260.00793    
     48640   1036.5355     -5299.4169     -5093.7534     -6.4166268      70186.265      260.3258     
     48650   1039.6096     -5300.3467     -5094.0732     -123.93327      70222.689      260.65118    
     48660   1042.5003     -5301.2153     -5094.3683     -264.2834       70258.139      260.97797    
     48670   1046.1636     -5302.2319     -5094.6581     -424.32023      70291.666      261.29883    
     48680   1051.2138     -5303.5503     -5094.9744     -537.72742      70322.273      261.60726    
     48690   1052.3296     -5304.1681     -5095.3708     -558.20899      70349.223      261.89963    
     48700   1044.8498     -5303.1936     -5095.8804     -443.6908       70372.388      262.1755     
     48710   1028.9933     -5300.6821     -5096.5151     -238.90781      70392.515      262.43567    
     48720   1014.7861     -5298.5988     -5097.2507     -48.25496       70410.911      262.6815     
     48730   1009.5315     -5298.356      -5098.0504      91.187802      70428.831      262.91685    
     48740   1007.5585     -5298.7969     -5098.8828      158.6647       70447.199      263.1477     
     48750   1007.7471     -5299.671      -5099.7196      124.87801      70466.426      263.3785     
     48760   1010.6096     -5301.0439     -5100.5245      85.157102      70486.33       263.61031    
     48770   1012.5063     -5302.1744     -5101.2787     -37.304485      70506.55       263.84258    
     48780   1012.8758     -5302.9281     -5101.959      -188.95846      70526.316      264.07298    
     48790   1013.4747     -5303.6353     -5102.5474     -343.5428       70544.625      264.29776    
     48800   1016.3254     -5304.691      -5103.0375     -516.72483      70560.448      264.51073    
     48810   1022.2491     -5306.2588     -5103.4299     -704.46026      70572.663      264.70497    
     48820   1028.4243     -5307.7991     -5103.745      -868.78269      70580.09       264.87402    
     48830   1032.9096     -5308.942      -5103.998      -1023.2128      70581.666      265.01289    
     48840   1035.8179     -5309.725      -5104.2039     -1182.7608      70576.389      265.11757    
     48850   1037.8741     -5310.2996     -5104.3705     -1296.9854      70563.316      265.18443    
     48860   1040.7122     -5310.9998     -5104.5076     -1387.1537      70541.737      265.21192    
     48870   1044.1454     -5311.797      -5104.6236     -1417.8482      70511.168      265.20068    
     48880   1043.5228     -5311.7769     -5104.727      -1339.7765      70471.548      265.15264    
     48890   1035.417      -5310.2538     -5104.8122     -1132.7278      70423.532      265.07228    
     48900   1020.9613     -5307.4072     -5104.8339     -817.97553      70368.605      264.96683    
     48910   1006.1848     -5304.375      -5104.7335     -517.65797      70308.879      264.84572    
     48920   1002.0722     -5303.2731     -5104.4476     -350.3857       70246.366      264.71741    
     48930   1009.2789     -5304.2054     -5103.9501     -296.31757      70182.254      264.58712    
     48940   1016.5877     -5304.9536     -5103.2481     -261.6423       70116.997      264.45681    
     48950   1022.5453     -5305.2513     -5102.3637     -240.54901      70050.878      264.32739    
     48960   1031.6204     -5306.0189     -5101.3307     -214.65118      69984.089      264.20072    
     48970   1040.7603     -5306.6931     -5100.1914     -208.33627      69916.809      264.07942    
     48980   1046.0185     -5306.5569     -5099.0118     -160.98289      69849.156      263.96539    
     48990   1050.1652     -5306.2174     -5097.8496     -65.568725      69781.507      263.86142    
     49000   1055.9008     -5306.2489     -5096.7431      40.267432      69714.46       263.77187    
     49010   1062.5911     -5306.5657     -5095.7324      164.70621      69648.708      263.7005     
     49020   1068.711      -5306.8905     -5094.8429      353.60698      69585.105      263.64902    
     49030   1073.4176     -5307.0791     -5094.0977      546.1852       69524.807      263.61763    
     49040   1074.437      -5306.6821     -5093.4984      697.85373      69468.987      263.60527    
     49050   1071.6639     -5305.6776     -5093.0441      856.79079      69418.571      263.6104     
     49060   1067.6091     -5304.5372     -5092.7083      965.11619      69374.462      263.63312    
     49070   1064.5432     -5303.6913     -5092.4707      969.16645      69337.206      263.67378    
     49080   1065.2967     -5303.6796     -5092.3094      948.16601      69306.764      263.73059    
     49090   1071.7211     -5304.8672     -5092.2224      863.19179      69282.874      263.8008     
     49100   1081.4485     -5306.8052     -5092.2303      727.17987      69264.893      263.87946    
     49110   1090.4654     -5308.7336     -5092.3697      580.52618      69251.847      263.9604     
     49120   1095.7357     -5310.0802     -5092.6705      491.05891      69242.766      264.03845    
     49130   1095.7025     -5310.5574     -5093.1543      441.76311      69236.997      264.11176    
     49140   1089.9058     -5310.0663     -5093.8134      434.33392      69234.196      264.18154    
     49150   1077.7432     -5308.4553     -5094.6156      534.90021      69234.307      264.25059    
     49160   1061.43       -5306.0995     -5095.4966      663.63956      69237.873      264.32499    
     49170   1047.5644     -5304.2303     -5096.3786      720.13787      69245.616      264.41168    
     49180   1039.5565     -5303.469      -5097.2061      704.6508       69257.846      264.51495    
     49190   1041.2142     -5304.5372     -5097.9454      579.57568      69274.421      264.63526    
     49200   1049.3971     -5306.8231     -5098.6077      355.57068      69294.449      264.76831    
     49210   1052.6393     -5308.0737     -5099.215       184.96702      69316.529      264.90632    
     49220   1046.043      -5307.3281     -5099.7782      161.7089       69339.621      265.04185    
     49230   1034.3994     -5305.5084     -5100.2688      213.85027      69363.533      265.17021    
     49240   1028.5851     -5304.743      -5100.657       235.39963      69388.512      265.28858    
     49250   1029.9289     -5305.2861     -5100.9335      250.73997      69414.728      265.39545    
     49260   1031.986      -5305.8706     -5101.1098      207.7632       69442.21       265.49143    
     49270   1032.3524     -5306.0365     -5101.203       204.78795      69470.77       265.57813    
     49280   1031.8501     -5305.9567     -5101.2228      165.39046      69500.303      265.65795    
     49290   1030.1017     -5305.5604     -5101.1735      109.56944      69530.573      265.73209    
     49300   1026.7373     -5304.7727     -5101.0533      64.448539      69561.215      265.80072    
     49310   1025.123      -5304.2582     -5100.8591     -2.6008758      69591.911      265.86373    
     49320   1023.4853     -5303.6638     -5100.5897     -53.473746      69622.291      265.92192    
     49330   1019.3844     -5302.5073     -5100.2469     -58.132329      69652.06       265.97751    
     49340   1019.4503     -5302.1016     -5099.828      -74.022132      69681.168      266.03455    
     49350   1029.3642     -5303.5796     -5099.339      -143.13815      69709.454      266.09582    
     49360   1042.1956     -5305.6069     -5098.8204     -216.0034       69736.508      266.16172    
     49370   1050.1067     -5306.6792     -5098.323      -259.34019      69761.888      266.23174    
     49380   1051.2834     -5306.4694     -5097.8797     -211.09369      69785.373      266.30526    
     49390   1045.0986     -5304.8547     -50CHGNet v0.3.0 initialized with 412,525 parameters
CHGNet will run on cuda:0
CHGNet will run on cuda:0
97.4922     -70.82275       69807.306      266.38303    
     49400   1038.1345     -5303.1215     -5097.1407      73.884243      69828.55       266.46629    
     49410   1035.3335     -5302.2162     -5096.7912      173.80864      69850.045      266.55509    
     49420   1036.9549     -5302.1796     -5096.4329      218.03985      69872.455      266.64852    
     49430   1044.3045     -5303.2764     -5096.0714      216.95237      69896.078      266.74571    
     49440   1057.0298     -5305.4615     -5095.7317      158.29424      69920.872      266.84567    
     49450   1068.5646     -5307.475      -5095.4565      69.226449      69946.466      266.94655    
     49460   1072.6017     -5308.0972     -5095.2776     -14.481162      69972.29       267.0472     
     49470   1070.7854     -5307.6617     -5095.2026     -90.894186      69997.801      267.14771    
     49480   1066.8837     -5306.8993     -5095.2143     -179.75152      70022.516      267.24694    
     49490   1061.5504     -5305.9171     -5095.2903     -220.52611      70045.899      267.34247    
     49500   1056.7915     -5305.0876     -5095.4051     -241.15672      70067.649      267.43319    
     49510   1053.8673     -5304.6427     -5095.5403     -245.24845      70087.639      267.51942    
     49520   1048.109      -5303.6378     -5095.678      -185.64444      70105.892      267.60231    
     49530   1037.7645     -5301.7046     -5095.7972     -53.338861      70122.859      267.68484    
     49540   1029.5061     -5300.1332     -5095.8644      45.138185      70139.354      267.77143    
     49550   1030.247      -5300.2676     -5095.8518      33.50203       70155.956      267.86507    
     49560   1039.288      -5301.9774     -5095.7678     -38.011136      70172.661      267.96448    
     49570   1049.6675     -5303.9121     -5095.643      -164.92097      70188.995      268.0652     
     49580   1058.0331     -5305.4469     -5095.518      -277.67246      70204.165      268.16345    
     49590   1062.8613     -5306.313      -5095.4261     -326.18619      70217.469      268.25671    
     49600   1064.3618     -5306.5719     -5095.3873     -329.57776      70228.568      268.34336    
     49610   1065.9282     -5306.9033     -5095.4079     -315.26355      70237.42       268.42321    
     49620   1066.9254     -5307.1868     -5095.4935     -265.00899      70244.159      268.49936    
     49630   1065.0764     -5306.9736     -5095.6472     -182.36519      70249.105      268.57639    
     49640   1060.3645     -5306.2577     -5095.8662     -61.407078      70252.84       268.65782    
     49650   1052.7185     -5305.0067     -5096.1323      42.436625      70256.152      268.74415    
     49660   1045.1512     -5303.8        -5096.4271      186.33065      70259.791      268.83503    
     49670   1040.2943     -5303.139      -5096.7297      297.81505      70264.639      268.93301    
     49680   1037.839      -5302.9537     -5097.0316      298.13086      70271.373      269.04155    
     49690   1037.2247     -5303.1277     -5097.3274      276.59341      70280.042      269.16118    
     49700   1037.1161     -5303.4064     -5097.6277      272.03546      70290.558      269.29169    
     49710   1036.0422     -5303.4935     -5097.9279      231.67707      70302.831      269.43363    
     49720   1033.6686     -5303.3247     -5098.2301      198.74115      70316.594      269.58633    
     49730   1032.3484     -5303.3646     -5098.5319      142.36654      70331.606      269.74789    
     49740   1030.5424     -5303.3057     -5098.8313      112.05312      70347.533      269.91568    
     49750   1024.4475     -5302.381      -5099.1159      157.9892       70364.208      270.08848    
     49760   1017.53       -5301.2505     -5099.358       188.73028      70381.853      270.26728    
     49770   1014.0085     -5300.7133     -5099.5194      192.96903      70400.673      270.45242    
     49780   1012.4729     -5300.4518     -5099.5626      156.46405      70420.68       270.64388    
     49790   1012.2836     -5300.3093     -5099.4578      142.92101      70441.693      270.8407     
     49800   1016.0272     -5300.7788     -5099.1845      61.99333       70463.558      271.04078    
     49810   1021.7934     -5301.4698     -5098.7314     -85.331289      70485.723      271.24017    
     49820   1026.6191     -5301.8057     -5098.1097     -221.89078      70507.257      271.43284    
     49830   1030.6746     -5301.8383     -5097.3376     -315.37171      70527.284      271.61292    
     49840   1036.789      -5302.1521     -5096.4383     -392.81089      70545.122      271.77661    
     49850   1046.1539     -5303.0189     -5095.447      -381.01793      70560.337      271.92294    
     49860   1054.9699     -5303.7404     -5094.4192     -364.99697      70572.946      272.05445    
     49870   1061.9588     -5304.1157     -5093.4079     -319.95734      70583.085      272.17535    
     49880   1068.7531     -5304.5131     -5092.4571     -225.60881      70591.084      272.29135    
     49890   1073.6824     -5304.6372     -5091.6032     -143.67087      70597.544      272.40843    
     49900   1077.1448     -5304.5889     -5090.8679     -75.560056      70603.036      272.53013    
     49910   1079.5165     -5304.4567     -5090.2651     -71.02129       70607.982      272.65794    
     49920   1080.455      -5304.1732     -5089.7955     -135.03665      70612.419      272.79134    
     49930   1081.0523     -5303.9506     -5089.4543     -228.3987       70615.936      272.92666    
     49940   1081.4202     -5303.8121     -5089.2429     -318.31042      70617.907      273.0579     
     49950   1081.27       -5303.6964     -5089.157      -439.79211      70617.714      273.17921    
     49960   1079.983      -5303.4822     -5089.1981     -536.66224      70614.611      273.28655    
     49970   1074.4574     -5302.5469     -5089.3591     -598.09301      70607.941      273.37701    
     49980   1064.0053     -5300.7374     -5089.6235     -591.51506      70597.342      273.44639    
     49990   1051.9253     -5298.6661     -5089.9491     -537.88977      70582.845      273.49       
     50000   1039.2466     -5296.4923     -5090.2909     -460.40624      70564.811      273.50546    
Loop time of 4874.8 on 1 procs for 20000 steps with 1536 atoms

Performance: 0.354 ns/day, 67.706 hours/ns, 4.103 timesteps/s, 6.302 katom-step/s
138.2% CPU use with 1 MPI tasks x 1 OpenMP threads

MPI task timing breakdown:
Section |  min time  |  avg time  |  max time  |%varavg| %total
---------------------------------------------------------------
Pair    | 4778.2     | 4778.2     | 4778.2     |   0.0 | 98.02
Bond    | 0.0069181  | 0.0069181  | 0.0069181  |   0.0 |  0.00
Neigh   | 4.7223     | 4.7223     | 4.7223     |   0.0 |  0.10
Comm    | 0.61173    | 0.61173    | 0.61173    |   0.0 |  0.01
Output  | 89.567     | 89.567     | 89.567     |   0.0 |  1.84
Modify  | 1.5264     | 1.5264     | 1.5264     |   0.0 |  0.03
Other   |            | 0.1373     |            |       |  0.00

Nlocal:           1536 ave        1536 max        1536 min
Histogram: 1 0 0 0 0 0 0 0 0 0
Nghost:           2206 ave        2206 max        2206 min
Histogram: 1 0 0 0 0 0 0 0 0 0
Neighs:              0 ave           0 max           0 min
Histogram: 1 0 0 0 0 0 0 0 0 0
FullNghs:        33366 ave       33366 max       33366 min
Histogram: 1 0 0 0 0 0 0 0 0 0

Total # of neighbors = 33366
Ave neighs/atom = 21.722656
Ave special neighs/atom = 0
Neighbor list builds = 2000
Dangerous builds = 2000
System init for write_data ...
System init for write_restart ...
Total wall time: 2:04:37
