LAMMPS (29 Sep 2021 - Update 3)
OMP_NUM_THREADS environment is not set. Defaulting to 1 thread. (src/comm.cpp:98)
  using 1 OpenMP thread(s) per MPI task
Reading data file ...
  orthogonal box = (0.0000000 0.0000000 0.0000000) to (15.613400 15.650667 60.676648)
  2 by 2 by 4 MPI processor grid
  reading atoms ...
  864 atoms
Finding 1-2 1-3 1-4 neighbors ...
  special bond factors lj:    0        0        0       
  special bond factors coul:  0        0        0       
     0 = max # of 1-2 neighbors
     0 = max # of 1-3 neighbors
     0 = max # of 1-4 neighbors
     1 = max # of special neighbors
  special bonds CPU = 0.001 seconds
  read_data CPU = 0.009 seconds
Neighbor list info ...
  update every 1 steps, delay 10 steps, check yes
  max neighbors/atom: 2000, page size: 100000
  master list distance cutoff = 6.22
  ghost atom cutoff = 6.22
  binsize = 3.11, bins = 6 6 20
  1 neighbor lists, perpetual/occasional/extra = 1 0 0
  (1) pair quip, perpetual
      attributes: full, newton on
      pair build: full/bin
      stencil: full/bin/3d
      bin: standard
Setting up Verlet run ...
  Unit style    : metal
  Current step  : 0
  Time step     : 0.001
Per MPI rank memory allocation (min/avg/max) = 8.889 | 8.898 | 8.908 Mbytes
Step Temp PotEng TotEng Press Volume c_msd[4] 
       0            0    -9417.799    -9417.799   -30975.102    14826.953            0 
      10    165.55627   -9436.2929   -9417.8248   -35808.397    14826.953 0.00030948002 
      20    378.45436   -9460.0599   -9417.8428   -42850.796    14826.953 0.0037274276 
      30    405.69294   -9463.0843   -9417.8287   -44302.105    14826.953  0.012463481 
      40    392.02077   -9461.5541   -9417.8236   -44279.401    14826.953  0.024415468 
      50    417.08826   -9464.3564   -9417.8296    -45973.39    14826.953  0.036982033 
      60    420.75535   -9464.7647   -9417.8288    -47753.74    14826.953  0.049634467 
      70     407.9112   -9463.3278   -9417.8247   -49652.187    14826.953  0.062755472 
      80    419.12468   -9464.5812   -9417.8272   -52906.106    14826.953   0.07687559 
      90    432.06858   -9466.0257   -9417.8278   -56644.554    14826.953  0.092516529 
     100    437.07358   -9466.5845   -9417.8283    -59457.96    14826.953   0.10938904 
     110    434.54866   -9466.3021   -9417.8275   -61104.413    14826.953   0.12652542 
     120    434.14482   -9466.2568   -9417.8273   -62154.885    14826.953    0.1431545 
     130      439.361   -9466.8391   -9417.8277   -63630.197    14826.953   0.15919619 
     140    446.51909   -9467.6387   -9417.8289   -65558.428    14826.953   0.17463459 
     150    447.02916   -9467.6951   -9417.8283   -67360.122    14826.953   0.18924565 
     160    445.88924   -9467.5675   -9417.8279   -69292.957    14826.953   0.20295995 
     170    449.26197   -9467.9437   -9417.8279   -71767.875    14826.953   0.21606234 
     180    456.11765   -9468.7096    -9417.829   -74290.183    14826.953   0.22912636 
     190    454.43711   -9468.5223   -9417.8292    -76612.29    14826.953   0.24280842 
     200    446.62774    -9467.649    -9417.827   -78739.398    14826.953   0.25734039 
     210    454.33781   -9468.5105   -9417.8284   -80806.826    14826.953    0.2725174 
     220    466.39184   -9469.8552   -9417.8285   -82316.213    14826.953   0.28796461 
     230    478.52262   -9471.2093   -9417.8294   -82954.729    14826.953   0.30306018 
     240    481.66435   -9471.5594    -9417.829   -83195.523    14826.953   0.31749982 
     250    481.45071   -9471.5331   -9417.8266    -83193.07    14826.953   0.33144361 
     260    501.18304   -9473.7372   -9417.8295   -82982.381    14826.953   0.34536204 
     270    513.25195   -9475.0851   -9417.8311   -82417.815    14826.953   0.35987885 
     280    501.57666   -9473.7806    -9417.829   -81721.808    14826.953   0.37471171 
     290    492.47305   -9472.7646   -9417.8285   -81146.258    14826.953   0.38855622 
     300    495.01951   -9473.0493   -9417.8292   -80485.485    14826.953   0.40074053 
     310    503.02213   -9473.9419    -9417.829   -79975.837    14826.953   0.41197537 
     320    517.02716   -9475.5049   -9417.8298    -80100.53    14826.953   0.42312641 
     330    528.24549   -9476.7573   -9417.8307   -80345.683    14826.953   0.43452756 
     340    527.46021   -9476.6689   -9417.8299   -79908.329    14826.953   0.44600697 
     350    525.40472   -9476.4395   -9417.8298   -79635.847    14826.953   0.45751829 
     360    526.17025   -9476.5255   -9417.8304   -79296.551    14826.953    0.4690149 
     370    526.91272   -9476.6086   -9417.8307   -78934.771    14826.953   0.47994193 
     380    523.77443   -9476.2591   -9417.8312    -78349.26    14826.953    0.4899244 
     390    515.97368   -9475.3874   -9417.8298   -77628.832    14826.953   0.49901453 
     400    520.05492    -9475.843   -9417.8301   -77188.099    14826.953   0.50752529 
     410    532.56265   -9477.2391    -9417.831   -76589.953    14826.953   0.51614865 
     420    540.25226   -9478.0982   -9417.8322   -75877.581    14826.953   0.52551418 
     430    530.99756   -9477.0645   -9417.8309   -74960.344    14826.953   0.53577624 
     440    520.22454   -9475.8617   -9417.8299   -74047.729    14826.953   0.54643624 
     450    524.10068   -9476.2951   -9417.8308    -73298.66    14826.953   0.55673143 
     460    534.09515   -9477.4108   -9417.8316   -72760.738    14826.953   0.56614172 
     470    540.77118   -9478.1556   -9417.8317   -72524.651    14826.953   0.57446846 
     480    541.24645   -9478.2098    -9417.833   -72632.257    14826.953   0.58202651 
     490    525.98312   -9476.5055   -9417.8313   -72557.778    14826.953   0.58956581 
     500    519.29389   -9475.7579   -9417.8299   -72672.134    14826.953   0.59738896 
     510    536.84993   -9477.7197   -9417.8332   -73590.734    14826.953   0.60540983 
     520    541.07469   -9478.1913   -9417.8336   -74459.431    14826.953   0.61314596 
     530    525.46621    -9476.448   -9417.8314     -75250.3    14826.953   0.61964842 
     540    517.81909   -9475.5943   -9417.8308   -76615.008    14826.953   0.62442657 
     550    530.74801   -9477.0373   -9417.8316   -78518.677    14826.953   0.62810042 
     560    549.85385   -9479.1718   -9417.8347   -80253.367    14826.953   0.63196072 
     570    545.69369   -9478.7044   -9417.8314    -81117.21    14826.953   0.63700617 
     580    550.79507   -9479.2735   -9417.8315   -82215.551    14826.953   0.64324602 
     590    565.64388   -9480.9333   -9417.8349   -83714.176    14826.953   0.65037812 
     600    553.97462   -9479.6301   -9417.8334   -84197.142    14826.953   0.65818616 
     610    534.68082   -9477.4754   -9417.8309    -84240.65    14826.953   0.66624572 
     620    539.88467    -9478.057    -9417.832   -85068.031    14826.953   0.67443063 
     630    557.34145   -9480.0068   -9417.8345   -86385.256    14826.953   0.68307389 
     640    561.99273   -9480.5241    -9417.833   -87221.521    14826.953   0.69206136 
     650    566.38107   -9481.0145   -9417.8338   -87655.782    14826.953   0.70036908 
     660    568.86956   -9481.2918   -9417.8335    -87740.11    14826.953   0.70722977 
     670    575.19383   -9481.9963   -9417.8326   -87866.365    14826.953   0.71303183 
     680    595.54742   -9484.2684   -9417.8342   -88404.913    14826.953   0.71947662 
     690    609.98222   -9485.8807   -9417.8363   -88729.686    14826.953    0.7286457 
     700    596.15452   -9484.3367   -9417.8348   -87868.063    14826.953   0.74132924 
     710     573.7335   -9481.8333   -9417.8324   -86258.222    14826.953   0.75645284 
     720    573.70821   -9481.8317   -9417.8337   -84983.366    14826.953   0.77238493 
     730     586.6623   -9483.2786   -9417.8355   -84422.122    14826.953   0.78843572 
     740    590.84846   -9483.7457   -9417.8357   -83666.343    14826.953   0.80463072 
     750    583.49524   -9482.9245   -9417.8347    -82343.99    14826.953   0.82074782 
     760    583.95649   -9482.9744   -9417.8332   -81187.395    14826.953   0.83649385 
     770    604.11555   -9485.2273   -9417.8373   -80598.713    14826.953   0.85208187 
     780    602.14592   -9485.0071   -9417.8368   -79807.857    14826.953   0.86786713 
     790    583.15212   -9482.8843   -9417.8328   -79182.757    14826.953   0.88337328 
     800    591.98235   -9483.8727   -9417.8362    -79217.67    14826.953   0.89779065 
     810     593.6376   -9484.0604   -9417.8392   -78586.479    14826.953   0.91096518 
     820    564.19404    -9480.769   -9417.8323   -76887.536    14826.953   0.92230305 
     830    578.29071   -9482.3435   -9417.8343    -76070.66    14826.953   0.93079609 
     840    620.21177   -9487.0247   -9417.8391   -76615.231    14826.953   0.93735222 
     850    635.72143   -9488.7531   -9417.8374   -76706.283    14826.953   0.94395854 
     860    638.46305   -9489.0584   -9417.8369   -76335.754    14826.953    0.9515297 
     870    639.16227   -9489.1369   -9417.8374   -76423.443    14826.953   0.96015894 
     880    632.78052   -9488.4255   -9417.8379    -76496.29    14826.953   0.96986761 
     890    619.52962   -9486.9443   -9417.8348   -76440.217    14826.953   0.98065907 
     900    631.58349   -9488.2902   -9417.8361   -77290.162    14826.953   0.99283193 
     910    659.71446   -9491.4297   -9417.8375   -78626.622    14826.953    1.0074175 
     920    682.68232   -9493.9925   -9417.8382   -79649.341    14826.953     1.025539 
     930    692.81423   -9495.1224   -9417.8379   -80089.571    14826.953    1.0472636 
     940    693.68664   -9495.2193   -9417.8375   -80244.074    14826.953    1.0718362 
     950     697.6853   -9495.6642   -9417.8364   -80549.347    14826.953    1.0985217 
     960    720.55047   -9498.2165    -9417.838   -81100.976    14826.953    1.1269795 
     970    736.50661   -9500.0011   -9417.8427   -81178.831    14826.953    1.1574498 
     980    709.64481   -9496.9987   -9417.8368   -80198.822    14826.953    1.1900413 
     990    699.67715   -9495.8872   -9417.8372   -80141.397    14826.953    1.2238706 
    1000    721.55559   -9498.3287    -9417.838   -81850.645    14826.953    1.2577136 
    1010    753.07988   -9501.8503   -9417.8431   -83180.243    14826.953    1.2911781 
    1020      745.493   -9501.0009   -9417.8401   -82863.976    14826.953    1.3253393 
    1030    733.65366   -9499.6762    -9417.836   -82639.661    14826.953    1.3609259 
    1040    758.67379   -9502.4737   -9417.8425   -83602.278    14826.953     1.397925 
    1050    756.83368   -9502.2682   -9417.8422   -83730.377    14826.953    1.4364633 
    1060    728.60541   -9499.1145   -9417.8375   -82787.476    14826.953    1.4761865 
    1070    732.87934   -9499.5908    -9417.837   -82732.658    14826.953    1.5166131 
    1080    772.96075   -9504.0683   -9417.8434   -84026.785    14826.953     1.557623 
    1090    781.69039   -9505.0406   -9417.8419   -84442.056    14826.953    1.5996324 
    1100    771.56221   -9503.9052   -9417.8363   -84299.214    14826.953    1.6430538 
    1110    801.54413   -9507.2546   -9417.8412   -84972.703    14826.953    1.6886146 
    1120    823.54281   -9509.7109   -9417.8435   -85496.656    14826.953    1.7387343 
    1130     822.5412   -9509.5935   -9417.8378   -84712.521    14826.953    1.7953724 
    1140    852.09877   -9512.8966   -9417.8437   -84635.582    14826.953    1.8578542 
    1150    856.32238   -9513.3687   -9417.8447   -83808.928    14826.953    1.9247272 
    1160    829.16843   -9510.3332   -9417.8382   -82252.194    14826.953    1.9939774 
    1170    841.50467   -9511.7132   -9417.8421   -82218.858    14826.953    2.0635991 
    1180    862.29463   -9514.0344   -9417.8441    -82731.26    14826.953    2.1335867 
    1190    866.74056   -9514.5296   -9417.8434   -81686.997    14826.953    2.2053203 
    1200       872.69    -9515.192   -9417.8421   -80417.058    14826.953    2.2796571 
    1210    894.17681   -9517.5923   -9417.8456   -80254.886    14826.953    2.3566684 
    1220    898.69177    -9518.094   -9417.8436   -80269.089    14826.953    2.4365388 
    1230    902.65555   -9518.5356   -9417.8431   -79919.279    14826.953     2.518764 
    1240    911.76859   -9519.5544   -9417.8452   -78985.613    14826.953    2.6023137 
    1250    918.59896   -9520.3146   -9417.8435   -76973.171    14826.953    2.6875029 
    1260    941.81665   -9522.9069   -9417.8458   -75160.665    14826.953    2.7758222 
    1270     961.5063   -9525.1039   -9417.8464   -73045.867    14826.953    2.8682405 
    1280    975.25968   -9526.6366   -9417.8449   -70472.054    14826.953    2.9648404 
    1290    1001.7621   -9529.5952   -9417.8471   -69578.057    14826.953    3.0655448 
    1300    1017.6288   -9531.3669   -9417.8489   -68777.285    14826.953    3.1701834 
    1310     1014.471   -9531.0095   -9417.8438   -66497.248    14826.953    3.2777376 
    1320    1037.6476   -9533.6011     -9417.85   -64366.582    14826.953    3.3877913 
    1330    1036.1698   -9533.4336   -9417.8473   -62062.663    14826.953    3.5023518 
    1340    1033.7099   -9533.1571   -9417.8452   -59413.385    14826.953    3.6220509 
    1350    1054.8214   -9535.5189   -9417.8519   -57213.004    14826.953    3.7454243 
    1360    1037.5641   -9533.5912   -9417.8494   -54687.928    14826.953    3.8711956 
    1370    1024.3347   -9532.1105   -9417.8444   -51863.642    14826.953    3.9979351 
    1380    1062.9789   -9536.4316   -9417.8547   -49837.894    14826.953    4.1246204 
    1390    1057.5859    -9535.828   -9417.8527   -47126.721    14826.953    4.2515344 
    1400    1031.7037   -9532.9346   -9417.8465   -44628.045    14826.953    4.3784738 
    1410    1045.5289   -9534.4845   -9417.8542   -43213.649    14826.953    4.5048283 
    1420    1036.1371   -9533.4348   -9417.8521   -40686.938    14826.953    4.6299533 
    1430    1013.3873   -9530.8963   -9417.8514   -37037.959    14826.953    4.7524242 
    1440    1009.9024   -9530.5043   -9417.8482   -34353.771    14826.953    4.8714929 
    1450      1045.07    -9534.436   -9417.8569   -32718.717    14826.953     4.987903 
    1460     1044.846   -9534.4069   -9417.8527   -30915.035    14826.953    5.1042348 
    1470    1040.0569   -9533.8734   -9417.8535   -30330.474    14826.953    5.2222883 
    1480    1033.2322   -9533.1134   -9417.8548   -30604.537    14826.953    5.3412471 
    1490    1017.9278   -9531.4016   -9417.8502   -29807.511    14826.953    5.4578543 
    1500    1040.2213   -9533.8955   -9417.8572   -28131.475    14826.953    5.5684253 
    1510    1039.3849   -9533.8003   -9417.8554   -25914.416    14826.953    5.6718067 
    1520    1029.0609   -9532.6473    -9417.854   -24594.464    14826.953    5.7682644 
    1530    1031.5004   -9532.9233   -9417.8579   -24254.573    14826.953    5.8578573 
    1540    1019.0107   -9531.5253   -9417.8532   -23531.216    14826.953    5.9413335 
    1550    1035.4455    -9533.363   -9417.8575   -23504.541    14826.953    6.0203438 
    1560    1050.1303   -9535.0005   -9417.8569    -23102.24    14826.953    6.0964063 
    1570     1053.806   -9535.4108   -9417.8571   -22678.296    14826.953    6.1693718 
    1580     1061.119   -9536.2243   -9417.8549   -21883.077    14826.953     6.236789 
    1590    1088.5999   -9539.2973   -9417.8624   -21917.761    14826.953    6.2959336 
    1600      1067.89   -9536.9845   -9417.8598   -22163.429    14826.953    6.3467449 
    1610    1035.4961   -9533.3641    -9417.853   -23136.244    14826.953    6.3901828 
    1620    1056.7784   -9535.7458   -9417.8606   -24690.284    14826.953    6.4275988 
    1630    1066.5554   -9536.8339   -9417.8581   -25692.824    14826.953    6.4607565 
    1640    1082.2069   -9538.5786   -9417.8568   -26490.679    14826.953    6.4897954 
    1650    1116.1576   -9542.3698   -9417.8608   -28025.498    14826.953    6.5134721 
    1660    1130.4022   -9543.9576   -9417.8596   -28776.295    14826.953    6.5310838 
    1670    1144.7697   -9545.5608     -9417.86   -30173.707    14826.953    6.5431878 
    1680    1161.8103    -9547.465   -9417.8633   -32505.604    14826.953    6.5523479 
    1690    1144.3333   -9545.5114   -9417.8593    -33279.31    14826.953    6.5616337 
    1700    1136.3544   -9544.6191    -9417.857   -33690.837    14826.953    6.5724324 
    1710    1176.6035   -9549.1142   -9417.8623   -37361.619    14826.953    6.5842075 
    1720    1198.4999   -9551.5635   -9417.8691   -40786.714    14826.953    6.5951801 
    1730    1154.0225   -9546.5909    -9417.858    -41380.84    14826.953    6.6025599 
    1740    1162.4697   -9547.5365   -9417.8612   -42122.661    14826.953    6.6035206 
    1750    1217.5958   -9553.6894   -9417.8648   -44095.184    14826.953    6.5987402 
    1760    1258.0248   -9558.2033   -9417.8687   -46540.118    14826.953     6.591658 
    1770    1236.8678   -9555.8357   -9417.8612   -48451.256    14826.953    6.5846594 
    1780    1229.6407   -9555.0271   -9417.8588   -50743.073    14826.953    6.5769021 
    1790    1262.7885   -9558.7348   -9417.8689   -53292.589    14826.953    6.5687005 
    1800    1252.0625   -9557.5318   -9417.8623   -54893.743    14826.953    6.5624205 
    1810    1246.8613   -9556.9532   -9417.8639   -56632.643    14826.953    6.5581611 
    1820    1242.3945   -9556.4566   -9417.8657   -58535.832    14826.953    6.5543941 
    1830    1221.3702    -9554.109   -9417.8634   -60009.412    14826.953    6.5499057 
    1840    1212.9357   -9553.1643   -9417.8595   -61556.573    14826.953    6.5428348 
    1850    1263.9969   -9558.8674   -9417.8667   -65435.852    14826.953    6.5324408 
    1860    1285.5884   -9561.2846   -9417.8753    -68660.14    14826.953    6.5212296 
    1870    1214.4221   -9553.3281   -9417.8575   -67913.202    14826.953    6.5108613 
    1880    1240.7292   -9556.2712    -9417.866   -69208.737    14826.953    6.4995978 
    1890    1270.4483   -9559.6022   -9417.8818   -71282.098    14826.953    6.4880409 
    1900    1157.8079   -9547.0093   -9417.8541   -70763.972    14826.953    6.4774151 
    1910     1166.235     -9547.96   -9417.8648   -72850.327    14826.953    6.4654768 
    1920    1214.5736   -9553.3625    -9417.875   -76494.653    14826.953    6.4516584 
    1930    1182.0419   -9549.7195   -9417.8609   -76455.664    14826.953    6.4355978 
    1940    1204.4023   -9552.2203   -9417.8674   -75958.225    14826.953    6.4157942 
    1950    1226.3694   -9554.6747   -9417.8713   -74838.153    14826.953    6.3937969 
    1960    1204.4092   -9552.2146   -9417.8609   -73367.437    14826.953    6.3721901 
    1970    1239.3277   -9556.1157   -9417.8668   -73666.391    14826.953    6.3514773 
    1980    1264.3958   -9558.9153     -9417.87   -74700.467    14826.953    6.3312291 
    1990     1229.627   -9555.0308    -9417.864   -74940.507    14826.953    6.3107868 
    2000    1194.8681   -9551.1533   -9417.8639   -75555.459    14826.953    6.2895403 
Loop time of 1312.01 on 16 procs for 2000 steps with 864 atoms

Performance: 0.132 ns/day, 182.224 hours/ns, 1.524 timesteps/s
95.3% CPU use with 16 MPI tasks x 1 OpenMP threads

MPI task timing breakdown:
Section |  min time  |  avg time  |  max time  |%varavg| %total
---------------------------------------------------------------
Pair    | 935.31     | 1078.1     | 1270       | 332.6 | 82.17
Bond    | 0.00013542 | 0.00046133 | 0.0012689  |   0.0 |  0.00
Neigh   | 0.023726   | 0.030159   | 0.040139   |   3.2 |  0.00
Comm    | 41.885     | 230.37     | 375.24     | 710.8 | 17.56
Output  | 0.11636    | 1.779      | 6.0654     | 186.7 |  0.14
Modify  | 0.0081503  | 0.0093351  | 0.010412   |   0.7 |  0.00
Other   |            | 1.68       |            |       |  0.13

Nlocal:        54.0000 ave          65 max          37 min
Histogram: 1 0 3 1 3 0 0 0 4 4
Nghost:        616.312 ave         727 max         487 min
Histogram: 4 3 1 0 0 0 0 0 0 8
Neighs:         0.00000 ave           0 max           0 min
Histogram: 16 0 0 0 0 0 0 0 0 0
FullNghs:      3255.38 ave        4280 max        2032 min
Histogram: 1 3 4 0 0 0 0 0 3 5

Total # of neighbors = 52086
Ave neighs/atom = 60.284722
Ave special neighs/atom = 0.0000000
Neighbor list builds = 199
Dangerous builds = 198
Setting up Verlet run ...
  Unit style    : metal
  Current step  : 2000
  Time step     : 0.001
Per MPI rank memory allocation (min/avg/max) = 8.898 | 8.906 | 8.912 Mbytes
Step Temp PotEng TotEng Press Volume c_msd[4] 
    2000        712.5   -9551.1533   -9471.6728   -79431.793    14826.953    6.2895403 
    2010    842.03941   -9567.5625   -9473.6317   -79581.452    14796.218    6.2649987 
    2020     994.6119   -9590.5023   -9479.5519   -73170.761    14705.054    6.2021507 
    2030    962.41236   -9595.4524   -9488.0939    -54983.39     14562.16    6.1150242 
    2040    993.98145   -9607.4637   -9496.5835   -35120.622    14388.474    6.0242481 
    2050    1053.2609    -9620.911   -9503.4182   -16499.445    14209.666    5.9487805 
    2060    1036.0608   -9623.2677   -9507.6936    2820.8425     14048.34    5.9004284 
    2070    1049.5121   -9626.9899   -9509.9153    17884.926    13919.499     5.885152 
    2080    1068.0082   -9630.7124   -9511.5745    27813.239    13827.847    5.9047773 
    2090    1048.7657   -9630.4883   -9513.4969    32750.565    13771.145    5.9572523 
    2100    1063.6185   -9634.6575   -9516.0093    31404.453     13744.29    6.0365226 
    2110    1058.0432   -9637.1226   -9519.0963    27039.121    13740.788    6.1346571 
    2120    1014.6131   -9635.5015   -9522.3199    21832.404    13754.558    6.2429615 
    2130    998.45493    -9636.751   -9525.3718    13948.411      13780.4    6.3529265 
    2140     1000.717   -9639.8935    -9528.262    5305.4213    13812.603     6.457839 
    2150     978.5215   -9640.1663   -9531.0108   -1835.3539    13845.516    6.5506414 
    2160    928.07794   -9637.0829   -9533.5544   -6694.3515    13874.812    6.6223619 
    2170    923.08149     -9638.91   -9535.9389   -10934.301    13897.665    6.6666934 
    2180    959.89476   -9645.5322   -9538.4545   -14933.738    13911.799     6.681742 
    2190    940.35437    -9646.089   -9541.1911   -16227.507    13915.353    6.6680396 
    2200    908.90852   -9645.3745   -9543.9844   -14836.961    13908.109       6.6276 
    2210    914.73816   -9648.8321   -9546.7916   -12945.427    13891.485    6.5649908 
    2220    927.66921   -9653.1457   -9549.6628   -12229.968    13867.159    6.4868092 
    2230     915.6138    -9654.713   -9552.5749   -10594.428    13836.206    6.3980401 
    2240    912.11726   -9657.1834   -9555.4354    -8228.745    13800.108    6.3032939 
    2250    915.41944   -9660.3692   -9558.2528   -6369.1258    13760.725    6.2084248 
    2260    938.15721   -9665.7504   -9561.0976   -5154.9294    13719.544    6.1173689 
    2270    947.80148   -9669.7921   -9564.0634    -2712.883    13677.639    6.0322058 
    2280       919.51   -9669.4808   -9566.9081    1559.1004    13636.791    5.9561238 
    2290    954.31861   -9676.1547    -9569.699    3213.2503    13599.419    5.8935111 
    2300    962.87169   -9680.0499   -9572.6401    3764.9451    13566.473    5.8469692 
    2310    943.53174     -9680.87   -9575.6176     4053.792    13538.058    5.8162535 
    2320    955.60991    -9685.245   -9578.6453    4235.3012    13514.049    5.8006599 
    2330    944.36655   -9687.0579   -9581.7124    4393.4285    13494.265    5.7988752 
    2340    960.33252   -9691.9119   -9584.7853    2356.0618    13478.365    5.8063538 
    2350    1013.3413   -9701.1087    -9588.069   -1448.9053    13464.839    5.8168445 
    2360    1014.3539   -9704.7643   -9591.6116   -4047.3864    13451.381    5.8259437 
    2370    977.16591   -9704.1187   -9595.1144   -5931.8199    13436.351    5.8307922 
    2380    979.43417    -9707.776   -9598.5187   -7837.5512    13418.645    5.8275253 
    2390    997.20754   -9713.2679   -9602.0279    -7174.841     13397.43    5.8121562 
    2400    1024.9171   -9720.0128   -9605.6817   -3717.8343     13373.38    5.7846493 
    2410    1078.3047   -9729.8909   -9609.6044   -683.50992    13348.599    5.7516374 
    2420    1069.6625   -9733.0537   -9613.7312    2611.8159    13325.061     5.722619 
    2430    1046.5222    -9734.519   -9617.7779    4265.6359    13304.558    5.7044183 
    2440    1036.4716   -9737.3729   -9621.7529    4020.5288    13287.861    5.6999993 
    2450    1013.0234   -9738.6389   -9625.6346     3939.696    13274.682    5.7088073 
    2460     1018.709   -9743.0812   -9629.4427    2705.1521     13264.66    5.7275271 
    2470    1052.8208   -9750.8578    -9633.414   -294.60671    13256.782    5.7528912 
    2480    1036.4676   -9753.1828   -9637.5633   -3378.5218    13249.183    5.7829817 
    2490    1019.9871   -9755.4731   -9641.6919   -6694.1135    13239.969    5.8151302 
    2500    1044.8739   -9762.4724   -9645.9151   -9796.1166    13227.254    5.8471084 
    2510    1035.5513   -9765.7795   -9650.2622    -9976.164    13209.598      5.87657 
    2520    1011.8038   -9767.3763    -9654.508   -8255.3816    13187.175    5.8995043 
    2530    1027.0985   -9773.2705   -9658.6961   -6150.1502    13161.223    5.9133014 
    2540    1033.5902   -9778.2614   -9662.9629    -3312.813    13133.289    5.9184954 
    2550    998.93188   -9778.5885   -9667.1561    259.07032    13105.216     5.916557 
    2560    970.89278   -9779.3695    -9671.065    3733.5877    13079.117    5.9086898 
    2570    1019.3185   -9788.6419   -9674.9354    4700.0687    13056.739    5.8960222 
    2580    1026.9875   -9793.6118   -9679.0498    5995.8098    13038.578    5.8793715 
    2590    977.55473   -9792.1504   -9683.1027    7409.3819    13025.091    5.8577231 
    2600    1003.0886   -9799.0566   -9687.1606     5841.167    13016.614    5.8292661 
    2610    1001.1363   -9803.0195   -9691.3413    3617.5211     13012.05    5.7942251 
    2620    979.68176   -9804.7023   -9695.4173    2740.8684    13009.949    5.7550752 
    2630    980.97607   -9808.8544   -9699.4251     2310.638    13009.572    5.7157898 
    2640    973.63806   -9812.0273   -9703.4165    2698.6163    13010.613    5.6793356 
    2650    998.45981   -9818.7462   -9707.3665    1629.8349    13013.084    5.6486203 
    2660     1064.152   -9830.2446   -9711.5369   -915.32349    13016.251     5.626786 
    2670    1043.1026   -9832.2922   -9715.9325   -1345.6277    13018.786    5.6159898 
    2680    978.40099   -9829.2457   -9720.1036   -1211.7785    13020.412    5.6165127 
    2690    956.90504   -9830.7631   -9724.0189   -2890.0735     13021.13    5.6271396 
    2700    914.96214   -9829.8022   -9727.7368   -4048.7758    13020.156    5.6452843 
    2710    904.43683   -9832.1287   -9731.2374   -5431.1909     13016.88    5.6667111 
    2720    941.42169   -9839.7707   -9734.7537   -6353.8487    13010.745    5.6871724 
    2730    970.44794   -9846.7034   -9738.4484   -6529.4832    13001.392     5.704156 
    2740    959.75981   -9849.3587    -9742.296   -5570.3987    12988.946    5.7166946 
    2750    912.81581   -9847.8489   -9746.0229   -3644.4384    12974.167    5.7246685 
    2760    908.00487   -9850.8684   -9749.5791   -2115.0036    12958.219    5.7283769 
    2770    878.81327   -9851.0185   -9752.9855    1341.9986    12942.212    5.7298043 
    2780    879.80589   -9854.3222   -9756.1785    5211.2361    12928.033    5.7312361 
    2790     902.6696   -9860.0802   -9759.3861    7512.2477    12917.623    5.7335363 
    2800    871.63718   -9859.7978   -9762.5653    8918.8936    12912.117    5.7353259 
    2810    859.85524   -9861.5616   -9765.6434    7947.3336    12911.926    5.7335363 
    2820     856.2513   -9864.2003   -9768.6842     5627.757    12916.212    5.7266654 
    2830    824.48974   -9863.5834   -9771.6103    2148.3387    12923.385    5.7144899 
    2840    807.77618   -9864.4785   -9774.3698   -943.76502    12931.402     5.696445 
    2850    790.26947    -9865.156   -9777.0002   -3783.3542    12938.424    5.6730458 
    2860     765.9874   -9864.8775   -9779.4304   -6121.7109    12942.904    5.6453638 
    2870     778.0983   -9868.5171    -9781.719   -8130.2918    12943.631     5.614568 
    2880     774.4814   -9870.3593   -9783.9647   -9213.9551    12939.679     5.582856 
    2890    744.36876   -9869.1396   -9786.1042   -7687.8862     12930.81    5.5524809 
    2900    730.20081   -9869.5431   -9788.0881   -4990.2356    12918.114    5.5251561 
    2910    724.57609   -9870.7329   -9789.9054   -1304.5409    12903.353    5.5020305 
    2920     730.8483    -9873.112   -9791.5848     3077.301    12888.736    5.4838871 
    2930    734.10631   -9875.0697   -9793.1791     6336.041    12876.658    5.4712573 
    2940    731.67528    -9876.357   -9794.7375     7265.158    12868.766    5.4636158 
    2950    731.88947   -9877.9342   -9796.2908    6090.8334    12865.323    5.4594443 
    2960    736.28036   -9879.9846   -9797.8514    4445.2999    12865.492    5.4575802 
    2970    732.36168   -9881.1146   -9799.4185    3597.6451    12868.216    5.4574974 
    2980    707.21625   -9879.8214   -9800.9304    3234.4733     12872.86    5.4596238 
    2990    695.33457   -9879.8905   -9802.3249    2327.5178    12879.085    5.4652804 
    3000    689.92489   -9880.5484   -9803.5862    233.46027    12886.254    5.4764882 
    3010    686.48403   -9881.2814   -9804.7031   -2126.0224    12893.181    5.4939244 
    3020    697.52301   -9883.5322   -9805.7225   -4483.2622    12898.535    5.5152905 
    3030    677.56311   -9882.2621   -9806.6789   -4654.2739    12901.176    5.5363083 
    3040    675.65313   -9882.9108   -9807.5407   -4393.8801    12901.034    5.5530492 
    3050    726.73116   -9889.4593   -9808.3913   -5072.1371    12898.329    5.5636422 
    3060     725.5789   -9890.2259   -9809.2865   -3588.7908    12892.975    5.5693501 
    3070    696.10769   -9887.8127   -9810.1608   -425.85741    12885.927    5.5726613 
    3080    693.64267   -9888.3429    -9810.966    1478.1612     12878.91    5.5753644 
    3090    691.34494   -9888.8219   -9811.7014    2466.1652    12873.045    5.5784869 
    3100    691.39023   -9889.5104   -9812.3848    2572.3551    12868.827     5.582399 
    3110    691.65597   -9890.1817   -9813.0265    2633.1145    12866.279    5.5871959 
    3120    690.17733   -9890.6137   -9813.6234    1821.6743    12865.292    5.5932348 
    3130    690.24744   -9891.1679   -9814.1698     554.3221    12865.358    5.6000589 
    3140    673.62209   -9889.8001   -9814.6565    331.92939    12865.789     5.605215 
    3150    643.32468   -9886.8059    -9815.042    1065.6995    12866.459    5.6060744 
    3160    643.55049     -9887.08   -9815.2909    1122.3667    12867.678    5.6024242 
    3170     670.7527   -9890.2251   -9815.4016   -355.00601    12869.409    5.5970477 
    3180    688.35941   -9892.1993   -9815.4117   -741.95977    12870.935    5.5933265 
    3190    677.41608   -9890.9223   -9815.3556   -802.67005    12871.979    5.5927892 
    3200    688.30901   -9892.0154   -9815.2335   -1715.0283    12872.484    5.5947485 
    3210    703.11247   -9893.4928   -9815.0596   -2134.4206    12872.013    5.5985327 
    3220    682.43825   -9890.9745   -9814.8475   -1834.6031    12870.362    5.6047924 
    3230    704.59762    -9893.194   -9814.5951     -2242.36    12867.697    5.6138401 
    3240    732.07716   -9895.9804   -9814.3161   -3040.6861    12863.847    5.6248148 
    3250    739.38608   -9896.5504   -9814.0707   -3387.4603    12858.447     5.636104 
    3260    734.98449   -9895.8829   -9813.8943   -2262.5419     12851.42    5.6473567 
    3270    679.88838   -9889.5809   -9813.7383     920.4315    12843.511     5.659702 
    3280    689.95475   -9890.5016   -9813.5361     3049.708    12836.387     5.673724 
    3290    749.71968   -9896.9194   -9813.2871    4624.7999    12831.257    5.6909253 
    3300    760.95394   -9897.9809   -9813.0953    6991.1059    12829.007    5.7133667 
    3310    757.42968   -9897.5325     -9813.04    6932.3339     12830.68    5.7419001 
    3320    730.75064   -9894.6132   -9813.0969    5825.2249    12836.215    5.7766611 
    3330    717.84568   -9893.2828   -9813.2061    3120.6077    12844.792    5.8174037 
    3340    738.44145   -9895.7115   -9813.3372   -1264.9255    12854.732    5.8637858 
    3350     724.8123   -9894.3363   -9813.4824    -4418.174    12863.658    5.9138839 
    3360    736.44186   -9895.8103   -9813.6591   -7124.5762     12869.74    5.9630671 
    3370    746.98749   -9897.2347   -9813.9071   -8176.3935    12871.585    6.0073119 
    3380      713.727   -9893.8367   -9814.2194   -6757.1649    12868.805    6.0442352 
    3390    727.11974   -9895.6717   -9814.5604   -6221.2917    12862.191    6.0723623 
    3400    733.27198    -9896.735   -9814.9374   -4413.1971    12852.318    6.0919253 
    3410    723.35514   -9896.0197   -9815.3284    -213.2722    12840.421    6.1043372 
    3420     743.5571   -9898.6925   -9815.7476    2840.3962    12828.768     6.111296 
    3430    740.55226   -9898.8448   -9816.2351    5076.3062    12819.114    6.1146292 
    3440    706.93133   -9895.6231   -9816.7638    6283.8973    12812.661    6.1145024 
    3450    723.79987   -9898.0567   -9817.3157    4712.0358    12809.866    6.1099852 
    3460    757.87719   -9902.4838   -9817.9415    3513.7042    12809.873    6.1019572 
    3470     745.2433   -9901.8015   -9818.6685    3196.2534     12811.92    6.0922783 
    3480    714.81496   -9899.1655   -9819.4269    1733.5908    12815.645    6.0822293 
    3490    693.35307   -9897.4593   -9820.1147   -733.37927    12820.172    6.0740382 
    3500    691.58786   -9897.8765   -9820.7289   -3170.5639    12824.129    6.0695231 
    3510    686.70318   -9897.8969   -9821.2942   -4241.3914    12826.203    6.0680499 
    3520    691.10437   -9898.9084   -9821.8147   -3133.9936    12825.895    6.0671235 
    3530    692.14727   -9899.4881    -9822.278    -674.1134    12823.889    6.0659159 
    3540    696.42708   -9900.3832   -9822.6957    544.79829    12821.499    6.0658955 
    3550    692.81826   -9900.3658   -9823.0809    644.36156    12819.447    6.0691492 
    3560    666.03767   -9897.7153   -9823.4178    696.15234    12817.835    6.0778651 
    3570    661.67189   -9897.4759   -9823.6654    853.47253    12816.681    6.0935468 
    3580    685.75529   -9900.3296   -9823.8326     868.4672    12816.045    6.1158609 
    3590    678.31007    -9899.595   -9823.9285    1139.9056    12815.945    6.1429469 
    3600    684.33372   -9900.2981   -9823.9596    543.81222    12816.447    6.1723434 
    3610    686.03473   -9900.4497   -9823.9215   -164.02568    12817.224    6.2026371 
    3620    675.63212   -9899.1925   -9823.8247    20.245819    12817.951    6.2333731 
    3630    679.01515   -9899.4017   -9823.6565   -822.03695    12818.624    6.2639847 
    3640    703.52496   -9901.8959   -9823.4166    -1353.717    12818.843    6.2930372 
    3650    700.18637   -9901.2284   -9823.1215   -262.56101    12818.399    6.3202437 
    3660    690.90987   -9899.8579   -9822.7858    -13.53687    12817.794    6.3471778 
    3670    702.15278    -9900.743   -9822.4168   -1739.0309    12817.067    6.3757218 
    3680    670.16764   -9896.7752    -9822.017   -1348.9307    12815.498    6.4063683 
    3690    688.22939   -9898.3439   -9821.5708   -841.10645    12813.218    6.4376591 
    3700    727.49177   -9902.2145   -9821.0617   -1517.1996    12810.458    6.4676744 
    3710    691.75259   -9897.7304   -9820.5644   -891.20652    12806.993    6.4942276 
    3720     682.0609   -9896.1577   -9820.0728   -481.27653    12803.112     6.515446 
    3730    704.39835   -9898.0982   -9819.5215   -807.41362    12799.032    6.5312144 
    3740    715.53833   -9898.7534    -9818.934   -266.25245     12794.66    6.5415158 
    3750    715.87755    -9898.202   -9818.3448     1374.279    12790.337    6.5462646 
    3760    720.15223   -9898.0934   -9817.7594    2441.8191      12786.9    6.5471298 
    3770    705.23827   -9895.8476   -9817.1772    2176.7621    12784.882    6.5481217 
    3780    697.16764   -9894.3604   -9816.5903     1115.311    12784.118     6.552302 
    3790    732.29392   -9897.6715    -9815.983    89.159208    12784.011    6.5600669 
    3800    730.93076   -9896.9281   -9815.3917    931.00593    12784.069    6.5702368 
    3810    702.66387   -9893.2367   -9814.8535    1769.1788    12784.657    6.5806946 
    3820    723.83142   -9895.0724   -9814.3279    1041.3014    12786.135    6.5902893 
    3830     715.1592   -9893.5726   -9813.7955    763.02086    12788.194    6.5993257 
    3840    730.55926   -9894.7841   -9813.2891   -871.53648    12790.568    6.6074682 
    3850    739.49797   -9895.2982   -9812.8061   -3081.2238    12792.338    6.6144446 
    3860    720.64512   -9892.7662   -9812.3772   -3539.6479    12792.411    6.6193275 
    3870    742.01493    -9894.765   -9811.9921   -5543.1372    12790.356    6.6211711 
    3880    762.22399   -9896.7092    -9811.682   -6739.5863    12785.229    6.6204973 
    3890    741.99989   -9894.2652   -9811.4939   -4506.4055     12776.59    6.6183029 
    3900    723.19841   -9892.0493   -9811.3755   -1879.5591    12765.644    6.6145831 
    3910    744.98986   -9894.3878   -9811.2831   -375.72264    12753.878    6.6084821 
    3920    734.02721   -9893.1084   -9811.2266    2131.4007    12742.294    6.6003132 
    3930    715.20285   -9890.9789   -9811.1969    4666.7034    12732.243    6.5906779 
    3940    733.05953    -9892.966   -9811.1921    5106.1558    12724.976    6.5800703 
    3950    740.45715   -9893.8377   -9811.2386    5318.1631    12720.782    6.5696544 
    3960     735.1239   -9893.3652   -9811.3611    5436.9513    12719.715    6.5614708 
    3970    723.94222   -9892.3016   -9811.5447    4394.5551    12721.682    6.5567548 
    3980    723.78887   -9892.4997     -9811.76    1819.0418    12725.981    6.5541572 
    3990    729.59024    -9893.381   -9811.9941    229.82337    12731.257    6.5519437 
    4000     724.3321   -9893.0629   -9812.2626   -293.61576    12736.586    6.5495146 
    4010    714.17994   -9892.2155   -9812.5476   -1579.5514    12741.577    6.5460143 
    4020    723.04414   -9893.4996    -9812.843   -4225.5175    12745.492    6.5398591 
    4030    711.04042   -9892.4658   -9813.1482   -7059.4696    12746.916    6.5303043 
    4040    712.48455   -9892.9607    -9813.482     -8363.91    12744.394    6.5172804 
    4050    710.15868   -9893.0524   -9813.8332   -8799.1223    12737.228    6.5017913 
    4060    742.48996   -9897.0548   -9814.2289   -8187.1124    12725.317    6.4851763 
    4070    754.95647   -9898.9139   -9814.6974   -4140.1266    12709.283    6.4694841 
    4080    728.95844    -9896.496   -9815.1796     2283.281    12691.446    6.4568213 
    4090    722.69339   -9896.2511   -9815.6336    7233.9373    12675.278    6.4473171 
    4100    730.07871   -9897.5414      -9816.1     9784.076    12663.459    6.4389835 
    4110      726.563   -9897.6844   -9816.6352      9679.87    12657.262    6.4293909 
    4120    705.52495   -9895.9227   -9817.2203    7368.1591    12656.492    6.4161427 
    4130      706.028   -9896.5662   -9817.8077    3817.1045    12659.787    6.3980655 
    4140    720.28693   -9898.7325   -9818.3834   -648.81384     12665.09    6.3775523 
    4150    717.89056   -9899.0405   -9818.9588   -3499.0295    12670.002     6.357895 
    4160    707.74835   -9898.4739   -9819.5235   -4262.6063    12672.939    6.3391268 
    4170     699.9635   -9898.1443   -9820.0623   -4186.3461     12673.45    6.3191353 
    4180    693.25955   -9897.8949   -9820.5607   -3470.2945    12671.662    6.2965448 
    4190    714.81432   -9900.7733   -9821.0346   -3243.0194    12667.934    6.2716966 
    4200    729.60235   -9902.9214   -9821.5331   -2269.9922    12662.498    6.2463533 
    4210    698.54165   -9899.9559   -9822.0326    309.66868    12656.002    6.2219366 
    4220    688.36045   -9899.2726   -9822.4849    2465.7949    12649.822    6.1985915 
    4230    708.54154   -9901.9423   -9822.9034    3051.1443    12645.085    6.1759662 
    4240    697.64998   -9901.1349    -9823.311    3147.3808    12642.134    6.1536473 
    4250    676.65657   -9899.1546   -9823.6726    2290.8089    12640.964    6.1309667 
    4260    694.21585   -9901.4154   -9823.9746    106.08206    12641.034    6.1078654 
    4270    698.06999   -9902.0995   -9824.2288    -549.4899    12641.254    6.0851763 
    4280    693.37813    -9901.789   -9824.4416   -590.37187    12641.168    6.0630958 
    4290    712.08982   -9904.0706   -9824.6359   -1239.1587    12640.721    6.0415017 
    4300     687.6113    -9901.513   -9824.8089   -1604.7727    12639.634    6.0196926 
    4310    674.56192    -9900.179   -9824.9306   -2661.3547    12637.637    5.9953175 
    4320     693.8396   -9902.3946   -9824.9958    -3972.206    12634.186     5.966448 
    4330    679.34864   -9900.7953    -9825.013    -3946.587    12628.663       5.9323 
    4340    690.26333   -9901.9885   -9824.9886   -3448.4517    12621.079    5.8924342 
    4350    728.15094   -9906.1799   -9824.9535   -3476.6561    12611.707    5.8480543 
    4360    697.69903   -9902.7524    -9824.923   -1138.9815     12600.73    5.8019693 
    4370    676.08778   -9900.2482   -9824.8296    2113.3862    12589.409    5.7565099 
    4380    721.46487   -9905.1415    -9824.661    3113.2279    12579.374    5.7139243 
    4390    716.06677   -9904.3469   -9824.4686    3844.8619    12571.262    5.6761755 
    4400    707.62235    -9903.217   -9824.2806    4335.6974    12565.426    5.6423462 
    4410    712.21782   -9903.5291   -9824.0801    4473.9677    12562.105    5.6099234 
    4420    712.02988   -9903.3079   -9823.8799    3620.6824    12561.265     5.576839 
    4430    716.76111   -9903.6258     -9823.67    1877.1769     12562.39     5.542747 
    4440    725.47799   -9904.3926   -9823.4644   -246.55513     12564.49    5.5092647 
    4450    714.05231   -9902.9423   -9823.2887   -2081.5592    12566.406    5.4782932 
    4460    709.71451   -9902.3097   -9823.1399   -3342.2199    12567.163    5.4504753 
    4470    712.13806   -9902.4319   -9822.9919   -2942.0538    12566.155    5.4261055 
    4480    713.59348   -9902.4341   -9822.8317    -1608.649    12563.588    5.4048528 
    4490    729.03929   -9904.0026   -9822.6771   -1155.9323    12560.157    5.3854341 
    4500    721.04816   -9902.9852   -9822.5512   -2010.9654    12556.093    5.3660243 
    4510    713.69316   -9902.0633   -9822.4497   -1301.4963    12551.127     5.344671 
    4520    743.80954   -9905.3426   -9822.3695   -964.90451    12545.512    5.3210404 
    4530    738.61128   -9904.7375   -9822.3443    100.83874    12539.515    5.2967552 
    4540      701.157   -9900.5749   -9822.3597    1859.5067    12533.738    5.2723024 
    4550    711.31492   -9901.7212   -9822.3729    1408.2829    12528.978    5.2466932 
    4560    731.99078   -9904.0504   -9822.3957    151.34652    12525.043    5.2197792 
    4570    709.00391   -9901.5335   -9822.4431   -442.22869     12521.32    5.1927182 
    4580     721.8708   -9903.0342   -9822.5084   -2171.1902     12517.36    5.1668083 
    4590    730.77963   -9904.1181   -9822.5986   -2315.3182    12512.371    5.1432315 
    4600    699.65903   -9900.7476   -9822.6996    -552.0463    12506.311    5.1213991 
    4610    723.79455   -9903.5388   -9822.7985    -521.3208    12499.947    5.0986908 
    4620    750.82599   -9906.6897   -9822.9339   -616.89466    12493.401    5.0743071 
    4630    731.41773   -9904.7265   -9823.1358      520.813    12486.695    5.0495257 
    4640    721.37649     -9903.84   -9823.3694    260.19136    12480.329    5.0243398 
    4650    726.83934    -9904.697    -9823.617   -1723.8283    12474.142    4.9971346 
    4660    733.04839   -9905.6782   -9823.9056   -2942.6028    12467.174    4.9661383 
    4670    734.10706   -9906.1362   -9824.2455   -2166.0576    12458.828    4.9304704 
    4680    726.19107   -9905.6376   -9824.6299    624.61995    12449.556    4.8910043 
    4690    696.13583   -9902.6591   -9825.0041    2790.0164     12440.76    4.8508931 
    4700    709.84274   -9904.5493   -9825.3653    2544.1532    12433.505    4.8133867 
    4710    718.88945   -9905.9298   -9825.7366    1937.7823    12427.721    4.7796922 
    4720    714.56369   -9905.8325   -9826.1218    1926.8356    12423.108    4.7479808 
    4730    726.19207   -9907.5421   -9826.5343    1916.3916    12419.612    4.7166116 
    4740    693.11224   -9904.2593   -9826.9416    1742.2972    12417.193    4.6870557 
    4750    689.81392   -9904.2395   -9827.2898   -677.79723    12415.645    4.6605488 
    4760    721.66126   -9908.1155   -9827.6131   -4315.2013    12413.693    4.6367874 
    4770    697.35788   -9905.7284   -9827.9371    -4933.018      12409.6    4.6149727 
    4780     690.1596   -9905.2347   -9828.2464   -4033.4586    12402.982    4.5934604 
    4790    683.42837   -9904.7394   -9828.5019   -1808.2565    12394.382    4.5714016 
    4800    694.07085   -9906.1223   -9828.6976    559.07272    12384.964     4.549422 
    4810    714.02108    -9908.512   -9828.8619    1218.9513    12375.934    4.5288974 
    4820    715.53138    -9908.847   -9829.0284    552.60136    12367.658    4.5105572 
    4830    695.40044   -9906.7564   -9829.1834    178.27453    12359.825    4.4942478 
    4840    678.79949   -9905.0002   -9829.2791    650.89711    12352.262    4.4793888 
    4850    712.85374   -9908.8376   -9829.3177    638.90155    12345.161     4.465262 
    4860    720.35088   -9909.7027   -9829.3465    1499.0046    12338.555    4.4522471 
    4870    675.09935   -9904.6867   -9829.3783    3243.4399    12332.922    4.4397626 
    4880    678.43262   -9905.0502     -9829.37    1269.4256    12328.923    4.4254171 
    4890    712.16034   -9908.7567   -9829.3141   -2922.4829    12325.567    4.4086889 
    4900    686.63284   -9905.8401   -9829.2452   -5063.8041    12320.836    4.3911522 
    4910    678.73953   -9904.8727   -9829.1583   -5434.0099    12313.589    4.3740924 
    4920    702.39087   -9907.3866   -9829.0339   -6030.3187    12303.552    4.3588205 
    4930    692.99595   -9906.1886   -9828.8839   -4100.8594    12290.632    4.3460667 
    4940    682.26576   -9904.7869   -9828.6791   -1239.0851    12275.834     4.335547 
    4950     698.5435   -9906.3058   -9828.3822    18.156976    12260.598    4.3272337 
    4960    721.92074   -9908.5671   -9828.0358    1059.9632    12245.676    4.3218263 
    4970    720.90825   -9908.1017   -9827.6833    3193.8419    12231.704    4.3204897 
    4980    717.44191   -9907.3724   -9827.3407    4284.3321    12219.655    4.3233057 
    4990    720.31542    -9907.357   -9827.0048    4352.0147    12210.088    4.3288848 
    5000    730.73495   -9908.2036    -9826.689    3397.4275     12202.99     4.335714 
Loop time of 2101.24 on 16 procs for 3000 steps with 864 atoms

Performance: 0.123 ns/day, 194.560 hours/ns, 1.428 timesteps/s
96.4% CPU use with 16 MPI tasks x 1 OpenMP threads

MPI task timing breakdown:
Section |  min time  |  avg time  |  max time  |%varavg| %total
---------------------------------------------------------------
Pair    | 1123.3     | 1678       | 2061.4     | 807.2 | 79.86
Bond    | 0.0001874  | 0.00060101 | 0.0025308  |   0.0 |  0.00
Neigh   | 0.035794   | 0.054251   | 0.067801   |   5.2 |  0.00
Comm    | 39.156     | 415.89     | 955.17     |1585.0 | 19.79
Output  | 0.3817     | 0.38498    | 0.43171    |   1.9 |  0.02
Modify  | 0.14445    | 6.8592     | 22.39      | 349.4 |  0.33
Other   |            | 0.01291    |            |       |  0.00

Nlocal:        54.0000 ave          65 max          36 min
Histogram: 1 1 2 1 1 2 0 0 4 4
Nghost:        678.125 ave         761 max         589 min
Histogram: 7 1 0 0 0 0 0 0 0 8
Neighs:         0.00000 ave           0 max           0 min
Histogram: 16 0 0 0 0 0 0 0 0 0
FullNghs:      3488.62 ave        4478 max        2144 min
Histogram: 1 3 0 2 2 0 0 0 5 3

Total # of neighbors = 55818
Ave neighs/atom = 64.604167
Ave special neighs/atom = 0.0000000
Neighbor list builds = 300
Dangerous builds = 300
Setting up Verlet run ...
  Unit style    : metal
  Current step  : 5000
  Time step     : 0.001
Per MPI rank memory allocation (min/avg/max) = 8.899 | 8.907 | 8.912 Mbytes
Step Temp PotEng TotEng Press Volume c_msd[4] 
    5000    730.73495   -9908.2036    -9826.689    3397.4275     12202.99     4.335714 
    5010    743.78693    -9909.698   -9826.7275   -276.72189    12203.599    4.3250224 
    5020    724.62105   -9907.6791   -9826.8465   -3852.6093    12204.079    4.3162957 
    5030    703.50971   -9905.4981   -9827.0205    -7210.435    12202.547     4.312673 
    5040    726.55338   -9908.2879   -9827.2397   -10304.289    12197.234    4.3167217 
    5050    734.46452   -9909.4757   -9827.5451   -10876.167    12186.625    4.3310169 
    5060    708.14855   -9906.9018   -9827.9068   -8977.9642    12170.455    4.3565437 
    5070      722.994   -9908.9166   -9828.2655   -6392.9156    12149.686    4.3909138 
    5080    736.75672   -9910.7964   -9828.6101    -2892.664    12125.737    4.4310192 
    5090    719.80331   -9909.2093   -9828.9141    1837.4217    12100.521    4.4742544 
    5100    721.25301   -9909.6298   -9829.1729    5959.8786    12076.449    4.5176022 
    5110    735.02977    -9911.444   -9829.4503    8675.0435    12055.626    4.5579774 
    5120    746.67152   -9913.1454   -9829.8531      8720.11    12039.365    4.5934669 
    5130    741.83189   -9913.1773   -9830.4248    6764.7989    12027.677    4.6241221 
    5140    747.61147   -9914.5612    -9831.164     2734.842     12019.46     4.651816 
    5150    737.22427   -9914.2444   -9832.0059   -916.21427    12012.774    4.6801769 
    5160    739.70584   -9915.4099   -9832.8946   -3735.4492     12005.76     4.711835 
    5170    731.59878   -9915.3822   -9833.7713   -5188.2828    11997.027    4.7477285 
    5180    716.94762    -9914.528   -9834.5514   -6682.6909    11985.813    4.7875258 
    5190    729.20235    -9916.576   -9835.2324   -8868.1016    11971.396    4.8313883 
    5200    732.98288   -9917.6246   -9835.8592   -8860.9918    11952.922     4.881044 
    5210    713.05889   -9915.9365   -9836.3937   -6267.1803    11930.562    4.9377916 
    5220    732.69012   -9918.5468   -9836.8141   -2855.5282    11905.644    5.0019177 
    5230    736.42849   -9919.2936   -9837.1439    1683.4342    11880.005    5.0731193 
    5240    713.68048   -9916.9947   -9837.3826    6050.8834    11855.915    5.1487435 
    5250    738.79651   -9919.9949    -9837.581    6919.0762    11835.329    5.2258321 
    5260    769.87908   -9923.7258   -9837.8447    5495.4108     11818.66     5.303874 
    5270    777.46504   -9924.9883   -9838.2609    2579.7914    11805.132    5.3835601 
    5280    778.01231   -9925.6421   -9838.8537   -690.67025    11793.304     5.465979 
    5290    762.38568   -9924.6138   -9839.5685   -3444.0629    11781.584    5.5522795 
    5300    769.72192   -9926.2241   -9840.3605   -6607.0878    11768.603    5.6439919 
    5310    787.28945   -9929.0786   -9841.2553   -8447.2572    11753.016    5.7440554 
    5320    794.17446   -9930.8568   -9842.2654   -8781.9284    11734.097    5.8541739 
    5330     822.5931   -9935.2183   -9843.4568   -9452.2377    11711.774    5.9760955 
    5340    830.32627   -9937.4826   -9844.8585   -7963.5111    11686.045    6.1128218 
    5350    794.72642   -9934.9103   -9846.2573   -4606.6993    11657.866    6.2634508 
    5360    832.92264    -9940.471   -9847.5572   -3599.8589     11628.84    6.4225093 
    5370    863.01503   -9945.1747   -9848.9041   -1358.9074    11599.744    6.5875316 
    5380    832.45455    -9943.059   -9850.1974    3982.9472    11571.798    6.7566509 
    5390    838.84135   -9944.9344   -9851.3603    7025.3913    11547.205    6.9228342 
    5400    829.65247   -9945.0049   -9852.4559    7292.8509    11527.179    7.0783938 
    5410    831.68319   -9946.3496   -9853.5741    4938.0998     11511.53    7.2184688 
    5420    834.63987   -9947.8755   -9854.7702    3637.4532    11499.104     7.342775 
    5430    820.62077     -9947.56   -9856.0185    3873.8691    11489.106    7.4544488 
    5440    807.54086   -9947.3625   -9857.2801    3237.1486    11481.381    7.5583478 
    5450    815.71288    -9949.553    -9858.559    1819.1462    11475.509    7.6587941 
    5460    801.33918   -9949.2479   -9859.8573    1701.1057    11470.827    7.7572214 
    5470    770.12685   -9946.9936   -9861.0848    1052.1922    11467.139    7.8511636 
    5480    791.43512   -9950.5665   -9862.2807   -2013.7767    11463.997    7.9378697 
    5490    775.17305   -9949.9611   -9863.4893    -3692.944    11460.124    8.0181883 
    5500    731.70142   -9946.2367   -9864.6143   -2890.8079     11454.84    8.0928389 
    5510    748.45159   -9949.1452   -9865.6543   -2387.4741    11448.456    8.1622198 
    5520    768.98284   -9952.4772    -9866.696   -2795.4506    11441.201     8.227551 
    5530    755.11356   -9951.9781   -9867.7441   -2247.9855        11433     8.288794 
    5540    747.92197   -9952.2129    -9868.781   -2505.5148    11424.022    8.3451841 
    5550    744.72153   -9952.8961   -9869.8213   -3443.0037    11414.168     8.399605 
    5560    722.18273   -9951.3985   -9870.8379   -2085.8117    11403.175    8.4561088 
    5570    709.26298   -9950.8875   -9871.7681    1644.4277    11391.689     8.514525 
    5580    709.81543   -9951.7557   -9872.5747    5497.0357    11381.303    8.5697001 
    5590    726.46577   -9954.3257   -9873.2873    7758.9272    11373.651    8.6149139 
    5600    737.04264    -9956.192   -9873.9738    7427.9466    11369.605    8.6460273 
    5610    742.42918   -9957.4906   -9874.6715    6230.5914    11369.011    8.6646101 
    5620    763.82815   -9960.6416   -9875.4354    4755.4343    11371.225    8.6768056 
    5630    738.53951   -9958.6372    -9876.252    4339.7818    11375.569    8.6852327 
    5640    726.83766   -9958.1264   -9877.0465    2106.5138    11381.691    8.6851828 
    5650    757.39232   -9962.3372   -9877.8489   -1936.8142     11388.54    8.6731202 
    5660    761.12453   -9963.6031   -9878.6985   -5601.5462    11394.367    8.6500619 
    5670    771.68383   -9965.7217   -9879.6392   -7441.1462    11397.622     8.619957 
    5680    765.90575   -9966.1262   -9880.6882   -6453.5311    11397.551    8.5859973 
    5690    737.89647   -9964.0973   -9881.7838   -2436.4611    11394.685    8.5455589 
    5700    721.64271   -9963.3274   -9882.8271    1716.7107    11390.794    8.4916265 
    5710    734.51047   -9965.7485   -9883.8128     3228.154    11387.643    8.4198937 
    5720    720.86512   -9965.1716    -9884.758    4020.8531    11385.995    8.3340408 
    5730    684.12933   -9961.9355   -9885.6199     5767.157    11386.248    8.2401008 
    5740    684.02932   -9962.6519   -9886.3474    6203.8117    11389.049    8.1405775 
    5750    705.99563   -9965.7006   -9886.9458    5280.0666    11394.556    8.0386379 
    5760    712.17092   -9966.8712   -9887.4275    4320.3309    11402.359    7.9404499 
    5770    732.46699    -9969.576   -9887.8682    881.83189    11411.814    7.8525908 
    5780    727.49393   -9969.4899   -9888.3368   -1453.2305    11421.493     7.779629 
    5790    699.49189   -9966.8393   -9888.8099   -2587.4533     11430.32    7.7205715 
    5800    684.51294   -9965.5818   -9889.2233   -3654.7266    11437.749     7.672215 
    5810    676.50047   -9965.0257   -9889.5611   -4152.8892    11443.362    7.6329169 
    5820    691.14664   -9966.9449   -9889.8465   -4683.6702     11446.94     7.602992 
    5830    714.85293   -9969.8784   -9890.1355   -4924.4624    11448.309    7.5852815 
    5840    702.48197   -9968.8023   -9890.4394   -4539.7975    11447.424     7.583241 
    5850    695.99776   -9968.3771   -9890.7375    -2965.733    11444.524    7.5975196 
    5860    692.80156   -9968.2762   -9890.9931   -192.76577    11440.385    7.6260584 
    5870    694.54099   -9968.6889   -9891.2118    1951.0143    11436.244    7.6660107 
    5880    676.56714   -9966.8409   -9891.3688    3253.2305    11433.086    7.7143726 
    5890    675.03241   -9966.7422   -9891.4413    3665.1723    11431.443    7.7646646 
    5900    682.78932   -9967.5807   -9891.4146    4790.0948    11431.545    7.8075836 
    5910    702.39823   -9969.6735   -9891.3199    3766.7622    11433.741    7.8339545 
    5920    709.77401   -9970.3808   -9891.2044    1709.6978    11437.579     7.842102 
    5930    691.45575   -9968.2145   -9891.0816    619.95613    11442.178    7.8384671 
    5940     707.0556    -9969.802   -9890.9289   -1955.0553    11446.901    7.8309349 
    5950    717.91319   -9970.8347   -9890.7504   -3448.7727    11450.695    7.8257663 
    5960    686.33508   -9967.1333   -9890.5716   -2309.2563    11452.969    7.8238587 
    5970    693.13531   -9967.6802   -9890.3599   -3202.2329    11454.056       7.8239 
    5980    728.28851   -9971.3516   -9890.1099   -5366.0712    11453.615    7.8307308 
    5990    705.35727   -9968.5512   -9889.8675    -5816.003    11450.798    7.8529215 
    6000    706.58315    -9968.456   -9889.6356   -5442.7478    11445.418    7.8926816 
    6010    739.43902   -9971.8886   -9889.4031   -4621.5501    11437.665     7.945457 
    6020    719.33068   -9969.4405   -9889.1981   -1336.6654    11428.053    8.0040654 
    6030    707.27124   -9967.8984   -9889.0012    1625.5616    11418.009    8.0621775 
    6040    732.51462   -9970.5076   -9888.7945    2804.4729    11408.815    8.1188289 
    6050    743.09029   -9971.5105   -9888.6176    4852.7874    11401.121     8.176637 
    6060    716.01059   -9968.3674   -9888.4953    7101.6516    11395.779    8.2348279 
    6070    704.84677   -9967.0256   -9888.3988    7391.9315    11393.675    8.2887733 
    6080     740.3206   -9970.8955   -9888.3116     4251.453    11394.807    8.3372341 
    6090    754.71955   -9972.4656   -9888.2755    1168.8781    11397.876     8.385778 
    6100    729.28041   -9969.6682   -9888.3158   -825.99591    11401.488    8.4397071 
    6110    707.78624   -9967.3383   -9888.3837   -2671.8318    11404.682    8.4976956 
    6120    722.26365   -9969.0167   -9888.4471   -3766.5685    11406.635    8.5546812 
    6130     744.2835   -9971.5697   -9888.5437   -4139.5297    11406.861    8.6062525 
    6140    727.67306   -9969.8677   -9888.6947   -5004.4964    11405.199    8.6499427 
    6150    730.04427   -9970.3513   -9888.9138   -6132.1789    11401.256     8.687531 
    6160    711.37083   -9968.5301   -9889.1757   -4400.4657    11394.687     8.725141 
    6170    704.05626   -9967.9746    -9889.436   -1267.9453    11386.275    8.7656509 
    6180     721.8801   -9970.2076   -9889.6808    1611.3328    11377.412    8.8060685 
    6190    719.75353   -9970.2218   -9889.9322    4207.3075    11369.419    8.8398883 
    6200    713.25463   -9969.7603   -9890.1956    5387.0049    11363.405    8.8602715 
    6210     741.0675   -9973.1652    -9890.498    4742.3916    11359.837    8.8651338 
    6220    726.17497   -9971.8655   -9890.8596    4656.6375    11358.483    8.8594524 
    6230    683.49596   -9967.4644   -9891.2194    5357.7905    11359.288    8.8502714 
    6240    708.92504   -9970.6335   -9891.5519    3823.9576    11362.412    8.8435289 
    6250    727.05271   -9972.9962   -9891.8924    1921.5415    11367.239    8.8450765 
    6260    719.33287   -9972.4952   -9892.2526    454.85351    11372.896    8.8546767 
    6270    720.09112   -9972.9481   -9892.6208   -1499.4555    11378.672    8.8647777 
    6280    719.97207   -9973.2948   -9892.9808   -4162.6779    11383.668    8.8687227 
    6290    733.11301   -9975.1553   -9893.3754    -6216.129     11386.72    8.8676433 
    6300    693.79084   -9971.1731   -9893.7797   -5438.3596     11387.04    8.8667396 
    6310    699.41198   -9972.1788   -9894.1584   -4365.5467    11384.882    8.8659677 
    6320    713.74063    -9974.134   -9894.5151   -1885.9508    11380.819    8.8632224 
    6330     706.3241   -9973.6375    -9894.846    1740.2283    11375.995    8.8573411 
    6340    723.95986   -9975.9311   -9895.1723    3513.9538    11371.932    8.8465256 
    6350    706.53932   -9974.3172   -9895.5016      5415.96    11369.529     8.830842 
    6360     695.8699   -9973.4449   -9895.8196    5486.7942    11369.539    8.8115801 
    6370    718.93735   -9976.3259   -9896.1273     2334.833     11371.91    8.7904832 
    6380    714.11327   -9976.1013   -9896.4409     568.6387    11375.387    8.7705755 
    6390    694.01953   -9974.1667   -9896.7478    766.99059    11379.167    8.7527666 
    6400    699.29737    -9975.032   -9897.0243   -681.62886    11383.173    8.7358661 
    6410    702.00695   -9975.5735   -9897.2635    -2071.205    11386.841    8.7205438 
    6420    705.52696   -9976.1801   -9897.4775   -2071.4312    11389.574    8.7083489 
    6430    695.45938   -9975.2277   -9897.6482   -1056.3632    11391.365    8.7005588 
    6440    688.73828   -9974.5925   -9897.7627    103.78596    11392.677    8.6982333 
    6450    705.38706    -9976.524    -9897.837    -228.2356    11393.966    8.7015412 
    6460     702.1131   -9976.2186   -9897.8969   -920.59997    11395.139    8.7109495 
    6470    690.40648   -9974.9716   -9897.9557   -2425.5373    11395.847    8.7248224 
    6480     691.9498   -9975.1784   -9897.9903   -3398.1373    11395.496    8.7396386 
    6490    711.48513   -9977.3637   -9897.9965    -3895.881    11393.625    8.7525642 
    6500    731.72592   -9979.6323   -9898.0071   -2914.8723    11390.044    8.7640023 
    6510     708.9261   -9977.1108   -9898.0291   -261.00978    11385.238    8.7737462 
    6520    695.87152    -9975.661   -9898.0355    1871.5625    11380.341    8.7779494 
    6530    724.07351   -9978.7897   -9898.0182    2163.0833    11376.252    8.7729559 
    6540     719.7105   -9978.2979   -9898.0131    2940.2631    11373.197    8.7578818 
    6550    690.00011   -9974.9785   -9898.0079    3959.7096    11371.526    8.7340629 
    6560    709.01744   -9977.0641   -9897.9721    1938.7823     11371.53    8.7036938 
    6570    702.56709   -9976.2635   -9897.8911    1415.6611     11372.49    8.6712767 
    6580    698.62672   -9975.7051   -9897.7722    2505.3803    11374.148    8.6407228 
    6590    721.50923   -9978.1104   -9897.6249     3061.901    11376.899    8.6136098 
    6600    694.99626   -9974.9872   -9897.4593     2977.599     11381.01    8.5898507 
    6610    686.21502   -9973.8064   -9897.2581    558.70844    11386.352    8.5694404 
    6620    693.28295   -9974.2988    -9896.962    -2070.096    11391.922    8.5549845 
    6630    721.67133   -9977.0938   -9896.5903   -3772.2228    11396.538    8.5495207 
    6640    714.63814   -9975.9005   -9896.1815   -4158.5988    11399.456    8.5552484 
    6650    701.02438   -9973.9559   -9895.7556   -4592.6403    11400.472    8.5716964 
    6660    724.92121   -9976.1522   -9895.2862   -6510.2142    11399.295    8.5981748 
    6670    719.98566      -9975.1   -9894.7845   -5996.5441    11395.268    8.6355187 
    6680    743.94717   -9977.2789   -9894.2905    -4409.677    11388.556    8.6821337 
    6690    758.72502   -9978.4506   -9893.8137   -799.93803    11379.956    8.7357524 
    6700    724.93718   -9974.2439   -9893.3761    4709.8256    11371.154    8.7915646 
    6710    722.81668   -9973.6048   -9892.9736    7068.4567    11364.445    8.8426699 
    6720    727.96608   -9973.8086   -9892.6029     6069.864     11360.87    8.8854342 
    6730    725.52012   -9973.2107   -9892.2778    4176.4341    11360.065    8.9170173 
    6740     730.7825   -9973.5211   -9892.0012     1200.666    11361.097     8.935861 
    6750    718.55717   -9971.9159   -9891.7598    149.79615    11362.741    8.9436804 
    6760    727.43973   -9972.6942   -9891.5472   -80.916747     11364.47    8.9426749 
    6770    752.23975   -9975.2955    -9891.382   -954.47757    11366.114    8.9357193 
    6780    749.42804   -9974.9001   -9891.3003   -1667.1996    11367.334    8.9250852 
    6790    754.24875   -9975.4546   -9891.3171   -2806.2313    11367.747    8.9100194 
    6800    744.01452   -9974.4107   -9891.4147   -2160.0856    11366.967    8.8914201 
    6810    726.97181   -9972.6734   -9891.5786   -383.56382    11365.255    8.8728329 
    6820    728.62193   -9973.0604   -9891.7815    1249.7863    11363.379    8.8583052 
    6830    746.44638   -9975.3085   -9892.0413     930.8512    11362.005    8.8512711 
    6840    756.94038   -9976.8482   -9892.4103   -634.44074    11361.054    8.8542914 
    6850    753.53973   -9976.9934   -9892.9349   -3566.8945    11359.758    8.8675179 
    6860    738.14967   -9975.9516   -9893.6099   -3996.2196    11356.954     8.889749 
    6870     711.5488   -9973.7334    -9894.359   -2524.0046    11352.413    8.9189361 
    6880    714.94999   -9974.8627   -9895.1089   -418.90082    11346.768    8.9524586 
    6890     729.4604   -9977.2181   -9895.8457    1939.4972    11340.972    8.9875401 
    6900    730.04036     -9977.99   -9896.5529    3649.0187    11336.064    9.0211417 
    6910    739.06322   -9979.6622   -9897.2186     3809.487    11332.761    9.0500125 
    6920    722.62091   -9978.4296   -9897.8202    4632.9547    11331.238    9.0717921 
    6930    693.14751   -9975.6138   -9898.2921    4314.5107    11331.771    9.0862822 
    6940     708.2533   -9977.6559   -9898.6492    2517.3621    11334.195     9.096578 
    6950    699.06628   -9976.8944   -9898.9125    1139.5338    11337.779    9.1060117 
    6960    709.08016   -9978.2164   -9899.1175    -594.6436    11341.841    9.1152221 
    6970    717.50797    -9979.315   -9899.2759   -2739.1614    11345.608    9.1263461 
    6980    706.12016   -9978.1718   -9899.4031   -4237.4182    11348.164    9.1410559 
    6990    702.87467   -9977.8999   -9899.4932   -5006.3839    11348.823    9.1574277 
    7000    727.49699   -9980.7287   -9899.5753   -6056.3459    11347.194     9.173466 
    7010    724.88389   -9980.5524   -9899.6905   -6755.6477    11342.826    9.1919863 
    7020    715.66986   -9979.6757   -9899.8416   -6229.8688    11335.469    9.2193712 
    7030    739.53436   -9982.5331   -9900.0369   -5148.9278    11325.337    9.2614201 
    7040    722.92414   -9980.9197   -9900.2765   -1009.3435     11313.06     9.320981 
    7050    692.03054   -9977.6821   -9900.4851    3509.4219     11300.39    9.3931315 
    7060    700.64361   -9978.7925   -9900.6347     6208.955    11289.268    9.4694975 
    7070     700.3681   -9978.8723   -9900.7452    8812.7671    11280.981    9.5459611 
    7080    724.32574    -9981.634   -9900.8344    10272.451    11276.643    9.6194547 
    7090    746.85983   -9984.2496   -9900.9362    8471.0104    11276.784    9.6850661 
    7100    724.90877   -9981.9473   -9901.0826    5275.4723    11280.668    9.7372221 
    7110    722.28468   -9981.8443   -9901.2724    686.06498    11286.826    9.7736686 
    7120    724.67535   -9982.3338   -9901.4952   -3422.2045     11293.27    9.8001405 
    7130    722.77685   -9982.3881   -9901.7613   -5893.6953    11298.199    9.8259484 
    7140    721.28021    -9982.545   -9902.0852   -6956.3854     11300.51    9.8575675 
    7150    720.47881   -9982.8337   -9902.4632   -8362.4156    11299.673    9.8958435 
    7160    728.49517   -9984.1784   -9902.9137   -9958.9706    11295.067     9.937898 
    7170     716.5215   -9983.3469   -9903.4178   -9189.9006    11286.108    9.9825798 
    7180     709.3233   -9983.0322   -9903.9062    -6365.212    11273.176    10.033309 
    7190    724.00365   -9985.1246   -9904.3609   -3022.3963    11257.511    10.095022 
    7200    742.90618   -9987.7094    -9904.837    761.81256    11240.646    10.169209 
    7210    725.47217   -9986.2727   -9905.3452    4764.8267    11224.276    10.253563 
    7220    714.17523    -9985.511   -9905.8437    7930.1181    11210.122    10.342911 
    7230    728.35325   -9987.5983   -9906.3494    9120.5659    11199.503    10.433844 
    7240    734.08359   -9988.7765   -9906.8884    10374.798    11193.015    10.527535 
    7250    724.08977   -9988.2296   -9907.4563    10613.117    11191.091    10.624255 
    7260     710.0141   -9987.1884   -9907.9852    8638.5009    11193.762    10.719616 
    7270    719.63955   -9988.7131   -9908.4362     4131.406     11200.12    10.807669 
    7280    702.10546   -9987.0926   -9908.7717    210.59961    11208.302    10.886408 
    7290    709.33026   -9988.1227   -9908.9958   -3484.4695      11216.5     10.95761 
    7300    750.77387   -9992.9427   -9909.1928   -6896.9989    11223.078    11.024999 
    7310    733.09636   -9991.2043   -9909.4263   -9033.5206    11226.577    11.090642 
    7320    723.02982   -9990.3608   -9909.7057   -9481.7394    11226.109    11.152773 
    7330    727.53607   -9991.1711   -9910.0133   -8984.0141    11221.497    11.208715 
    7340    729.37349   -9991.6839   -9910.3212   -7376.9152     11213.04    11.260488 
    7350    739.19535   -9993.0875   -9910.6292    -4382.764    11201.503    11.314719 
    7360    729.29986   -9992.2815    -9910.927    443.27144    11188.281    11.374074 
    7370    709.24916   -9990.3012   -9911.1833    4453.2254    11175.434    11.430754 
    7380    714.30465   -9991.0912   -9911.4094    5110.6128    11164.595    11.473866 
    7390    732.53806   -9993.3661   -9911.6504    5421.4026    11156.143    11.499414 
    7400    724.98712   -9992.7883   -9911.9149    7513.9466    11150.266    11.510282 
    7410    745.37567   -9995.3738    -9912.226    8869.5786    11147.701    11.509652 
    7420    734.41905   -9994.5258   -9912.6002    9910.6738     11149.03    11.498137 
    7430    692.16307   -9990.1967   -9912.9849    9917.4333    11154.631    11.473847 
    7440    702.01132   -9991.6201   -9913.3097    6320.6471    11164.351    11.437307 
    7450    730.89427   -9995.1017   -9913.5694    1223.5015    11176.667    11.394268 
    7460    720.46009   -9994.1713   -9913.8029   -2332.1701     11189.42     11.35066 
    7470    711.64014   -9993.3998   -9914.0153   -6752.0474    11200.953    11.308765 
    7480    716.43175    -9994.129   -9914.2099   -11830.295     11209.36    11.270475 
    7490    707.34044   -9993.3232   -9914.4183   -13726.981    11212.579    11.237231 
    7500     730.6659   -9996.1905   -9914.6836   -12246.656     11209.85    11.208158 
    7510    735.09544   -9997.0257   -9915.0247   -7681.2692    11201.904     11.18345 
    7520    719.24659    -9995.639   -9915.4059   -605.75016    11190.816    11.163772 
    7530    730.08395   -9997.2136   -9915.7717    5565.7888    11179.578    11.148476 
    7540    723.00073   -9996.7436   -9916.0918     10067.34     11170.88    11.135613 
    7550     706.9447   -9995.2307     -9916.37    12180.409    11166.634    11.119273 
    7560     705.8799   -9995.3657   -9916.6237    11668.062    11167.665    11.093738 
    7570    698.54207   -9994.7923   -9916.8689    10625.566    11173.777    11.057296 
    7580    714.24436    -9996.802    -9917.127    7765.5519    11184.375    11.011438 
    7590     720.6821    -9997.783   -9917.3898    2469.2919    11198.112    10.961134 
    7600    712.36155   -9997.0872   -9917.6222   -3422.8783    11212.722    10.913849 
    7610    712.76949   -9997.3198   -9917.8093   -9169.7209    11225.593    10.876644 
    7620     699.2167   -9995.9708   -9917.9722   -12010.304    11234.343    10.854193 
    7630    698.97136   -9996.1027   -9918.1314   -13055.761    11237.711    10.846037 
    7640    711.48211   -9997.6743   -9918.3074   -12504.501    11235.316    10.849888 
    7650    707.41087   -9997.4194   -9918.5066   -9822.9828    11227.523     10.86445 
    7660    711.84532    -9998.112   -9918.7046    -6223.932    11215.562    10.889123 
    7670    712.38228   -9998.3353    -9918.868   -3214.9186     11201.05    10.924466 
    7680    732.46572   -10000.705   -9918.9971   -526.86963    11185.365    10.970441 
    7690    733.05509   -10000.897   -9919.1232    4058.9118    11169.798    11.025572 
    7700    692.87697    -9996.517   -9919.2255    8842.0126    11156.304    11.086559 
    7710    724.93788   -10000.195   -9919.3272    9698.5368    11146.738    11.147408 
    7720    731.72551   -10001.105   -9919.4799    10593.233    11141.546    11.203011 
    7730    704.16314   -9998.2429   -9919.6925     12412.01    11141.115     11.24716 
    7740    729.69501   -10001.345   -9919.9469    9116.6517    11145.879    11.274363 
    7750    770.71595    -10006.23   -9920.2554    2604.6584    11154.415    11.286863 
    7760    772.92585   -10006.886   -9920.6646   -2645.5073    11164.016    11.295339 
    7770    761.10165   -10006.076   -9921.1744   -6895.2755    11172.322     11.31185 
    7780    765.35668   -10007.169   -9921.7927   -8799.0584    11177.567    11.343599 
    7790    751.99142   -10006.395   -9922.5088   -7981.2011    11179.007    11.389677 
    7800    752.77473   -10007.266   -9923.2929   -7211.2646    11176.937    11.444887 
    7810    750.20148   -10007.758   -9924.0714   -6049.1717    11171.782    11.505375 
    7820    733.34333   -10006.575   -9924.7694   -3466.3077    11164.139    11.568452 
    7830    713.31123   -10004.853   -9925.2822   -744.52816    11155.145    11.633225 
    7840    747.22297   -10009.007   -9925.6527   -102.08946    11145.882     11.69798 
    7850    757.50757   -10010.467   -9925.9655    2491.7299    11136.846    11.759525 
    7860     734.1148   -10008.145    -9926.253    5973.5552    11129.092    11.811117 
    7870    712.88671   -10006.027   -9926.5036    7932.1872        11124    11.847112 
    7880    711.21734   -10006.069   -9926.7313    8404.7597    11122.375    11.869105 
    7890    721.84125   -10007.457   -9926.9348    6889.9281     11124.32    11.883154 
    7900      763.271   -10012.312    -9927.168    4229.9801    11129.187      11.8929 
    7910    761.00184   -10012.387   -9927.4965    2692.0271    11135.852    11.897707 
    7920    715.89562   -10007.773   -9927.9138    2113.3739    11143.615    11.892803 
    7930    698.33548   -10006.233   -9928.3328   -1453.5512    11152.069    11.875597 
    7940    711.19213   -10008.051    -9928.716   -7087.5097    11159.675     11.85192 
    7950    722.59857   -10009.679   -9929.0725   -11489.234    11164.108    11.830437 
    7960    729.54426   -10010.846   -9929.4641   -12194.271     11163.58    11.815623 
    7970     717.0994   -10009.867   -9929.8736    -8516.729    11157.933    11.806076 
    7980    740.72855   -10012.938   -9930.3091   -3971.0119    11148.694    11.797539 
    7990    707.89651   -10009.695   -9930.7282    2635.9341    11137.972    11.788799 
    8000    688.54555   -10007.883   -9931.0746    7892.6136    11128.538    11.778644 
    8010    742.67913   -10014.266   -9931.4193    8018.2269    11122.498    11.767354 
    8020    749.53595   -10015.472   -9931.8606    7370.5128    11119.996    11.757488 
    8030    704.47863   -10010.952   -9932.3659    7279.8062    11120.737    11.747825 
    8040    694.36304   -10010.304    -9932.847    5418.0586    11124.546     11.73454 
    8050    689.23019   -10010.143   -9933.2579    3571.5102    11130.652    11.716491 
    8060    697.61987   -10011.416   -9933.5957    1302.9988    11138.206    11.694745 
    8070    712.99576   -10013.429   -9933.8932   -1059.6367    11146.228    11.670667 
    8080    696.02956   -10011.804   -9934.1605   -3027.4387    11153.686    11.644248 
    8090    686.40434    -10010.96   -9934.3909   -4352.0637    11159.745    11.614957 
    8100    679.49222   -10010.349    -9934.551   -4449.8741    11163.869     11.58413 
    8110    714.03134   -10014.317   -9934.6655   -4938.9446     11165.96    11.555396 
    8120    693.47913    -10012.11    -9934.751   -3703.4654    11165.959    11.534373 
    8130    678.37882   -10010.472   -9934.7981   -3929.5443    11164.269    11.521863 
    8140    706.21437   -10013.582   -9934.8025   -4441.1082    11160.879    11.518093 
    8150    684.54463   -10011.131   -9934.7689   -1514.6856    11155.745    11.526093 
    8160    692.89325   -10011.982   -9934.6883    1465.2384    11150.039     11.54503 
    8170    724.79722   -10015.417   -9934.5644    2222.7176    11144.982    11.572699 
    8180    735.92617   -10016.552   -9934.4584    1448.4828    11140.894    11.608051 
    8190    718.36835   -10014.526   -9934.3905    1904.6792    11137.561    11.649099 
    8200    710.79242   -10013.623   -9934.3332    1856.9761    11135.082    11.696132 
    8210    733.61906   -10016.129   -9934.2928    1032.0896    11133.416     11.75357 
    8220    724.95115   -10015.154   -9934.2848    708.70536    11132.258    11.823645 
    8230    730.02951   -10015.752   -9934.3166   -73.819637    11131.411    11.901616 
    8240    756.50359   -10018.796   -9934.4067   -984.84224    11130.519    11.980716 
    8250    742.31184    -10017.39   -9934.5837   -255.63158    11129.259    12.055951 
    8260    716.40937   -10014.739    -9934.822    1458.3624    11127.948     12.12427 
    8270     729.9821   -10016.534   -9935.1029    1219.1813    11127.196    12.186366 
    8280    727.15575   -10016.559   -9935.4433    1621.3396    11127.037    12.245687 
    8290    716.71161    -10015.77   -9935.8194    2050.0279    11127.616    12.301115 
    8300    757.90351    -10020.83   -9936.2848    505.69079    11128.991    12.347965 
    8310    728.23002   -10018.095   -9936.8601   -130.40219    11130.619    12.384303 
    8320    712.92281   -10017.027   -9937.4991   -2521.5294     11132.08    12.408586 
    8330    722.47705   -10018.762    -9938.169   -4783.0624    11132.429    12.422048 
    8340    707.85804   -10017.799   -9938.8364   -4377.6251    11130.814     12.42687 
    8350    710.50297   -10018.721   -9939.4632   -2507.0097     11127.37    12.423907 
    8360    721.83477   -10020.563   -9940.0413   -185.18015    11122.881    12.414794 
    8370    725.86863   -10021.554    -9940.582    2151.2479    11118.353     12.40157 
    8380    701.89919   -10019.352   -9941.0538    3982.3151     11114.78    12.383588 
    8390    705.25132   -10020.106   -9941.4343    3318.0151    11112.883    12.356965 
    8400    727.89314   -10022.956   -9941.7583    384.28088    11112.356    12.322049 
    8410    740.75105   -10024.692   -9942.0601   -1595.2108    11112.034    12.287447 
    8420    734.05726   -10024.268   -9942.3825   -271.02878     11111.15    12.262095 
    8430    695.11628   -10020.216   -9942.6749    2540.1344    11110.194    12.246601 
    8440    721.14485   -10023.377   -9942.9324    4484.1236    11110.322    12.236587 
    8450    723.80069   -10023.926   -9943.1846    5409.4474    11112.368    12.229258 
    8460    685.36968   -10019.872   -9943.4178    4746.8989    11116.692    12.223532 
    8470    694.55165    -10021.07   -9943.5913    617.11765     11122.91    12.221144 
    8480    711.81836   -10023.108    -9943.704    -4595.672    11129.304     12.22616 
    8490    701.36853   -10022.024    -9943.785    -7190.556    11133.765    12.239157 
    8500    696.87932   -10021.585   -9943.8466   -6987.1741    11135.175     12.25603 
    8510    685.57041   -10020.348   -9943.8717    -3899.045    11133.638    12.272155 
    8520    700.89293   -10022.038    -9943.852     322.2913    11130.465    12.283515 
    8530    718.76525   -10023.991   -9943.8113    2890.9854    11127.391    12.288736 
    8540    692.40568   -10021.008   -9943.7691      4395.85     11125.58    12.288336 
    8550    672.57431   -10018.714   -9943.6873    3887.4547    11125.618    12.282547 
    8560    682.77415   -10019.687   -9943.5226    1873.8113    11127.283    12.273309 
    8570     695.6724    -10020.89    -9943.287   -235.09171    11129.748    12.262884 
[...]
   22890    671.44816   -10028.076   -9953.1751   -2692.5872    11113.788    12.002748 
   22900    672.02047   -10027.626   -9952.6609   -1159.3413    11116.272    12.017485 
   22910    701.01036   -10030.264   -9952.0657   -1857.6239    11118.149    12.048624 
   22920     701.7426   -10029.724   -9951.4431   -2309.1942    11119.237    12.094102 
   22930    715.59457    -10030.68   -9950.8547   -3058.6629    11119.305    12.151297 
   22940    702.03423   -10028.616   -9950.3025   -2377.0592    11118.131    12.217021 
   22950    689.50255   -10026.714   -9949.7991   -1155.8296    11115.942    12.286037 
   22960    689.36998   -10026.231   -9949.3305    1137.8475    11113.312    12.352624 
   22970    687.41114   -10025.573   -9948.8914    2766.0819    11111.164    12.411252 
   22980    727.58239   -10029.644    -9948.481    2881.7416    11110.188    12.458086 
   22990    728.33961   -10029.375    -9948.128    2214.0297    11110.471    12.492445 
   23000    705.53452   -10026.545   -9947.8412     372.5406    11111.669    12.515424 
   23010     708.7584   -10026.634   -9947.5714   -1036.3545    11113.044    12.530768 
   23020    699.20435   -10025.301   -9947.3033   -73.765674    11114.056    12.542381 
   23030    704.33733   -10025.609   -9947.0388    767.65315    11115.022    12.549513 
   23040    729.83279    -10028.21   -9946.7964   -114.81057    11116.252    12.549195 
   23050     711.7125   -10025.998   -9946.6055   -1292.7191    11117.428     12.54088 
   23060     733.1483   -10028.261   -9946.4768   -3120.4144    11117.997    12.526849 
   23070     715.7288   -10026.231   -9946.3899   -1957.1949    11117.314    12.510116 
   23080    689.92446   -10023.266   -9946.3041    305.92056    11115.835    12.487493 
   23090    734.64408   -10028.146    -9946.195   -696.30897    11114.378    12.455713 
   23100    718.39828   -10026.231    -9946.093   -1100.8171    11112.664    12.419687 
   23110    711.44296   -10025.379   -9946.0163   -915.53639    11110.508    12.384682 
   23120    738.87956   -10028.353   -9945.9298    58.168234    11107.996    12.352524 
   23130    715.95682   -10025.702   -9945.8357    3063.8185    11105.616    12.321738 
   23140    697.17377   -10023.517   -9945.7464     4722.229     11104.52    12.289947 
   23150    733.42054   -10027.491   -9945.6764    3047.7473    11105.339    12.257222 
   23160    752.64332   -10029.625   -9945.6667    384.92483    11107.441    12.225981 
   23170    726.86223   -10026.829   -9945.7466   -804.21341    11109.771    12.200121 
   23180    698.35747   -10023.784   -9945.8814   -992.67826     11111.78    12.181848 
   23190    680.65041   -10021.932   -9946.0042   -180.67561    11113.387    12.172018 
   23200    716.11014   -10025.971   -9946.0877    -460.2851    11114.846    12.172257 
   23210    750.60896   -10029.897   -9946.1655   -960.73779    11116.083    12.184057 
   23220    728.13898   -10027.519    -9946.294   -66.195563    11116.963    12.204023 
   23230    711.76072   -10025.859   -9946.4607   -1647.0043    11117.705    12.225354 
   23240     733.5038   -10028.485   -9946.6618   -3681.3486    11117.716    12.244327 
   23250    704.67035   -10025.523   -9946.9158    -2259.557    11116.265    12.259366 
   23260    667.41048   -10021.617    -9947.166    96.963682    11113.881    12.268558 
   23270     712.7575   -10026.911   -9947.4014    322.14778    11111.484    12.271891 
   23280    732.25589   -10029.373    -9947.689    495.61318    11109.256     12.27286 
   23290    702.25492   -10026.399   -9948.0615    1492.1345    11107.298    12.271561 
   23300    712.75019   -10028.004   -9948.4959    971.31437    11105.958    12.265302 
   23310    730.65062   -10030.517   -9949.0121    646.16612    11105.077    12.255343 
   23320     682.5141   -10025.697   -9949.5616     2740.843      11104.6    12.242192 
   23330    678.18838   -10025.728   -9950.0754    3810.9555    11105.298    12.223059 
   23340    711.45602   -10029.942   -9950.5777    1950.4476    11107.532    12.197405 
   23350    703.97412   -10029.627   -9951.0977   -222.88679    11110.582    12.167983 
   23360    692.23117   -10028.832   -9951.6127   -1278.9635    11113.547    12.138251 
   23370    685.82583   -10028.553   -9952.0479   -638.57434    11116.002    12.114567 
   23380    705.16773   -10031.067   -9952.4047   -675.58019    11118.125    12.103806 
   23390    695.16706   -10030.284    -9952.737   -714.47579    11119.953    12.109381 
   23400    668.26557   -10027.567   -9953.0213    -1718.472    11121.439    12.129853 
   23410    676.86539   -10028.736    -9953.231   -3745.7206     11122.15    12.162193 
   23420    683.05272   -10029.581   -9953.3853   -4314.4367    11121.299    12.205113 
   23430    686.16464   -10030.038   -9953.4955   -3618.2739    11118.648     12.25672 
   23440    705.13521   -10032.225    -9953.566   -3684.3282    11114.404    12.313303 
   23450    683.02687   -10029.779    -9953.586   -1668.0578    11108.704    12.371209 
   23460    679.33512   -10029.304   -9953.5234    214.26724    11102.323    12.425261 
   23470    707.13671    -10032.27   -9953.3877    1928.4338    11096.079    12.469326 
   23480    675.53016   -10028.556   -9953.1997    6483.7958    11090.848    12.500805 
   23490    670.98503   -10027.796   -9952.9469    9061.3555    11088.398    12.519931 
   23500     714.5629   -10032.331     -9952.62    7646.7018    11089.736    12.529096 
   23510    696.66946   -10029.956    -9952.242     6103.369    11094.369    12.530541 
   23520    673.87889   -10026.982   -9951.8097    3733.4561    11101.566    12.522165 
   23530    695.26982   -10028.808     -9951.25    209.02171    11110.273    12.502549 
   23540    712.59002   -10030.058   -9950.5672    -3300.377    11118.979    12.473786 
   23550    685.04317   -10026.249   -9949.8319   -4942.8115    11126.254    12.439273 
   23560    694.74318   -10026.577   -9949.0778   -6300.0907    11131.334    12.400573 
   23570    726.09408   -10029.311   -9948.3145   -7139.3131    11133.653    12.360809 
   23580    714.29836   -10027.332   -9947.6512   -6275.7321    11132.914    12.325204 
   23590    715.79987   -10026.981   -9947.1322   -4925.8228    11129.458    12.296289 
   23600    730.37515   -10028.202   -9946.7275   -2031.1702     11123.95    12.273936 
   23610    698.27029   -10024.304   -9946.4105    1362.3596    11117.635    12.256958 
   23620    690.58905   -10023.164   -9946.1275    2055.7485    11111.854    12.243311 
   23630    742.99435   -10028.751    -9945.869    1565.5773    11106.978    12.232158 
   23640    730.42353   -10027.157   -9945.6776    2753.0377    11102.889     12.22386 
   23650    720.96823   -10025.993   -9945.5681    3593.0073    11100.003    12.214505 
   23660    733.52671    -10027.35   -9945.5239    3011.2902    11098.632    12.201191 
   23670    709.94913   -10024.723   -9945.5267    3879.1887    11098.625    12.188009 
   23680    698.07863   -10023.413   -9945.5411     5782.685    11100.353    12.181023 
   23690    723.71047   -10026.283   -9945.5516    5241.4515    11104.501    12.181332 
   23700    722.42575   -10026.157   -9945.5695    2015.2981    11110.784    12.185017 
   23710    707.90866   -10024.543    -9945.575   -1587.7623    11117.862     12.18763 
   23720    729.70131   -10026.971   -9945.5718   -5249.5293    11124.176    12.188342 
   23730    717.65717   -10025.626   -9945.5705   -7265.1983    11128.234    12.191489 
   23740    734.08653   -10027.497   -9945.6088   -7885.8704    11129.134    12.202697 
   23750    734.23114   -10027.616   -9945.7115   -4918.2341    11126.736    12.225648 
   23760    708.90384   -10024.936   -9945.8563   -671.64495    11122.271     12.25757 
   23770    707.80651   -10024.958   -9946.0015    1351.7692    11117.471    12.291426 
   23780    705.47822   -10024.832   -9946.1353     2241.505    11113.272     12.32268 
   23790    704.46024   -10024.848   -9946.2648    3083.0576    11110.086    12.349272 
   23800    714.12424    -10026.05   -9946.3886    4493.6142    11108.299    12.368725 
   23810    732.77395   -10028.281    -9946.539    4280.8482    11108.422    12.379642 
   23820    723.31125   -10027.423   -9946.7366    1659.5586     11110.33    12.382769 
   23830    717.48222   -10027.008   -9946.9713   -2287.1139    11112.877    12.379097 
   23840    715.88918   -10027.074   -9947.2158   -3257.1906    11114.535    12.370072 
   23850    705.10315   -10026.107   -9947.4513   -1871.9351    11114.856    12.357406 
   23860    720.46734   -10028.051   -9947.6817   -1009.2062    11114.342    12.344944 
   23870     722.0191   -10028.504   -9947.9616   -934.74758    11113.353    12.340086 
   23880     679.7771   -10024.102    -9948.272    688.12005    11112.084    12.346454 
   23890    706.79285   -10027.409   -9948.5649   -493.63972    11111.022    12.357706 
   23900    729.56277   -10030.257   -9948.8736   -1266.2371    11109.787    12.368911 
   23910     705.3947   -10027.908   -9949.2205    747.99193    11108.148     12.38071 
   23920    694.94184   -10027.108   -9949.5864    1920.6316    11106.798     12.39221 
   23930    679.76361   -10025.752   -9949.9235    2012.9608    11106.248    12.403831 
   23940    703.02265   -10028.638   -9950.2152    1287.1903    11106.527    12.416447 
   23950    715.28506   -10030.281   -9950.4895    1183.7695     11107.39    12.425758 
   23960    694.90084   -10028.284   -9950.7665     2123.599    11108.832     12.42531 
   23970    709.50834   -10030.202   -9951.0556    678.55704    11111.079    12.413516 
   23980    690.31392   -10028.353   -9951.3472   -1597.9726    11113.576    12.397819 
   23990    677.34454   -10027.164   -9951.6052   -2968.4354    11115.402     12.38635 
   24000    712.93697   -10031.376   -9951.8473   -4140.6628    11115.925    12.378129 
   24010    699.20295   -10030.101   -9952.1036   -2748.9335    11114.766    12.366433 
   24020    681.57482   -10028.393   -9952.3626   -479.30377    11112.451    12.346275 
   24030    688.82308   -10029.413   -9952.5737    -552.8795    11109.834    12.321003 
   24040    697.29837    -10030.53   -9952.7448   -329.92486    11107.029    12.300474 
   24050    673.15344   -10027.976   -9952.8848     1674.265     11104.19    12.288205 
   24060    678.08554   -10028.619   -9952.9774     3347.952    11102.084    12.278369 
   24070    699.23781   -10031.032    -9953.031    3664.0636     11101.38    12.264772 
   24080    680.44715   -10028.943    -9953.038    3456.6792    11102.256    12.247236 
   24090    694.41733   -10030.457   -9952.9936    1719.2665    11104.555    12.229985 
   24100    688.26513    -10029.66   -9952.8825    141.59727    11107.575    12.216213 
   24110    662.66853   -10026.611   -9952.6893    350.35677    11110.735    12.203604 
   24120    692.61369   -10029.637   -9952.3753   -1134.5722    11113.937    12.189334 
   24130    707.89251   -10030.895   -9951.9282    -1368.017    11116.674    12.175548 
   24140    698.01521   -10029.261   -9951.3968   -850.62818    11118.832    12.165678 
   24150     697.5173   -10028.594   -9950.7848    -2142.288     11120.53     12.16054 
   24160    693.74125   -10027.496   -9950.1079   -3941.7919    11121.279    12.159952 
   24170    695.46883   -10026.976   -9949.3952   -4682.4337    11120.341    12.163899 
   24180    695.04489   -10026.206   -9948.6731   -3207.5205    11117.447    12.172157 
   24190    706.82671    -10026.81    -9947.962   -235.13389    11113.243    12.185608 
   24200    738.59504   -10029.693   -9947.3013    2942.3039    11108.971    12.208282 
   24210    734.91122   -10028.727   -9946.7468    4694.2278    11105.939    12.240892 
   24220    715.81276   -10026.166   -9946.3164    4547.9092    11104.888    12.277314 
   24230    724.78668   -10026.809   -9945.9582    3275.3687    11105.774    12.310098 
   24240    723.13094   -10026.323   -9945.6562    3087.6787    11108.123    12.334478 
   24250      708.459   -10024.444    -9945.414    3455.5952    11111.844    12.349063 
   24260    716.49943   -10025.124   -9945.1972    770.55224     11116.94     12.35662 
   24270    736.02909   -10027.098   -9944.9932   -3312.2972    11122.305    12.361108 
   24280    726.21869   -10025.842   -9944.8315   -4645.0874    11126.337    12.364367 
   24290    730.41806     -10026.2   -9944.7211   -4881.1996    11128.391    12.367056 
   24300    736.67191   -10026.844   -9944.6668   -4132.0465     11128.35    12.370824 
   24310    687.08302   -10021.284   -9944.6392    -1273.415    11126.608    12.373891 
   24320    697.84361   -10022.438   -9944.5927   -245.73858    11124.254    12.369902 
   24330    729.84089   -10025.933   -9944.5177   -1380.0599    11121.719    12.355063 
   24340    740.00721    -10027.02   -9944.4715   -1901.3756    11118.632      12.3329 
   24350    736.47718   -10026.638   -9944.4824   -1705.6883    11114.749    12.311555 
   24360    714.12194   -10024.195   -9944.5332    414.52946    11110.239    12.297701 
   24370    704.36349   -10023.158    -9944.585    2301.3183    11105.917     12.29383 
   24380    725.52524   -10025.568   -9944.6345    2231.6514    11102.529    12.298706 
   24390    742.71218   -10027.567   -9944.7159    2777.8778    11100.162    12.308749 
   24400    733.47239   -10026.685   -9944.8648    4158.1754    11099.036    12.318652 
   24410    713.25375   -10024.639   -9945.0748    5029.7493    11099.692    12.323721 
   24420    728.04921   -10026.546   -9945.3313    2754.5458    11102.397    12.322182 
   24430    738.02524   -10027.973   -9945.6454   -1026.6617    11106.231    12.317961 
   24440    706.18507   -10024.786   -9946.0095   -2110.0456    11109.743    12.313935 
   24450    706.89233   -10025.237   -9946.3824   -3046.4054    11112.322    12.308018 
   24460    733.94288   -10028.678   -9946.8057   -2312.3814    11113.638    12.300674 
   24470    695.71093   -10024.873    -9947.265    472.31743    11114.045    12.294951 
   24480    713.63831   -10027.351   -9947.7435     1113.218     11114.57    12.291427 
   24490    713.81361   -10027.871   -9948.2438   -340.79625    11115.499    12.291338 
   24500    701.70723    -10027.02   -9948.7433   -1893.2867    11116.269    12.295834 
   24510    720.76437    -10029.66   -9949.2575   -1694.4238    11116.273    12.302298 
   24520    683.89051   -10026.043   -9949.7538     565.2224    11115.638    12.305764 
   24530    681.26464   -10026.171   -9950.1749    987.23483    11115.178    12.301626 
   24540    719.90735   -10030.863   -9950.5562    197.99834     11115.11    12.290927 
   24550    688.40307   -10027.698   -9950.9053   -268.84243    11115.132    12.276965 
   24560    698.16092    -10029.09   -9951.2092   -2588.7959    11114.952    12.260881 
   24570    710.48625   -10030.735   -9951.4787   -3860.3716     11113.71    12.245358 
   24580    682.62889   -10027.847   -9951.6992   -1718.6443    11110.949    12.233158 
   24590    688.68074   -10028.681   -9951.8571    986.43521     11107.44    12.224997 
   24600    689.57751    -10028.87   -9951.9466    3441.6961    11104.339    12.221481 
   24610    713.81774   -10031.634    -9952.007     3930.846    11102.662    12.222345 
   24620    699.20374   -10030.048   -9952.0504     4695.748    11102.726    12.227946 
   24630    675.51509   -10027.408   -9952.0533    4215.4257    11104.796    12.237092 
   24640    705.26985   -10030.677   -9952.0028    942.92121      11108.6    12.247901 
   24650    694.84529   -10029.416   -9951.9046   -1823.1366    11112.872    12.261652 
   24660    677.00712   -10027.292   -9951.7707   -3377.6916    11116.436    12.279164 
   24670    689.28145   -10028.476   -9951.5859   -4810.9312    11118.555    12.298347 
   24680     706.5085   -10030.178   -9951.3656   -5434.4872    11118.636    12.316754 
   24690    696.22654   -10028.803   -9951.1383   -4377.9436    11116.408    12.332046 
   24700    687.93107   -10027.632    -9950.892   -1363.2364    11112.313    12.343982 
   24710    702.79413   -10028.996   -9950.5984    1545.2589    11107.576    12.353711 
   24720    705.79925   -10029.007   -9950.2745    2862.5462    11103.414    12.360555 
   24730    712.74922   -10029.466   -9949.9574    3606.0362    11100.463    12.364828 
   24740    704.73924   -10028.275   -9949.6598    4719.2891     11099.09    12.368518 
   24750    695.46428   -10026.967   -9949.3869    4827.9167    11099.721     12.37157 
   24760    691.25961   -10026.229   -9949.1177    3993.3643    11102.452    12.373362 
   24770    711.94162   -10028.272   -9948.8539    1397.9946    11106.873    12.373086 
   24780    721.04623   -10029.058   -9948.6239   -1674.8609    11111.909    12.370429 
   24790    693.39063   -10025.791   -9948.4419   -2424.2399    11116.359    12.366508 
   24800    697.76509   -10026.114   -9948.2775   -3749.9417    11119.755     12.36133 
   24810    726.61276   -10029.189   -9948.1345   -5167.9169    11121.547    12.355979 
   24820     701.9893   -10026.343   -9948.0348   -4279.9097    11121.181    12.351554 
   24830    700.03893   -10026.048   -9947.9579   -2151.6399    11118.971    12.344242 
   24840    727.42116   -10029.026   -9947.8806   -482.40182    11115.794    12.329562 
   24850    712.25812   -10027.275   -9947.8215    803.72882    11112.381    12.309446 
   24860    705.98217   -10026.518    -9947.765     949.1332    11109.233    12.290277 
   24870    733.76711   -10029.574   -9947.7213    1076.4214    11106.461    12.278189 
   24880    694.05742   -10025.115    -9947.692     3463.268    11104.243    12.275835 
   24890    697.70861    -10025.48   -9947.6497    3033.6157    11103.393    12.278084 
   24900    727.09361   -10028.701   -9947.5924    1479.6976     11103.82    12.279642 
   24910    693.74382   -10024.921   -9947.5329    2262.5871    11105.004    12.278841 
   24920    722.96256   -10028.129   -9947.4818    1644.5227    11107.124     12.27416 
   24930    713.64235   -10027.036   -9947.4281     78.61057    11109.965    12.267024 
   24940    690.80619   -10024.429   -9947.3689   -1120.0057    11112.901    12.260957 
   24950    716.81431   -10027.243   -9947.2812    -2854.382    11115.355     12.26105 
   24960    707.55398   -10026.107   -9947.1784   -3047.9866    11116.664     12.27296 
   24970    701.42985   -10025.313   -9947.0674   -1726.9868    11116.728    12.296494 
   24980    734.99023   -10028.933   -9946.9434   -162.26793    11116.042    12.326394 
   24990    719.87026   -10027.122   -9946.8194    2819.8978    11115.339    12.355152 
   25000    709.31785   -10025.849   -9946.7231    3283.5313    11115.753     12.37387 
Loop time of 15433.3 on 16 procs for 20000 steps with 864 atoms

Performance: 0.112 ns/day, 214.351 hours/ns, 1.296 timesteps/s
96.9% CPU use with 16 MPI tasks x 1 OpenMP threads

MPI task timing breakdown:
Section |  min time  |  avg time  |  max time  |%varavg| %total
---------------------------------------------------------------
Pair    | 11483      | 14160      | 15227      | 888.4 | 91.75
Bond    | 0.0014954  | 0.0044822  | 0.018724   |   6.2 |  0.00
Neigh   | 0.3599     | 0.38127    | 0.40835    |   2.3 |  0.00
Comm    | 199.57     | 1231       | 3944.9     |3029.2 |  7.98
Output  | 1.0996     | 1.1279     | 1.5361     |   9.9 |  0.01
Modify  | 1.5256     | 40.863     | 153.41     |1015.6 |  0.26
Other   |            | 0.08253    |            |       |  0.00

Nlocal:        54.0000 ave          56 max          52 min
Histogram: 1 0 4 0 0 8 0 0 0 3
Nghost:        707.625 ave         723 max         690 min
Histogram: 2 1 1 1 1 4 1 1 1 3
Neighs:         0.00000 ave           0 max           0 min
Histogram: 16 0 0 0 0 0 0 0 0 0
FullNghs:      3641.00 ave        3939 max        3453 min
Histogram: 2 0 4 6 1 0 0 0 2 1

Total # of neighbors = 58256
Ave neighs/atom = 67.425926
Ave special neighs/atom = 0.0000000
Neighbor list builds = 1990
Dangerous builds = 1893
Total wall time: 5:14:13
