LAMMPS (29 Sep 2021 - Update 3)
OMP_NUM_THREADS environment is not set. Defaulting to 1 thread. (src/comm.cpp:98)
  using 1 OpenMP thread(s) per MPI task
Reading data file ...
  orthogonal box = (0.0000000 0.0000000 0.0000000) to (18.492711 18.368364 83.044081)
  2 by 1 by 8 MPI processor grid
  reading atoms ...
  864 atoms
Finding 1-2 1-3 1-4 neighbors ...
  special bond factors lj:    0        0        0       
  special bond factors coul:  0        0        0       
     0 = max # of 1-2 neighbors
     0 = max # of 1-3 neighbors
     0 = max # of 1-4 neighbors
     1 = max # of special neighbors
  special bonds CPU = 0.002 seconds
  read_data CPU = 0.009 seconds
Neighbor list info ...
  update every 1 steps, delay 10 steps, check yes
  max neighbors/atom: 2000, page size: 100000
  master list distance cutoff = 6.22
  ghost atom cutoff = 6.22
  binsize = 3.11, bins = 6 6 27
  1 neighbor lists, perpetual/occasional/extra = 1 0 0
  (1) pair quip, perpetual
      attributes: full, newton on
      pair build: full/bin
      stencil: full/bin/3d
      bin: standard
Setting up Verlet run ...
  Unit style    : metal
  Current step  : 0
  Time step     : 0.001
Per MPI rank memory allocation (min/avg/max) = 8.888 | 8.895 | 8.900 Mbytes
Step Temp PotEng TotEng Press Volume c_msd[4] 
       0            0   -7973.6696   -7973.6696   -2874.2394    28208.484            0 
      10    41.278351   -7978.2784   -7973.6737   -2959.4518    28208.484 0.00023887099 
      20    117.01377   -7986.7312   -7973.6782   -2971.9336    28208.484 0.0029537371 
      30    174.81925   -7993.1785   -7973.6771   -2824.2466    28208.484  0.010160551 
      40    218.44962    -7998.045   -7973.6766   -2720.6333    28208.484  0.020641735 
      50    256.00476   -8002.2349   -7973.6771   -2700.3711    28208.484  0.032489043 
      60    281.23595   -8005.0509   -7973.6786   -2720.3164    28208.484  0.045481137 
      70    279.84796   -8004.8936   -7973.6762   -2497.2427    28208.484  0.060875411 
      80    275.57271   -8004.4166   -7973.6761   -2346.6282    28208.484  0.078472831 
      90    275.14134   -8004.3684    -7973.676   -2375.5075    28208.484  0.097756432 
     100    277.97329   -8004.6843   -7973.6759   -2450.2098    28208.484   0.11838341 
     110    284.32121   -8005.3929   -7973.6764   -2585.3887    28208.484    0.1397563 
     120    288.42818   -8005.8514   -7973.6768   -2555.7238    28208.484   0.16133553 
     130    287.27066   -8005.7216   -7973.6761   -2379.8786    28208.484   0.18293983 
     140    286.58177   -8005.6454   -7973.6767   -2199.4073    28208.484   0.20440576 
     150    283.09159    -8005.256   -7973.6767   -2058.8623    28208.484   0.22545748 
     160    281.87093     -8005.12   -7973.6769   -2002.9487    28208.484   0.24504756 
     170    281.00839    -8005.024   -7973.6771   -2057.3307    28208.484   0.26222423 
     180    282.68046     -8005.21   -7973.6765   -2118.7926    28208.484   0.27648184 
     190    291.53832   -8006.1995   -7973.6779   -2237.0667    28208.484   0.28923786 
     200    293.64302   -8006.4325   -7973.6762   -2373.3356    28208.484   0.30372277 
     210    298.64228   -8006.9936   -7973.6796   -2435.1957    28208.484   0.32052492 
     220    292.65421   -8006.3221   -7973.6761   -2273.8456    28208.484   0.33666335 
     230    296.18967   -8006.7198   -7973.6794   -2277.4624    28208.484   0.34931106 
     240    282.07352   -8005.1401   -7973.6743   -2198.7147    28208.484   0.36070053 
     250    293.47873    -8006.417    -7973.679   -2346.9356    28208.484   0.37209929 
     260    294.86866   -8006.5718   -7973.6788   -2406.0825    28208.484   0.38456478 
     270    292.66954   -8006.3399   -7973.6921   -2371.6679    28208.484   0.39632792 
     280    288.22645   -8005.8424   -7973.6903   -2343.9303    28208.484   0.40740341 
     290    280.03766   -8004.9272   -7973.6886   -2399.6918    28208.484   0.41930862 
     300    280.42672   -8004.9707   -7973.6886   -2493.7264    28208.484   0.43203295 
     310    287.66524   -8005.7795     -7973.69   -2540.7382    28208.484   0.44617059 
     320    287.59248   -8005.7709   -7973.6895   -2479.6365    28208.484   0.46153129 
     330    287.30367   -8005.7384   -7973.6892   -2430.7941    28208.484   0.47558463 
     340      291.107   -8006.1632   -7973.6897   -2433.3574    28208.484   0.48761679 
     350    290.07985   -8006.0486   -7973.6898   -2407.8749    28208.484   0.49931209 
     360    283.46216   -8005.3096    -7973.689    -2324.857    28208.484   0.51138392 
     370    283.31611   -8005.2933    -7973.689   -2223.9029    28208.484   0.52363749 
     380    293.81781   -8006.4657   -7973.6899   -2201.7975    28208.484   0.53571675 
     390    300.79692   -8007.2454   -7973.6911   -2203.1603    28208.484   0.54763687 
     400    296.63974     -8006.78   -7973.6894   -2207.2978    28208.484   0.55946952 
     410     295.9675   -8006.7055   -7973.6899    -2389.454    28208.484   0.57119336 
     420    296.34311   -8006.7466   -7973.6891   -2528.2941    28208.484   0.58115249 
     430    302.08464   -8007.3879   -7973.6899   -2546.6384    28208.484   0.58802692 
     440    300.89773   -8007.2566    -7973.691   -2408.1467    28208.484   0.59313659 
     450    295.75798   -8006.6815   -7973.6893   -2201.4544    28208.484   0.59704421 
     460    298.71554   -8007.0127   -7973.6905   -2097.6901    28208.484   0.60034051 
     470    293.57038   -8006.4367   -7973.6885   -1853.8963    28208.484   0.60455383 
     480    299.68957   -8007.1205   -7973.6897   -1687.1392    28208.484   0.60898733 
     490    304.28303    -8007.634   -7973.6908   -1569.5251    28208.484   0.61372446 
     500    297.76534   -8006.9049   -7973.6887   -1520.9163    28208.484   0.61909997 
     510     298.0343    -8006.936   -7973.6898   -1578.3555    28208.484     0.624484 
     520    298.51386   -8006.9892   -7973.6895   -1617.2528    28208.484   0.63055005 
     530    299.67651    -8007.119   -7973.6896   -1583.6011    28208.484   0.63765456 
     540    301.93935   -8007.3714   -7973.6896    -1486.536    28208.484   0.64551302 
     550    304.04909   -8007.6074   -7973.6903   -1392.2763    28208.484    0.6536082 
     560    304.32541   -8007.6381   -7973.6901   -1287.1967    28208.484   0.66116979 
     570    303.65289   -8007.5627   -7973.6898   -1155.3607    28208.484   0.66831766 
     580    306.61685   -8007.8931   -7973.6895   -1197.3354    28208.484   0.67540713 
     590    314.13334   -8008.7329   -7973.6909   -1349.2051    28208.484   0.68183493 
     600    314.58012   -8008.7816   -7973.6897   -1383.1623    28208.484   0.68848067 
     610    313.36382   -8008.6461   -7973.6899   -1339.6031    28208.484   0.69624527 
     620     312.9428   -8008.5985   -7973.6893   -1300.0364    28208.484   0.70606469 
     630    317.72028    -8009.132   -7973.6899   -1341.7477    28208.484   0.71807814 
     640    322.57063   -8009.6733   -7973.6901   -1410.5145    28208.484   0.73069429 
     650    323.60168   -8009.7886   -7973.6903   -1540.2113    28208.484   0.74223138 
     660    318.39172   -8009.2068   -7973.6897   -1568.6259    28208.484   0.75263353 
     670    316.27474   -8008.9702   -7973.6892   -1586.0839    28208.484    0.7619451 
     680    320.95534   -8009.4935   -7973.6904   -1558.4885    28208.484   0.77150239 
     690    319.85933   -8009.3708     -7973.69    -1459.468    28208.484   0.78296875 
     700    315.81982   -8008.9199   -7973.6897   -1330.2989    28208.484   0.79605918 
     710    316.18394   -8008.9601   -7973.6893   -1285.6029    28208.484   0.80930055 
     720    321.99795   -8009.6098   -7973.6904   -1374.2337    28208.484   0.82124899 
     730    320.60154   -8009.4538   -7973.6902   -1440.5044    28208.484   0.83277534 
     740    316.58517   -8009.0043   -7973.6888   -1452.0725    28208.484    0.8439361 
     750    321.27163   -8009.5293    -7973.691   -1655.1798    28208.484     0.854338 
     760    314.38368   -8008.7598   -7973.6899   -1838.5562    28208.484   0.86584884 
     770     305.9368   -8007.8166   -7973.6889   -1999.9526    28208.484   0.87941766 
     780    305.71483   -8007.7927   -7973.6897   -2140.7584    28208.484   0.89394007 
     790    305.84031   -8007.8065   -7973.6896   -2209.2571    28208.484   0.90782838 
     800    306.48205   -8007.8784   -7973.6899   -2275.1918    28208.484   0.92026204 
     810    304.33355   -8007.6388   -7973.6899   -2343.4421    28208.484   0.93178116 
     820    297.82924   -8006.9125   -7973.6892   -2314.2529    28208.484    0.9431626 
     830    296.11711   -8006.7216   -7973.6893   -2340.1192    28208.484   0.95457823 
     840    299.50491   -8007.0998   -7973.6896   -2406.4366    28208.484   0.96506277 
     850    304.52466   -8007.6597   -7973.6895   -2460.7845    28208.484   0.97329313 
     860     310.8399   -8008.3649   -7973.6902   -2449.0401    28208.484   0.97916609 
     870    310.67413   -8008.3459   -7973.6897   -2327.6881    28208.484   0.98350092 
     880    309.42712   -8008.2065   -7973.6894   -2225.4629    28208.484   0.98651824 
     890    311.26126   -8008.4116   -7973.6899    -2248.854    28208.484   0.98981853 
     900    313.26109   -8008.6341   -7973.6893   -2271.1415    28208.484     0.995508 
     910    320.18937   -8009.4082   -7973.6906   -2399.0494    28208.484    1.0049166 
     920    319.06768   -8009.2826   -7973.6901    -2517.896    28208.484    1.0179539 
     930    311.48412   -8008.4358   -7973.6893   -2630.8665    28208.484    1.0322955 
     940    307.33364   -8007.9728   -7973.6893   -2692.4224    28208.484    1.0452919 
     950    306.79072   -8007.9125   -7973.6895   -2690.0291    28208.484    1.0559933 
     960    307.40028   -8007.9805   -7973.6895    -2685.778    28208.484    1.0648912 
     970    308.12458   -8008.0613   -7973.6895   -2650.3957    28208.484    1.0729687 
     980    308.40186   -8008.0924   -7973.6897   -2580.8757    28208.484    1.0808973 
     990    307.35297   -8007.9752   -7973.6895    -2481.356    28208.484    1.0887898 
    1000    307.21435     -8007.96   -7973.6898   -2353.6684    28208.484    1.0961224 
    1010    306.76152   -8007.9091   -7973.6894   -2248.7956    28208.484    1.1027335 
    1020    309.26646    -8008.189   -7973.6898   -2286.0041    28208.484    1.1099454 
    1030    310.25342   -8008.2989   -7973.6897   -2305.1256    28208.484    1.1183111 
    1040    307.62812   -8008.0062   -7973.6898    -2294.831    28208.484    1.1271276 
    1050    300.85261   -8007.2498   -7973.6892   -2274.7356    28208.484    1.1353455 
    1060    298.03491   -8006.9356   -7973.6894   -2274.0022    28208.484    1.1412949 
    1070     298.1827   -8006.9525   -7973.6898   -2240.2755    28208.484    1.1449307 
    1080    298.32389   -8006.9674   -7973.6889   -2186.0158    28208.484    1.1478628 
    1090    304.12167   -8007.6156   -7973.6903   -2224.5843    28208.484    1.1507358 
    1100    303.21342   -8007.5135   -7973.6896   -2273.1413    28208.484    1.1542182 
    1110    302.55349   -8007.4391   -7973.6888   -2350.8777    28208.484    1.1583885 
    1120    311.89752   -8008.4827   -7973.6901   -2437.4889    28208.484     1.162828 
    1130    317.78566     -8009.14   -7973.6905   -2446.8483    28208.484     1.167408 
    1140    311.56568   -8008.4454   -7973.6898   -2410.0182    28208.484    1.1717043 
    1150    303.07264   -8007.4971   -7973.6889   -2380.3816    28208.484    1.1751291 
    1160    303.70308   -8007.5677   -7973.6892    -2470.872    28208.484    1.1775178 
    1170    310.51899   -8008.3284   -7973.6895   -2617.7569    28208.484    1.1788381 
    1180    316.91994   -8009.0426   -7973.6898   -2682.3818    28208.484    1.1790698 
    1190    320.34041   -8009.4241   -7973.6896   -2666.8258    28208.484    1.1789053 
    1200    321.06279   -8009.5055   -7973.6905   -2603.0061    28208.484    1.1796194 
    1210    314.26027   -8008.7456   -7973.6894   -2485.4053    28208.484    1.1821764 
    1220    309.32884    -8008.196   -7973.6899    -2464.998    28208.484    1.1865082 
    1230    306.19371   -8007.8458   -7973.6895   -2530.8384    28208.484    1.1911967 
    1240    306.63151   -8007.8948   -7973.6896   -2616.4378    28208.484    1.1944331 
    1250    309.06475   -8008.1663   -7973.6897   -2607.8093    28208.484    1.1957913 
    1260    312.48643   -8008.5482   -7973.6898    -2462.899    28208.484    1.1957707 
    1270    312.94072   -8008.5995   -7973.6905   -2234.5909    28208.484    1.1949586 
    1280    309.44145   -8008.2076   -7973.6889   -2027.1289    28208.484    1.1941489 
    1290    314.87458   -8008.8149   -7973.6902   -1974.2087    28208.484    1.1943163 
    1300    319.36818   -8009.3159   -7973.6899   -1982.4404    28208.484     1.195877 
    1310    321.84143   -8009.5922   -7973.6903   -1943.5386    28208.484    1.1987306 
    1320    321.73486     -8009.58     -7973.69    -1845.706    28208.484    1.2036004 
    1330    320.53672   -8009.4466   -7973.6902   -1700.8294    28208.484    1.2106875 
    1340    314.45984   -8008.7682   -7973.6898   -1509.1942    28208.484    1.2186301 
    1350    308.88407   -8008.1459   -7973.6894   -1443.5528    28208.484    1.2257175 
    1360    308.85021   -8008.1421   -7973.6894   -1546.3935    28208.484    1.2310073 
    1370    314.64585   -8008.7893   -7973.6901   -1721.3694    28208.484     1.234708 
    1380    316.29012   -8008.9734   -7973.6908   -1817.9195    28208.484    1.2377498 
    1390    307.32275   -8007.9718   -7973.6895   -1803.5548    28208.484    1.2409119 
    1400    301.76471   -8007.3515   -7973.6892   -1859.1426    28208.484    1.2443267 
    1410    303.86241   -8007.5861   -7973.6897   -1936.9087    28208.484    1.2481193 
    1420    306.88628   -8007.9231   -7973.6894   -1917.1497    28208.484    1.2526965 
    1430    311.21927   -8008.4068   -7973.6898   -1887.7633    28208.484    1.2583105 
    1440    313.42496   -8008.6528   -7973.6898   -1851.4527    28208.484    1.2642026 
    1450     313.3569   -8008.6451   -7973.6897   -1798.7574    28208.484     1.269636 
    1460    313.21275   -8008.6295   -7973.6901   -1825.1156    28208.484    1.2754342 
    1470    309.64761   -8008.2313   -7973.6896   -1804.0626    28208.484    1.2823313 
    1480    309.40126   -8008.2029   -7973.6887   -1783.0935    28208.484    1.2890305 
    1490    320.42565   -8009.4341   -7973.6901   -1893.3186    28208.484    1.2938055 
    1500    328.10175   -8010.2905   -7973.6903   -1974.4184    28208.484    1.2976917 
    1510    327.81197   -8010.2577   -7973.6898    -1937.058    28208.484    1.3022885 
    1520     324.2243   -8009.8576   -7973.6899   -1828.5619    28208.484    1.3070588 
    1530    318.99753   -8009.2739   -7973.6893   -1744.3097    28208.484    1.3111416 
    1540    315.99968   -8008.9401   -7973.6899   -1679.5222    28208.484    1.3147163 
    1550    311.82694   -8008.4737   -7973.6889   -1676.3191    28208.484     1.318865 
    1560    315.99733   -8008.9396   -7973.6896   -1782.1266    28208.484    1.3245612 
    1570    321.70035   -8009.5765   -7973.6904   -1943.6277    28208.484    1.3315419 
    1580    318.91113   -8009.2648   -7973.6898   -1980.5418    28208.484     1.338424 
    1590    316.40503   -8008.9842   -7973.6888   -1871.1257    28208.484    1.3448929 
    1600    323.69059   -8009.7984   -7973.6903   -1863.2593    28208.484    1.3517889 
    1610    324.55521    -8009.895   -7973.6903   -1926.3043    28208.484    1.3589892 
    1620    317.22283   -8009.0757    -7973.689    -2033.451    28208.484    1.3640281 
    1630    315.56944   -8008.8917   -7973.6895   -2189.5743    28208.484    1.3650114 
    1640          316   -8008.9396   -7973.6894   -2246.5115    28208.484     1.363698 
    1650     317.3618   -8009.0917   -7973.6895   -2167.3771    28208.484    1.3628757 
    1660    317.92845   -8009.1553   -7973.6899   -2101.0814    28208.484    1.3639966 
    1670    314.61233   -8008.7852   -7973.6897   -2010.9785    28208.484    1.3669961 
    1680    312.18324   -8008.5133   -7973.6888   -2055.2147    28208.484     1.371293 
    1690    317.45918   -8009.1028   -7973.6897    -2191.224    28208.484    1.3761955 
    1700    321.08797   -8009.5076   -7973.6898   -2266.1824    28208.484    1.3813209 
    1710    322.36089   -8009.6492   -7973.6893   -2262.0514    28208.484    1.3861808 
    1720    325.18317   -8009.9643   -7973.6896   -2258.3202    28208.484    1.3904451 
    1730    326.15411   -8010.0728   -7973.6898    -2317.316    28208.484     1.394947 
    1740     323.8725   -8009.8181   -7973.6896   -2287.8062    28208.484    1.4007384 
    1750    320.41839   -8009.4325   -7973.6894   -2200.4994    28208.484    1.4075406 
    1760     319.2517   -8009.3028   -7973.6898   -2148.7833    28208.484     1.414045 
    1770    317.70647   -8009.1306     -7973.69    -2060.265    28208.484    1.4199919 
    1780    313.91842   -8008.7076   -7973.6895   -1900.1987    28208.484    1.4259827 
    1790    313.00692   -8008.6058   -7973.6894   -1752.6987    28208.484    1.4322179 
    1800     316.3606   -8008.9805     -7973.69   -1656.4741    28208.484    1.4376798 
    1810    317.06323    -8009.059   -7973.6901   -1611.9912    28208.484    1.4414287 
    1820    314.75826    -8008.801   -7973.6892    -1594.078    28208.484    1.4434919 
    1830    319.39788   -8009.3191   -7973.6898   -1580.2478    28208.484    1.4448335 
    1840    326.94741   -8010.1618   -7973.6903   -1586.0007    28208.484    1.4478206 
    1850     328.2751   -8010.3099   -7973.6903   -1510.9657    28208.484    1.4534245 
    1860    325.54844   -8010.0044    -7973.689   -1434.8489    28208.484    1.4597334 
    1870    330.22766   -8010.5276   -7973.6902   -1485.8246    28208.484    1.4649668 
    1880    331.47708   -8010.6665   -7973.6897   -1548.2944    28208.484    1.4702024 
    1890    330.21474   -8010.5256   -7973.6896   -1516.0861    28208.484    1.4764703 
    1900    331.58833   -8010.6782    -7973.689   -1442.8287    28208.484    1.4834549 
    1910    337.92691   -8011.3872    -7973.691   -1475.0881    28208.484    1.4904186 
    1920     332.3277   -8010.7614   -7973.6897   -1417.3686    28208.484    1.4973123 
    1930    326.40875   -8010.1005   -7973.6891    -1294.946    28208.484    1.5028962 
    1940    327.61985   -8010.2367   -7973.6902   -1344.4187    28208.484    1.5071937 
    1950    326.33555   -8010.0933   -7973.6901   -1454.2005    28208.484    1.5117741 
    1960    320.98412   -8009.4961   -7973.6898    -1539.947    28208.484    1.5179832 
    1970    316.38994    -8008.983   -7973.6892   -1494.5471    28208.484    1.5266599 
    1980    318.66568   -8009.2379   -7973.6903    -1430.619    28208.484     1.537506 
    1990    319.09324   -8009.2848   -7973.6895   -1383.3475    28208.484     1.548395 
    2000    324.20331   -8009.8559   -7973.6905   -1553.3118    28208.484     1.556546 
Loop time of 1629.58 on 16 procs for 2000 steps with 864 atoms

Performance: 0.106 ns/day, 226.330 hours/ns, 1.227 timesteps/s
96.2% CPU use with 16 MPI tasks x 1 OpenMP threads

MPI task timing breakdown:
Section |  min time  |  avg time  |  max time  |%varavg| %total
---------------------------------------------------------------
Pair    | 921.29     | 1124.1     | 1349.7     | 371.3 | 68.98
Bond    | 0.00022864 | 0.00048859 | 0.0011353  |   0.0 |  0.00
Neigh   | 0.02134    | 0.025732   | 0.029942   |   1.7 |  0.00
Comm    | 265.95     | 479.49     | 697.19     | 556.1 | 29.42
Output  | 3.6028     | 25.315     | 56.92      | 355.4 |  1.55
Modify  | 0.011841   | 0.013864   | 0.019493   |   1.9 |  0.00
Other   |            | 0.6631     |            |       |  0.04

Nlocal:        54.0000 ave          63 max          48 min
Histogram: 5 0 1 2 2 1 1 2 0 2
Nghost:        409.688 ave         449 max         386 min
Histogram: 3 3 1 3 2 1 1 0 0 2
Neighs:         0.00000 ave           0 max           0 min
Histogram: 16 0 0 0 0 0 0 0 0 0
FullNghs:      1604.62 ave        2106 max        1301 min
Histogram: 5 0 2 2 2 0 2 1 1 1

Total # of neighbors = 25674
Ave neighs/atom = 29.715278
Ave special neighs/atom = 0.0000000
Neighbor list builds = 199
Dangerous builds = 198
Setting up Verlet run ...
  Unit style    : metal
  Current step  : 2000
  Time step     : 0.001
Per MPI rank memory allocation (min/avg/max) = 8.893 | 8.897 | 8.900 Mbytes
Step Temp PotEng TotEng Press Volume c_msd[4] 
    2000        787.5   -8009.8559   -7922.0091    403.61223    28208.484     1.556546 
    2010     739.6385   -8004.5017   -7921.9939    644.37814    28209.065    1.5594703 
    2020    663.99854   -7995.9547   -7921.8847    1016.1495    28211.311    1.5659898 
    2030    612.11439   -7989.8528   -7921.5705    1383.1241    28216.141    1.5733924 
    2040    578.72074   -7985.5423   -7920.9852    1698.3235     28224.49    1.5829101 
    2050    560.43048   -7982.6442   -7920.1273    1777.3501    28237.127    1.5967612 
    2060    556.27578   -7981.1411   -7919.0877    1650.3441    28254.281    1.6153746 
    2070     556.3936   -7980.1091   -7918.0426    1309.9982    28275.642    1.6369334 
    2080    565.13055   -7980.1372    -7917.096    690.92773    28300.342    1.6589255 
    2090    563.41825    -7979.061   -7916.2108    216.88956    28326.926    1.6809381 
    2100    552.78138   -7976.9792   -7915.3156   -22.286923    28354.191    1.7035135 
    2110    545.30244   -7975.1737   -7914.3444   -4.5403867    28381.539    1.7255105 
    2120    547.49954   -7974.3455   -7913.2711    131.14751    28408.979     1.745691 
    2130    549.29019   -7973.3835   -7912.1094    194.41389    28436.815    1.7640001 
    2140    557.32415   -7973.0611   -7910.8907    65.647242    28465.191    1.7791667 
    2150    580.70738   -7974.3902   -7909.6114   -262.63564    28493.757    1.7902985 
    2160    600.95595   -7975.3201   -7908.2826   -404.42411    28521.768    1.7994554 
    2170    613.38291   -7975.3616   -7906.9378   -549.21611    28548.792    1.8091619 
    2180    621.28391   -7974.8877   -7905.5825   -727.12584    28574.441    1.8210365 
    2190    622.58185     -7973.67   -7904.2201   -760.37076    28598.292    1.8355432 
    2200    625.68348   -7972.6425   -7902.8465   -777.01657    28620.212    1.8518205 
    2210    622.90304    -7970.944   -7901.4582   -792.91118    28640.137    1.8680211 
    2220    611.34292   -7968.2625   -7900.0662   -674.33271    28658.057    1.8808263 
    2230    614.16406   -7967.1711   -7898.6602   -694.90622    28674.195    1.8877573 
    2240    626.19076   -7967.0706    -7897.218   -740.04088     28688.52    1.8909245 
    2250    636.42259   -7966.7503   -7895.7564   -567.04846    28700.979    1.8947299 
    2260    647.24825    -7966.494   -7894.2924   -322.68802    28711.988    1.9020964 
    2270    655.80033   -7965.9847   -7892.8291   -202.56599     28722.14     1.913974 
    2280    659.63033   -7964.9539   -7891.3712   -175.66871     28731.76    1.9303532 
    2290    665.75951    -7964.184   -7889.9175   -82.088117    28740.961    1.9505837 
    2300    676.84446   -7963.9641   -7888.4611    84.867305    28749.985    1.9727093 
    2310    681.35311   -7963.0126   -7887.0066    292.00104    28759.264    1.9945416 
    2320     681.6246   -7961.6064   -7885.5701    471.18464    28769.339    2.0138414 
    2330    692.15756   -7961.3477   -7884.1365     466.2974    28780.659    2.0283722 
    2340    710.91601   -7961.9973   -7882.6935    233.27976    28793.196     2.037902 
    2350     730.6618   -7962.7631   -7881.2567   -62.130557    28806.381    2.0454255 
    2360    733.75438   -7961.7047   -7879.8533    -293.8653    28819.457    2.0552738 
    2370    732.26624   -7960.1901   -7878.5047   -368.06145     28831.84    2.0694369 
    2380    737.46217   -7959.4504   -7877.1853   -358.46522    28843.301    2.0870678 
    2390    727.05782   -7956.9983    -7875.894   -81.184547    28853.919    2.1073925 
    2400    720.30468    -7954.979    -7874.628    141.02462     28864.34    2.1304532 
    2410    733.11805   -7955.1316   -7873.3512    197.67617    28875.159    2.1556328 
    2420    750.06243   -7955.7285   -7872.0579    22.961642    28886.504    2.1813121 
    2430    766.06093   -7956.2363    -7870.781    -86.19271    28897.989    2.2047324 
    2440    766.10409   -7955.0085   -7869.5485    73.007316    28909.393    2.2253231 
    2450    764.24912   -7953.6265   -7868.3733    217.81733    28921.039     2.244716 
    2460    760.53068   -7952.0784   -7867.2401    377.19335    28933.349    2.2664418 
    2470    751.34938   -7949.9508   -7866.1367    369.15463    28946.705     2.293471 
    2480    755.02098    -7949.271   -7865.0473    217.47031    28961.099    2.3244896 
    2490    772.59956   -7950.1356   -7863.9509    80.502547    28976.169    2.3563699 
    2500    783.81918   -7950.3064   -7862.8702    230.24683    28991.643    2.3876051 
    2510    796.98206    -7950.741   -7861.8364    253.36458    29007.788    2.4178707 
    2520    806.09933   -7950.7823   -7860.8607    105.06992    29024.687    2.4477429 
    2530    818.20016   -7951.2316   -7859.9602   -151.51406    29041.958    2.4780464 
    2540    814.57091    -7950.015   -7859.1484   -229.21366     29058.99    2.5107662 
    2550    804.42078   -7948.1593   -7858.4249   -166.57688    29075.555    2.5449504 
    2560      794.423   -7946.3807   -7857.7616   -140.27067    29091.779    2.5757669 
    2570    788.59518    -7945.102    -7857.133   -199.96392    29107.714    2.5993912 
    2580    796.02866   -7945.3147   -7856.5165   -250.72802    29123.222    2.6182849 
    2590     804.9771   -7945.7117   -7855.9153    -147.2581    29138.212    2.6389187 
    2600    813.18736    -7946.066   -7855.3537   -212.97041    29152.847    2.6643593 
    2610    817.27415   -7946.0155   -7854.8473    -394.4164    29166.982     2.693063 
    2620    807.90342   -7944.5313   -7854.4085   -425.17753    29180.191    2.7222217 
    2630    806.45041   -7943.9925   -7854.0317   -455.16023    29192.324    2.7491733 
    2640     808.1994   -7943.8577   -7853.7019   -516.04715    29203.294    2.7737263 
    2650    801.44429   -7942.8204   -7853.4181   -410.66548    29213.013     2.796467 
    2660    801.82556   -7942.6199   -7853.1751   -550.93121    29221.627    2.8180428 
    2670    794.55726    -7941.595    -7852.961   -652.88382    29228.826     2.839616 
    2680    795.16918   -7941.4742   -7852.7719   -663.91451    29234.329    2.8618119 
    2690    812.90382   -7943.2893   -7852.6087   -721.72788    29238.067    2.8851936 
    2700    826.77315   -7944.7324   -7852.5046   -697.38515    29239.881    2.9081455 
    2710    831.20484    -7945.216   -7852.4938   -583.63295    29239.831    2.9284321 
    2720    822.53274   -7944.3393   -7852.5846   -536.14962    29238.191    2.9477143 
    2730    813.05372   -7943.4525   -7852.7551   -724.56392    29235.014    2.9692274 
    2740    806.77117    -7942.982   -7852.9855   -981.71162    29229.817    2.9934184 
    2750    778.80688   -7940.1231    -7853.246   -883.79718    29221.983    3.0183311 
    2760    760.18981   -7938.2808   -7853.4805   -697.89168    29211.692    3.0417167 
    2770    769.12333   -7939.4561   -7853.6593   -625.62725    29199.378    3.0647668 
    2780    776.19159   -7940.3703    -7853.785   -430.99059     29185.32     3.089168 
    2790     785.7848    -7941.539   -7853.8835   -593.72344    29169.887    3.1148087 
    2800    791.36374   -7942.2557   -7853.9779    -938.0999    29152.695    3.1421588 
    2810    798.61548   -7943.1784   -7854.0917   -1175.2433    29132.859     3.170312 
    2820    791.79814   -7942.5553    -7854.229   -1101.3354    29109.763    3.1986496 
    2830    782.47168   -7941.6618   -7854.3759   -903.15867    29083.547    3.2253781 
    2840    778.64925   -7941.3761   -7854.5166    -648.0487    29054.716    3.2487133 
    2850    771.52334   -7940.6947   -7854.6301   -401.51456    29023.961    3.2664287 
    2860    783.22697   -7942.0916   -7854.7215   -353.09924    28991.877    3.2778985 
    2870    782.77927   -7942.1193   -7854.7991   -181.17861    28958.687    3.2878633 
    2880    766.29467   -7940.3332   -7854.8519    10.776816    28924.834    3.3003623 
    2890    774.56495    -7941.267   -7854.8631   -68.981841    28890.755    3.3148671 
    2900    804.34877   -7944.5809   -7854.8546   -274.65138    28856.306    3.3307916 
    2910    825.83799   -7947.0088   -7854.8853   -284.41451    28821.015    3.3499674 
    2920    828.46565   -7947.4218   -7855.0052   -90.549035     28784.85    3.3740226 
    2930    816.46465   -7946.2843   -7855.2065    261.36761    28748.337    3.4002932 
    2940     823.3023   -7947.3227   -7855.4821    560.06393    28712.337    3.4252435 
    2950    813.41377   -7946.5648   -7855.8273    880.11048    28677.691    3.4517762 
    2960    797.03112    -7945.131    -7856.221    1025.1617    28645.179    3.4803215 
    2970    795.10868   -7945.3287   -7856.6332    1253.8486    28615.264    3.5079297 
    2980    796.96688   -7945.9602   -7857.0573     1417.583      28588.5    3.5346029 
    2990    797.43652   -7946.4567   -7857.5015    1420.0223    28565.321    3.5610868 
    3000    797.81516   -7946.9723   -7857.9748    1181.7292     28545.69     3.587336 
    3010    785.57365    -7946.093   -7858.4611    1189.9361    28529.132    3.6124569 
    3020    782.80351   -7946.2611   -7858.9382    1259.0676    28515.608    3.6350278 
    3030    790.52103   -7947.5926   -7859.4088    1314.9313    28505.301    3.6569094 
    3040    790.48625   -7948.0619    -7859.882     1330.126    28498.367    3.6787101 
    3050    780.80401   -7947.4534   -7860.3535    1282.4821    28494.846     3.699895 
    3060    772.90331   -7947.0221   -7860.8036    1257.3661    28494.657    3.7207049 
    3070    767.92476   -7946.8844   -7861.2212    1269.8666    28497.758    3.7425039 
    3080    756.14346   -7945.9363   -7861.5873    1253.5375    28504.197    3.7652085 
    3090    757.86716   -7946.4306   -7861.8894    937.70144    28513.873    3.7867039 
    3100     767.9464   -7947.7938   -7862.1282    608.16414    28526.082     3.805979 
    3110    783.18117   -7949.6956   -7862.3306    440.99645    28540.013    3.8233342 
    3120    787.94257   -7950.4224   -7862.5262    502.10645    28555.264    3.8401874 
    3130    773.45446   -7948.9998   -7862.7198    742.53152    28572.018    3.8597391 
    3140    758.12107   -7947.4532   -7862.8837    884.50391    28590.862     3.883239 
    3150    763.63071    -7948.176   -7862.9919    635.28394    28612.123    3.9086093 
    3160    776.37353   -7949.6555   -7863.0498    200.08788    28635.225    3.9358669 
    3170    769.94358   -7948.9597   -7863.0713    26.984843    28659.177    3.9645715 
    3180    760.47823   -7947.8926   -7863.0601    13.534278    28683.496    3.9917703 
    3190     752.5923   -7946.9506   -7862.9978    42.216784    28708.125      4.01511 
    3200    736.66135   -7945.0388   -7862.8631    210.00948    28733.182    4.0335295 
    3210    718.61136   -7942.7867   -7862.6246    414.14196    28759.077     4.049571 
    3220    729.47316   -7943.6258   -7862.2519    429.39971    28786.301    4.0662956 
    3230    754.66782   -7945.9298   -7861.7455    312.93294    28814.942    4.0862378 
    3240    760.55651   -7945.9927   -7861.1515    259.45677    28844.772    4.1106398 
    3250    766.26327   -7945.9918    -7860.514    139.16901    28875.619    4.1381419 
    3260    766.57687    -7945.352   -7859.8392   -66.491719     28907.17    4.1676252 
    3270     759.2522   -7943.8339   -7859.1382   -176.47339    28938.916    4.1967224 
    3280     763.8866   -7943.6209   -7858.4082   -262.75644    28970.538    4.2198646 
    3290    780.44095   -7944.7077   -7857.6483   -416.58498    29001.762    4.2358691 
    3300    788.64427   -7944.8654   -7856.8909   -509.42656    29032.195     4.249852 
    3310    777.71994   -7942.9231   -7856.1673   -500.41774    29061.593    4.2668336 
    3320    766.82835   -7941.0056   -7855.4648   -727.85893    29089.858    4.2874406 
    3330    775.49998   -7941.2622    -7854.754   -1117.6328    29116.388    4.3092709 
    3340    781.25834   -7941.1859   -7854.0354   -1257.3709    29140.207    4.3306935 
    3350    783.05021   -7940.6826   -7853.3321   -1252.0004    29160.869    4.3511276 
    3360    784.13461   -7940.1192   -7852.6478   -1299.3414    29178.294    4.3718162 
    3370    788.97761   -7939.9959   -7851.9843   -1377.9845    29192.318    4.3927089 
    3380    790.09337   -7939.4808   -7851.3447   -1276.9236    29202.762    4.4129462 
    3390    796.81103   -7939.6203   -7850.7348   -1024.1301    29209.855    4.4314344 
    3400    813.13955   -7940.8689   -7850.1619   -807.68153    29214.198    4.4464911 
    3410    822.90822    -7941.449   -7849.6524   -655.25879    29216.363    4.4592657 
    3420    827.22088   -7941.5102   -7849.2324   -652.96163    29216.726    4.4717944 
    3430    819.95743   -7940.3755    -7848.908   -534.77145    29215.343     4.484927 
    3440    812.34308   -7939.2819   -7848.6638   -343.96904    29212.491    4.4987638 
    3450    817.62577   -7939.6912   -7848.4838   -351.64989    29208.618    4.5127714 
    3460    820.19348   -7939.8704   -7848.3766    -323.4282    29203.747    4.5279991 
    3470     806.4376   -7938.2974   -7848.3381   -6.5222337    29198.018    4.5456494 
    3480    807.61691   -7938.4428   -7848.3519    121.06896    29192.146    4.5634869 
    3490    810.64105   -7938.8391   -7848.4108    106.81103    29186.517    4.5784245 
    3500     810.9234   -7938.9838   -7848.5241    76.608891    29181.117    4.5884811 
    3510    815.26032   -7939.6418   -7848.6983     164.3643     29175.91     4.593474 
    3520    805.39393   -7938.7785   -7848.9356    204.75435    29171.066    4.5953795 
    3530    781.05558    -7936.334   -7849.2061    307.38561    29166.745    4.5973984 
    3540    774.31212   -7935.8445   -7849.4688    120.94889    29163.118    4.6004693 
    3550    783.96564   -7937.1598   -7849.7073   -265.80808    29159.728     4.605438 
    3560     796.9827   -7938.8519   -7849.9473   -492.06151    29155.605    4.6144299 
    3570    797.22683   -7939.1378    -7850.206   -432.92643    29150.159    4.6287181 
    3580    800.41742   -7939.7811   -7850.4933   -362.52347    29143.449    4.6471309 
    3590     788.9493   -7938.8063   -7850.7979   -55.256748    29135.715    4.6674975 
    3600    792.05367   -7939.4689   -7851.1141    187.56943    29127.681    4.6868866 
    3610    788.75516   -7939.4239   -7851.4371    248.50594    29119.986    4.7050549 
    3620     777.6014   -7938.5051   -7851.7625    162.00908    29112.799    4.7231427 
    3630    766.05659   -7937.5174   -7852.0626    62.960702    29105.927      4.74164 
    3640     765.3111   -7937.6915   -7852.3199    184.59633    29099.158    4.7603699 
    3650    775.37881   -7939.0297   -7852.5351    562.04865    29092.827    4.7803956 
    3660    784.40783   -7940.2239    -7852.722    797.99695     29087.86    4.8022918 
    3670    790.17008   -7941.0476   -7852.9029    867.90793    29084.946     4.824827 
    3680    803.95829   -7942.7827   -7853.0999    620.91649    29084.266    4.8452641 
    3690    814.26659   -7944.1779   -7853.3452    167.59021    29085.219    4.8627812 
    3700    803.59247   -7943.2962   -7853.6542   -60.214189     29086.72    4.8781999 
    3710    788.30328   -7941.9382   -7854.0018   -157.44567    29088.137     4.892234 
    3720    770.63622   -7940.3134   -7854.3478    -226.3699    29089.166    4.9065603 
    3730    759.45832   -7939.3747    -7854.656   -230.12251    29089.611    4.9228094 
    3740    764.84113   -7940.2262    -7854.907    -212.0439    29089.462    4.9405621 
    3750    773.93171   -7941.4468   -7855.1135   -253.19899    29088.702    4.9591287 
    3760    772.89543   -7941.5099   -7855.2923   -228.32263    29087.258    4.9773408 
    3770    760.40685   -7940.2594   -7855.4348   -204.02188    29085.157     4.991722 
    3780    743.67035   -7938.4673   -7855.5098   -68.234506    29082.483    4.9993849 
    3790    733.26891   -7937.2826   -7855.4854     63.95443    29079.576    5.0010806 
    3800    733.46563    -7937.165   -7855.3458    -36.12019    29076.713    4.9996808 
    3810    734.87177   -7937.0568   -7855.0807    -13.15575     29073.73    4.9993256 
    3820    750.75256    -7938.443   -7854.6954    54.848055    29070.655    5.0037696 
    3830    778.87578      -7941.1   -7854.2152    55.666357    29067.643    5.0140319 
    3840    798.08659   -7942.7241   -7853.6963    106.52956    29064.739    5.0303506 
    3850    793.60557    -7941.721   -7853.1931    36.796829    29062.046     5.051032 
    3860    781.47769   -7939.8928   -7852.7178   -91.153964    29059.376    5.0711998 
    3870    777.36191   -7938.9605   -7852.2446    115.81128    29056.494     5.088824 
    3880    788.02123   -7939.6698   -7851.7648    491.28755    29053.916    5.1064132 
    3890    799.69819   -7940.5024   -7851.2948    693.13206    29052.578    5.1265179 
    3900    789.57082   -7938.9373   -7850.8595    965.24107    29053.139    5.1491799 
    3910    780.61803   -7937.5319   -7850.4528    1178.8802    29056.337    5.1715194 
    3920    786.68643   -7937.8093   -7850.0533    1206.7113    29062.791    5.1904046 
    3930    785.50249   -7937.2837   -7849.6597      1224.97    29072.706    5.2070597 
    3940    779.15434   -7936.1905   -7849.2747    1112.5046    29086.174    5.2247431 
    3950    783.38693   -7936.2755   -7848.8875    899.98755    29103.013     5.245229 
    3960    792.51446   -7936.9042   -7848.4981    553.91728    29122.705    5.2666703 
    3970    800.39786   -7937.4108   -7848.1252    261.48236    29144.411    5.2863119 
    3980    811.39331   -7938.3015   -7847.7893    189.00967    29167.447    5.3009707 
    3990    824.36395   -7939.4708   -7847.5118    53.638762    29191.574    5.3081239 
    4000    840.89506   -7941.1167   -7847.3136   -333.04476    29216.387    5.3109429 
    4010     842.9636   -7941.2631   -7847.2293   -656.36327    29240.909    5.3169601 
    4020    821.02089   -7938.8516   -7847.2655   -548.26029    29264.347     5.331998 
    4030    806.34201   -7937.3325   -7847.3839   -398.70957    29286.846    5.3540575 
    4040    802.96737   -7937.1282   -7847.5559    -426.9221    29308.742     5.378853 
    4050    791.62667   -7936.0702    -7847.763   -442.30524        29330    5.4059174 
    4060    791.75667   -7936.3142   -7847.9926    -544.7692    29350.509    5.4357336 
    4070    800.65101   -7937.5584   -7848.2446     -638.831    29369.991    5.4674398 
    4080     802.2622    -7938.025   -7848.5315   -642.67615     29388.19    5.4988554 
    4090    800.38237   -7938.1413   -7848.8575   -752.66505     29404.99     5.524731 
    4100    798.35273   -7938.2754    -7849.218   -927.49223    29420.052    5.5418305 
    4110    790.87487   -7937.8347   -7849.6115   -871.70551    29432.923    5.5525461 
    4120    779.82888   -7937.0184   -7850.0273   -413.64858    29443.763    5.5592396 
    4130    770.20768   -7936.3604   -7850.4426   -22.563762    29453.661    5.5652073 
    4140    775.92714   -7937.3973   -7850.8415     45.89258    29463.648    5.5744454 
    4150    779.63127   -7938.2053   -7851.2363   -53.414226    29473.933    5.5918728 
    4160    759.10778   -7936.2862   -7851.6065    19.791658    29484.357    5.6195838 
    4170    769.95379   -7937.8288   -7851.9393   -151.66223    29494.999    5.6548136 
    4180    788.04321   -7940.1589   -7852.2515   -430.43947    29505.425    5.6942151 
    4190    779.81378   -7939.5543   -7852.5649   -612.22016    29514.907     5.733306 
    4200    777.25839   -7939.5806   -7852.8763    -925.7369    29522.851    5.7656903 
    4210    775.86546   -7939.7235   -7853.1746   -1286.6781    29528.361    5.7876709 
    4220    778.00098   -7940.2574   -7853.4703   -1408.9072    29530.435      5.80248 
    4230    766.56905   -7939.2684   -7853.7564   -1273.8687    29528.677    5.8190936 
    4240      752.976   -7938.0141   -7854.0185   -1199.9355    29523.274    5.8431363 
    4250      747.316   -7937.5966   -7854.2324    -1035.272    29514.424    5.8726293 
    4260    748.13738    -7937.838   -7854.3822   -855.28465    29502.504    5.9001421 
    4270    755.24761    -7938.713    -7854.464    -774.1154    29487.933    5.9186789 
    4280    760.30241   -7939.2893   -7854.4765   -810.21181     29470.87    5.9268812 
    4290    762.27556   -7939.4509    -7854.418   -782.46401    29451.232    5.9246846 
    4300    760.03326   -7939.0651   -7854.2823   -612.82832     29429.08    5.9178682 
    4310     751.2074   -7937.8339   -7854.0356   -414.75258    29404.832    5.9132203 
    4320    754.61114   -7937.8114   -7853.6334   -276.68205    29379.003    5.9099675 
    4330    767.19311   -7938.6233   -7853.0417   -79.411651        29352    5.9070294 
    4340    778.30247   -7939.0855   -7852.2647   -102.50206    29324.268     5.906182 
    4350    783.13401    -7938.709   -7851.3493   -38.361326    29295.835    5.9053021 
    4360    792.25436   -7938.7373   -7850.3602    277.61698    29266.912    5.9010408 
    4370    804.07253   -7939.0693   -7849.3738    592.89352    29238.309    5.8950023 
    4380    824.71353    -7940.478     -7848.48    700.74666    29210.872    5.8916393 
    4390    828.91931   -7940.2157   -7847.7485    591.07557    29184.915    5.8941144 
    4400    818.53647   -7938.5062   -7847.1972    571.53586    29160.257    5.9027255 
    4410    815.63805    -7937.778   -7846.7924    472.11338    29136.791    5.9173481 
    4420     815.3757   -7937.4505   -7846.4941    452.09538    29114.324    5.9368123 
    4430    810.78955   -7936.7318    -7846.287    539.73562    29092.824    5.9548538 
    4440    803.05016   -7935.7291   -7846.1476    480.86532    29072.473    5.9651856 
    4450    797.48643   -7935.0165   -7846.0556    324.71483    29053.145    5.9698052 
    4460     785.5224   -7933.6133   -7845.9871    452.97217    29034.529    5.9735926 
    4470    782.58726   -7933.2081   -7845.9093    599.88731    29016.924    5.9778148 
    4480     810.9741   -7936.2946   -7845.8292    503.48991    29000.672    5.9832171 
    4490    817.59861   -7936.9956   -7845.7912    524.56835    28985.613     5.991792 
    4500     799.0373   -7934.9498   -7845.8159    938.53684    28971.919    6.0037586 
    4510    801.14968   -7935.2494   -7845.8799    1009.0151    28960.502    6.0181312 
    4520    815.47805   -7936.9617   -7845.9939       758.67    28951.588    6.0344585 
    4530    804.32665   -7935.8923   -7846.1685    704.73218    28944.682    6.0520381 
    4540    807.93461   -7936.5165   -7846.3901    717.01674    28939.618    6.0684316 
    4550     823.5843   -7938.5455   -7846.6734    614.00705    28936.406    6.0842048 
    4560    811.43044    -7937.554   -7847.0377    449.78451    28934.803    6.1018638 
    4570    794.85347   -7936.1296   -7847.4625    285.70597    28934.389    6.1192326 
    4580    798.47288   -7936.9981   -7847.9273    124.00101    28934.745    6.1322985 
    4590    805.87816   -7938.3386   -7848.4416   -138.75449    28935.413    6.1414067 
    4600    806.34295   -7938.9553   -7849.0065   -338.61921    28935.753     6.150142 
    4610    805.95195   -7939.5186   -7849.6135   -449.39816    28935.214    6.1588458 
    4620     804.0742   -7939.9406   -7850.2449   -305.85491    28933.544    6.1629872 
    4630     804.7024    -7940.651   -7850.8852   -62.020437    28931.072    6.1594057 
    4640    794.54631   -7940.1475   -7851.5147    160.12077    28928.412    6.1535928 
    4650    781.51847   -7939.2735   -7852.0939    340.63513    28926.153    6.1525651 
    4660    791.77028    -7940.934   -7852.6108    408.82047    28924.775    6.1588331 
    4670    796.72507   -7941.9553   -7853.0795    410.15335     28924.48    6.1716087 
    4680    800.55088   -7942.8137   -7853.5111    372.17838    28925.267     6.187793 
    4690    805.72215   -7943.7946   -7853.9151    515.77671    28927.107    6.2059293 
    4700    787.81432   -7942.1627   -7854.2808    772.30657    28930.381    6.2271786 
    4710    779.66167   -7941.5619   -7854.5894    681.85578    28935.677     6.248483 
    4720    786.35487   -7942.5649   -7854.8458    295.23524    28942.781    6.2631664 
    4730    794.51411   -7943.6962    -7855.067   -167.71204    28950.717    6.2662212 
    4740     796.4478   -7944.1161   -7855.2711    -551.7768    28958.295    6.2592565 
    4750    789.74577   -7943.5616   -7855.4642   -936.37073     28964.43     6.249645 
    4760    774.22786   -7941.9934   -7855.6272   -1171.2429    28968.117     6.245255 
    4770    763.14935   -7940.8697   -7855.7393   -1031.5866    28968.773    6.2507603 
    4780    761.61491   -7940.7558   -7855.7965   -812.00202    28966.692    6.2645114 
    4790    753.56201   -7939.8553   -7855.7943   -693.29068    28962.422     6.282267 
    4800    743.24027   -7938.6322   -7855.7226   -539.80005    28956.307    6.3018571 
    4810    734.47508   -7937.4963   -7855.5645   -348.14771    28948.738    6.3207175 
    4820    737.68919   -7937.6011   -7855.3107   -97.379953    28940.244    6.3347265 
    4830    745.89802    -7938.164   -7854.9579     127.3835    28931.481    6.3423122 
    4840    759.34146   -7939.2287    -7854.523    191.29875    28923.015     6.342874 
    4850    778.84932   -7940.9218     -7854.04    211.91803    28915.048    6.3385796 
    4860    790.32535   -7941.7145   -7853.5525    304.29397    28907.671     6.333347 
    4870    788.54992   -7941.0604   -7853.0965    543.82927    28901.145    6.3289027 
    4880    792.73519   -7941.1091   -7852.6783    786.29187    28896.074    6.3257969 
    4890    798.08953   -7941.3257   -7852.2976    849.28079    28893.066    6.3272437 
    4900    803.70392    -7941.619   -7851.9646    860.21897    28892.308     6.335297 
    4910    812.07934   -7942.2744   -7851.6858     977.0118    28893.871    6.3453287 
    4920    816.38544   -7942.5463   -7851.4773    937.10469        28898    6.3499019 
    4930    817.41033   -7942.5272   -7851.3439    556.74448     28904.55    6.3476037 
    4940    821.10872    -7942.884   -7851.2881    36.740286    28912.559    6.3399984 
    4950    814.00227   -7942.1105   -7851.3073   -174.29768    28920.736     6.330113 
    4960     801.9133    -7940.837   -7851.3824    150.90379    28928.564    6.3237243 
    4970    801.34618   -7940.8763   -7851.4849    548.52354    28936.777    6.3255049 
    4980    807.57342   -7941.6976   -7851.6116     786.1878    28946.401    6.3350683 
    4990    808.66195   -7941.9853   -7851.7778    826.77304    28958.053     6.346785 
    5000    803.51519   -7941.6166   -7851.9833    681.08884    28971.861    6.3572435 
Loop time of 2685.4 on 16 procs for 3000 steps with 864 atoms

Performance: 0.097 ns/day, 248.648 hours/ns, 1.117 timesteps/s
96.0% CPU use with 16 MPI tasks x 1 OpenMP threads

MPI task timing breakdown:
Section |  min time  |  avg time  |  max time  |%varavg| %total
---------------------------------------------------------------
Pair    | 1727.9     | 2200.6     | 2449.6     | 417.2 | 81.95
Bond    | 0.00036359 | 0.00076669 | 0.001559   |   0.0 |  0.00
Neigh   | 0.033101   | 0.036491   | 0.040336   |   1.1 |  0.00
Comm    | 55.176     | 323.06     | 843.97     |1164.6 | 12.03
Output  | 0.37084    | 0.39549    | 0.76184    |  15.0 |  0.01
Modify  | 112.71     | 161.3      | 200.3      | 217.8 |  6.01
Other   |            | 0.02328    |            |       |  0.00

Nlocal:        54.0000 ave          60 max          46 min
Histogram: 1 0 1 2 3 1 3 1 2 2
Nghost:        402.938 ave         418 max         388 min
Histogram: 2 1 0 1 2 4 2 3 0 1
Neighs:         0.00000 ave           0 max           0 min
Histogram: 16 0 0 0 0 0 0 0 0 0
FullNghs:      1558.00 ave        1861 max        1252 min
Histogram: 1 1 1 2 3 1 4 1 1 1

Total # of neighbors = 24928
Ave neighs/atom = 28.851852
Ave special neighs/atom = 0.0000000
Neighbor list builds = 300
Dangerous builds = 300
Setting up Verlet run ...
  Unit style    : metal
  Current step  : 5000
  Time step     : 0.001
Per MPI rank memory allocation (min/avg/max) = 8.897 | 8.899 | 8.901 Mbytes
Step Temp PotEng TotEng Press Volume c_msd[4] 
    5000    803.51519   -7941.6166   -7851.9833    681.08884    28971.861    6.3572435 
    5010    807.45967   -7942.0802   -7852.0069     245.4488    28972.606    6.3605911 
    5020    794.79035   -7940.7302   -7852.0701   -87.252993    28974.046    6.3597789 
    5030    782.47796   -7939.4387   -7852.1521   -168.40612     28975.31    6.3568708 
    5040    781.14022   -7939.3646   -7852.2272   -90.694242    28976.162    6.3570289 
    5050    784.07232   -7939.7574   -7852.2929     114.4683    28976.823    6.3625429 
    5060    777.13219   -7939.0444   -7852.3542    204.44723    28977.772    6.3710347 
    5070    764.79245   -7937.7043   -7852.3905    146.82309    28979.245    6.3764788 
    5080    777.68748   -7939.1427   -7852.3905    -41.73177    28981.087    6.3743155 
    5090    784.34547   -7939.8595   -7852.3646   -132.98264    28982.852    6.3670058 
    5100    779.94081   -7939.3286   -7852.3251   -6.5585164    28984.339    6.3571741 
    5110    784.10128   -7939.7325   -7852.2648   -47.513534    28985.777      6.34702 
    5120    799.06192   -7941.3272   -7852.1907   -171.43594    28987.092    6.3429165 
    5130    799.04235   -7941.2574    -7852.123    -117.6806    28988.011    6.3482477 
    5140    786.26758   -7939.7789   -7852.0696    58.900208    28988.655    6.3595011 
    5150    777.59101   -7938.7453   -7852.0039     288.3753    28989.494    6.3722188 
    5160    782.59388   -7939.2028   -7851.9033    369.35981     28991.09    6.3869002 
    5170    771.30014   -7937.7885   -7851.7488     397.2165    28993.694    6.4055431 
    5180    781.57174   -7938.7123   -7851.5268    195.34397    28997.323    6.4252276 
    5190    813.30837   -7941.9621   -7851.2364   -27.902908    29001.488    6.4437291 
    5200    822.56821   -7942.6944   -7850.9357    43.842514    29005.646    6.4629129 
    5210    800.70929   -7939.9814   -7850.6611    342.57718    29009.998    6.4861985 
    5220    793.12556   -7938.8652   -7850.3909    269.51354    29015.173    6.5145583 
    5230    795.54688   -7938.8398   -7850.0954    96.192217    29021.047    6.5468421 
    5240    794.34558   -7938.3969   -7849.7864    29.265918    29027.199    6.5803378 
    5250    793.30214   -7937.9579   -7849.4638   -112.01163    29033.421    6.6123423 
    5260    806.77795   -7939.1332   -7849.1359   -291.96757    29039.337    6.6361566 
    5270    820.02298   -7940.3028    -7848.828   -278.78747    29044.531    6.6490507 
    5280    828.16262   -7940.9605   -7848.5777    -222.1019    29048.992    6.6556188 
    5290    820.46658   -7939.9312   -7848.4069   -185.07958    29052.843    6.6610014 
    5300    809.30544   -7938.5883   -7848.3091   -354.26963    29056.154    6.6679901 
    5310    806.75419   -7938.2613   -7848.2667   -724.02259    29058.447    6.6752241 
    5320     788.9385   -7936.2713   -7848.2641   -631.91456    29058.915    6.6824406 
    5330    783.64736    -7935.691   -7848.2739   -536.51902    29057.678    6.6915954 
    5340    792.55658   -7936.6889    -7848.278   -524.72338    29054.999    6.7040018 
    5350    794.32412   -7936.8973   -7848.2893   -458.95602    29050.927    6.7211807 
    5360    781.10123   -7935.4337   -7848.3006    -234.8041    29045.675    6.7456819 
    5370    794.34918   -7936.9112   -7848.3004   -84.494844    29039.791    6.7765131 
    5380    817.65249   -7939.5216   -7848.3112    70.426436    29033.714    6.8080008 
    5390    814.92766   -7939.2873   -7848.3809      292.978    29027.885    6.8372913 
    5400    808.52909   -7938.7202   -7848.5276    288.67531    29022.812     6.864903 
    5410    800.10774    -7937.999   -7848.7457    106.37357    29018.469    6.8930535 
    5420    767.85679   -7934.6536    -7848.998    257.73542    29014.527    6.9210448 
    5430    755.71138   -7933.5306   -7849.2299    304.40728    29011.265    6.9452417 
    5440    776.38915   -7936.0367   -7849.4294    155.34331     29008.78    6.9663757 
    5450    788.61565   -7937.5904   -7849.6192    236.94207     29006.79    6.9899653 
    5460    793.42507   -7938.3378   -7849.8301    158.39591    29005.396    7.0194629 
    5470    790.79886   -7938.2827   -7850.0679   -14.938915    29004.452    7.0514412 
    5480    790.22637   -7938.4946   -7850.3437   -300.37093    29003.443    7.0825615 
    5490    782.44497   -7937.9288   -7850.6459   -411.94323    29001.697    7.1110948 
    5500    779.55334   -7937.9276   -7850.9672   -592.52343    28998.835    7.1367403 
    5510    770.45989   -7937.2378   -7851.2918   -664.99384    28994.424    7.1599797 
    5520    771.96582   -7937.7197   -7851.6058   -556.22837    28988.305     7.182415 
    5530     779.7221   -7938.8896   -7851.9104   -373.18102    28980.747    7.2100151 
    5540    778.49937   -7939.0546   -7852.2118   -128.01666    28972.247    7.2433201 
    5550    783.51349   -7939.9236   -7852.5215   -63.405482    28963.387    7.2765061 
    5560    783.21126   -7940.2151   -7852.8468    26.365331    28954.402    7.3044374 
    5570    778.92554   -7940.0767   -7853.1864    248.58312    28945.557    7.3220106 
    5580    780.75133   -7940.6287   -7853.5348    335.70304    28937.366     7.325318 
    5590    779.75864   -7940.8756   -7853.8924    273.11807    28930.063    7.3161881 
    5600    781.48341   -7941.4421   -7854.2664    66.985332    28923.462    7.3006697 
    5610    764.42335   -7939.9075   -7854.6349     90.58252    28917.111    7.2841452 
    5620    751.25231   -7938.7707   -7854.9673    319.01713    28911.059    7.2716908 
    5630    757.94367   -7939.7925   -7855.2428    418.47561    28905.845    7.2660319 
    5640    767.41545   -7941.0822   -7855.4758     374.2441     28901.72    7.2631257 
    5650    765.68077   -7941.0908    -7855.678    457.36785    28898.629    7.2591723 
    5660    769.73646   -7941.7216   -7855.8563    488.63201    28896.735    7.2565006 
    5670    769.77847   -7941.8838   -7856.0139    558.73354    28896.162    7.2581758 
    5680    764.67647    -7941.451   -7856.1502    674.02731      28897.1    7.2610969 
    5690    761.83525   -7941.2346   -7856.2507    552.18832    28899.766    7.2625824 
    5700    762.63046   -7941.3779   -7856.3053    420.02693    28903.911    7.2667123 
    5710    760.94311   -7941.1807   -7856.2963    430.06769    28909.228    7.2719259 
    5720    771.77077   -7942.3233   -7856.2311    527.42769     28915.71    7.2726345 
    5730    772.16277   -7942.2416   -7856.1057    786.51622    28923.672    7.2727169 
    5740    781.69964    -7943.127   -7855.9272    753.89239    28933.675    7.2761976 
    5750    773.67598   -7941.9986   -7855.6939    610.27296    28945.679    7.2853242 
    5760    753.52438   -7939.4427   -7855.3859    530.11164     28959.35     7.298763 
    5770    754.89863   -7939.1739   -7854.9638    459.02773    28974.463    7.3109205 
    5780    769.63523   -7940.2522   -7854.3982    371.92653    28990.833    7.3206235 
    5790    772.45312   -7939.8839   -7853.7156    336.14057    29008.238    7.3313574 
    5800     762.4374   -7938.0024   -7852.9513    323.66291    29026.574     7.345774 
    5810    781.17061   -7939.2668    -7852.126    154.53226    29045.766    7.3598273 
    5820    801.67059   -7940.7098   -7851.2822    70.152586    29065.437    7.3693784 
    5830    803.42864   -7940.1321   -7850.5084    92.720385     29085.37    7.3747527 
    5840    803.02048   -7939.4238   -7849.8457   -21.320189    29105.545    7.3782726 
    5850    801.40711   -7938.6907   -7849.2925   -89.404965    29125.713    7.3824175 
    5860    797.04498   -7937.7458   -7848.8342   -217.90883     29145.65    7.3892924 
    5870    803.82297   -7938.1198   -7848.4522   -384.35735    29165.019    7.3974658 
    5880    808.43079   -7938.3228   -7848.1411   -471.72802    29183.397    7.4047441 
    5890    815.88213   -7938.9229     -7847.91   -367.89235    29200.579    7.4088474 
    5900    816.54803   -7938.8474   -7847.7602   -151.96948    29216.814    7.4094065 
    5910    817.60949   -7938.8951   -7847.6895   -179.83234    29232.591    7.4072193 
    5920    821.54945   -7939.3375   -7847.6924   -314.00226    29247.916    7.4028062 
    5930    820.49201   -7939.3003   -7847.7732    -649.0179    29262.353    7.3995304 
    5940    805.96568   -7937.8265   -7847.9198    -813.0456    29275.081    7.4026104 
    5950    801.68212   -7937.5382   -7848.1094   -921.16522    29285.628    7.4114865 
    5960    801.47236   -7937.7364    -7848.331   -1144.5323    29293.638    7.4225576 
    5970    780.19378   -7935.6007   -7848.5689    -1008.198    29298.627    7.4350466 
    5980    775.06228   -7935.2528   -7848.7935   -854.59355    29300.853    7.4489702 
    5990    786.90576   -7936.7752   -7848.9947   -767.89176    29300.734    7.4630226 
    6000    793.08821   -7937.6671   -7849.1969   -606.86387    29298.541    7.4754782 
    6010    786.79295   -7937.1802   -7849.4122   -452.38793    29294.698    7.4867782 
    6020    780.87943   -7936.7392   -7849.6309   -335.09935    29289.621    7.4983665 
    6030    786.71533   -7937.6056   -7849.8463   -244.42978    29283.614    7.5109809 
    6040    789.52482   -7938.1361   -7850.0634   -76.335348    29276.953       7.5257 
    6050    789.57267   -7938.3675   -7850.2895    142.79041    29270.099    7.5443043 
    6060    801.93809   -7939.9943   -7850.5369    184.11375     29263.58    7.5674394 
    6070    808.31763   -7941.0008   -7850.8317    336.41035    29257.603    7.5917915 
    6080    810.30244   -7941.5963   -7851.2059    420.15856    29252.525    7.6113293 
    6090    797.46013   -7940.6111   -7851.6533    413.41371    29248.591    7.6289911 
    6100    790.65107   -7940.3608   -7852.1624    493.19203    29245.819    7.6487679 
    6110    773.03879   -7938.9399   -7852.7062    655.43583    29244.413    7.6671752 
    6120    762.82615   -7938.3352   -7853.2408    708.02057    29244.783    7.6826345 
    6130    767.62935   -7939.3844   -7853.7542    540.13375    29247.034    7.6971435 
    6140    758.95501   -7938.8914   -7854.2288    502.18771    29250.803    7.7132649 
    6150     756.5721   -7939.0469   -7854.6501    458.16711    29255.949    7.7310141 
    6160    759.13323   -7939.7004   -7855.0179    279.63469    29262.316    7.7494381 
    6170    752.86243    -7939.314   -7855.3311    189.81716    29269.466    7.7634118 
    6180    736.52304   -7937.7269   -7855.5666    202.16901    29277.139    7.7707611 
    6190    731.08942   -7937.2554   -7855.7013     136.0346     29285.33    7.7782195 
    6200    742.21053   -7938.5174   -7855.7227   -84.749475    29293.852     7.795489 
    6210    752.91836   -7939.6356   -7855.6465   -291.44779     29302.11    7.8236261 
    6220    749.11616   -7939.0453   -7855.4802   -213.47357    29309.621    7.8552262 
    6230    765.22941   -7940.5796   -7855.2171   -279.86919    29316.479    7.8797104 
    6240    784.13852   -7942.3228    -7854.851   -207.51264    29322.583    7.8924369 
    6250    789.72466   -7942.4886   -7854.3936      36.7671    29328.132    7.8976141 
    6260    784.19621   -7941.3107   -7853.8324    95.488999    29333.699    7.9021303 
    6270    780.59287   -7940.2205   -7853.1442    47.423442    29339.482    7.9109875 
    6280    776.99908   -7938.9866   -7852.3112    16.655659    29345.377    7.9243765 
    6290    779.70979   -7938.3345   -7851.3567   -162.33018    29351.244    7.9423183 
    6300    778.21406   -7937.1434   -7850.3325   -367.84444     29356.64     7.964278 
    6310    774.37467    -7935.698   -7849.3154   -558.73361    29361.006    7.9865226 
    6320    779.19624   -7935.2916   -7848.3711   -590.58308    29363.851    8.0064999 
    6330     778.8571   -7934.4278   -7847.5452   -328.85109    29365.131    8.0238902 
    6340     783.0578   -7934.2046   -7846.8534   -63.852295    29365.515    8.0344487 
    6350    799.06131   -7935.4252   -7846.2887   -58.143445    29365.659    8.0374132 
    6360    812.11319   -7936.4486   -7845.8561    50.578838    29365.685    8.0374986 
    6370    815.97159    -7936.573   -7845.5501    208.54705    29365.861    8.0371837 
    6380    827.69727   -7937.6895   -7845.3586    145.39132    29366.534    8.0382192 
    6390    822.89029   -7937.0628   -7845.2681    229.04966    29367.659    8.0440011 
    6400    820.04444   -7936.7489   -7845.2717    172.96374    29369.362    8.0573475 
    6410    809.30859   -7935.6214   -7845.3418   -34.993996    29371.494    8.0785002 
    6420    799.84553   -7934.6822   -7845.4582   -126.14989    29373.549    8.1032894 
    6430    794.17676   -7934.1889   -7845.5973   -120.58398    29375.277    8.1270306 
    6440    787.91586    -7933.644   -7845.7508    -177.0999    29376.644    8.1455027 
    6450    776.97543    -7932.568   -7845.8952   -227.85656    29377.528    8.1593687 
    6460    784.30996   -7933.5166   -7846.0256   -398.78888    29377.754     8.171602 
    6470    787.36078   -7933.9796   -7846.1484   -432.34478    29376.933    8.1876784 
    6480    783.14446   -7933.6335   -7846.2725   -250.96695    29374.983    8.2075818 
    6490    785.33361   -7933.9951     -7846.39    -41.68863    29372.374    8.2259472 
    6500    808.41151   -7936.6986    -7846.519    41.169031    29369.638    8.2424231 
    6510     813.8163   -7937.4784   -7846.6959    271.86392     29367.09     8.262402 
    6520    802.41603   -7936.4461   -7846.9353    473.71733    29365.317    8.2873564 
    6530    794.63396   -7935.8644   -7847.2218     532.0878    29364.823    8.3144476 
    6540    784.85601   -7935.0865   -7847.5346     755.8726    29365.843    8.3423411 
    6550    770.73575   -7933.8252   -7847.8485    1030.7223    29368.956    8.3732984 
    6560    768.05706   -7933.8205   -7848.1426    1005.2766    29374.793    8.4071709 
    6570    768.65479   -7934.1469   -7848.4023    799.47658     29383.31    8.4406273 
    6580    779.91491    -7935.636   -7848.6353    515.55464    29393.955    8.4702155 
    6590     792.8672   -7937.3107   -7848.8651    255.63116    29405.942    8.4953878 
    6600    796.40065   -7937.9536   -7849.1139    229.04881    29418.607     8.520189 
    6610    800.12134   -7938.6532   -7849.3985    260.38706    29431.826    8.5478699 
    6620    777.40897   -7936.4325   -7849.7114    469.96322    29445.722    8.5780589 
    6630    763.64256   -7935.1999   -7850.0144     537.5208    29460.772    8.6082922 
    6640    764.50009   -7935.5637   -7850.2826    564.23395    29477.192    8.6380902 
    6650    765.24322   -7935.8737   -7850.5096    528.57135    29495.012    8.6660575 
    6660    774.71876   -7937.1281   -7850.7071    353.90636    29514.109     8.688469 
    6670    771.52057   -7936.9524   -7850.8881    253.09829    29534.056    8.7049036 
    6680    759.89397   -7935.8124   -7851.0451    138.81525    29554.536    8.7178758 
    6690    756.86719   -7935.5906   -7851.1609    16.311197    29575.214     8.729981 
    6700    754.79139   -7935.4181     -7851.22    73.784879    29595.801    8.7420475 
    6710    761.34071   -7936.1466   -7851.2179   -2.5260376    29616.366    8.7537799 
    6720    768.60067   -7936.8927   -7851.1541   -289.83208    29636.687    8.7645398 
    6730    777.19786   -7937.7323   -7851.0347   -724.15952    29655.985    8.7711399 
    6740    788.72129   -7938.8501    -7850.867   -1258.6649    29673.061    8.7753212 
    6750    795.16216    -7939.372   -7850.6705   -1788.9281    29686.472    8.7805246 
    6760    793.03243    -7938.923    -7850.459   -2145.0861    29694.802    8.7865951 
    6770    785.96387   -7937.9077   -7850.2323   -2181.5667    29697.133    8.7943538 
    6780    784.50692    -7937.488   -7849.9751   -2089.9387    29693.368    8.8058963 
    6790    787.14275   -7937.4785   -7849.6716      -1708.4    29683.886    8.8208046 
    6800    792.83293   -7937.7602   -7849.3185   -1261.3212     29669.76    8.8335008 
    6810    794.03766   -7937.5006   -7848.9245   -1052.8678    29652.222    8.8377847 
    6820    792.20503   -7936.8721   -7848.5004   -967.15118    29631.923    8.8344862 
    6830    791.04393   -7936.2889   -7848.0467   -868.16281    29609.188    8.8276397 
    6840     788.8271   -7935.5591   -7847.5642   -843.09847    29584.304    8.8214555 
    6850    786.93348   -7934.8382   -7847.0546    -839.3216    29557.389    8.8176792 
    6860    790.99335   -7934.7578   -7846.5213   -706.50834    29528.536    8.8153152 
    6870    794.35602   -7934.5885   -7845.9769   -475.83025    29498.129    8.8114107 
    6880    791.73472   -7933.7545   -7845.4353   -95.139266    29466.855    8.8012058 
    6890    789.46832   -7932.9654   -7844.8991    338.56439    29435.761    8.7830366 
    6900    798.70727   -7933.4704   -7844.3734    477.39234    29405.954    8.7625566 
    6910    807.03271   -7933.9003   -7843.8746    411.77863    29377.861    8.7471246 
    6920    818.72208   -7934.7702   -7843.4406    221.29893    29351.264    8.7378263 
    6930    825.08799   -7935.1279   -7843.0881    89.221352    29325.677    8.7309012 
    6940    843.72596   -7936.9646   -7842.8457   -52.121605    29300.706     8.723074 
    6950    834.14339   -7935.7783   -7842.7283    147.71219    29276.068    8.7166352 
    6960    811.53856   -7933.2449   -7842.7165     520.1096    29252.258    8.7147956 
    6970    800.60706   -7932.0676   -7842.7587    673.05729    29230.177    8.7183304 
    6980    804.39448   -7932.5679   -7842.8365    508.02079    29210.164    8.7254496 
    6990    809.23473   -7933.2274    -7842.956    487.80692    29191.877    8.7326313 
    7000    812.47011   -7933.7598   -7843.1275    711.49635    29175.255    8.7390065 
    7010       816.42   -7934.4358   -7843.3629    928.34356    29160.819    8.7449109 
    7020    811.92291   -7934.2389   -7843.6677    910.22318    29149.053    8.7503222 
    7030     814.0254   -7934.8536   -7844.0478    530.50491    29139.822    8.7551477 
    7040    813.32588   -7935.2319   -7844.5042    93.966243    29132.147    8.7609492 
    7050    803.98201   -7934.7203   -7845.0349   -232.74375    29124.853    8.7676135 
    7060    784.18898   -7933.0754   -7845.5979   -220.16837    29117.126    8.7736539 
    7070     780.3327   -7933.1971   -7846.1498   -21.914002    29108.968    8.7798963 
    7080    804.39572   -7936.4253   -7846.6937    8.5074831    29100.833    8.7863776 
    7090    822.19673   -7938.9944   -7847.2771   -71.580823    29092.806     8.790652 
    7100    817.47293   -7939.0982   -7847.9078   -72.801414    29084.724    8.7910949 
    7110     802.0017   -7938.0112   -7848.5467    43.633676    29076.601    8.7871313 
    7120    786.23065   -7936.8406   -7849.1354    162.40551    29068.706    8.7820863 
    7130    772.91994   -7935.8487   -7849.6283    219.88006    29061.349    8.7797411 
    7140    762.66808   -7935.0796   -7850.0028    85.380367    29054.626    8.7803316 
    7150      764.363   -7935.5247   -7850.2588    80.521136    29048.257    8.7846971 
    7160    774.36203   -7936.8035   -7850.4223    124.03019      29042.2     8.791409 
    7170    786.88979   -7938.3085   -7850.5297   -16.410407    29036.505    8.7946611 
    7180    801.42158   -7940.0193   -7850.6195   -46.188419    29030.877    8.7918157 
    7190    804.40522   -7940.4538   -7850.7212    87.343156    29025.226    8.7856815 
    7200    795.42736   -7939.5663   -7850.8352    364.37465    29019.921    8.7812376 
    7210    798.86731     -7940.07   -7850.9551    449.19656    29015.621    8.7818123 
    7220    807.84178   -7941.2037   -7851.0878    443.88446    29012.574    8.7892469 
    7230     816.7422   -7942.3628   -7851.2539    386.59345     29010.73    8.8031441 
    7240    818.14443   -7942.7376   -7851.4723    445.74888    29009.977     8.820182 
    7250    803.25626   -7941.3406   -7851.7361    483.41744    29010.419     8.839321 
    7260    789.35149   -7940.0694   -7852.0161     361.6765    29012.122    8.8584303 
    7270    773.34672   -7938.5471   -7852.2791    153.15493    29014.763    8.8755271 
    7280    755.73813   -7936.7943   -7852.4906    17.760694     29017.82    8.8919792 
    7290    756.52939   -7937.0245   -7852.6325   -285.27429    29020.853    8.9095274 
    7300    757.56583   -7937.2098   -7852.7022   -466.73216    29023.151       8.9265 
    7310    760.61479    -7937.556   -7852.7083   -584.22569     29024.18    8.9383628 
    7320    768.96702   -7938.4385   -7852.6591    -673.4853    29023.634    8.9461687 
    7330    765.88091   -7938.0014   -7852.5662   -603.03303    29021.341    8.9533712 
    7340    754.88894   -7936.6329   -7852.4239   -568.96092    29017.453    8.9621543 
    7350     762.2834   -7937.2516   -7852.2178   -727.27074    29012.027    8.9730243 
    7360    775.91922   -7938.5019   -7851.9469   -798.99876    29004.732    8.9858986 
    7370    794.86308   -7940.3081   -7851.6399   -814.62501    28995.377    8.9983055 
    7380    803.39544   -7940.9513   -7851.3314   -866.47657    28983.909    9.0071308 
    7390      790.916   -7939.2704   -7851.0425   -748.01289    28970.268    9.0124328 
    7400    775.06101   -7937.2138   -7850.7545   -451.93906    28954.788    9.0138153 
    7410    768.12915    -7936.115    -7850.429   -260.76315    28938.193    9.0100044 
    7420    772.25653   -7936.1928   -7850.0464   -133.27039    28921.043    9.0031699 
    7430    780.37574   -7936.6601    -7849.608   -129.54752    28903.652    8.9972149 
    7440    787.79381   -7937.0107   -7849.1312   -122.32124    28886.056    8.9945983 
    7450    788.39152   -7936.5801   -7848.6338    47.785393    28868.303     8.994442 
    7460    789.48453   -7936.1942    -7848.126    200.67598    28850.798    8.9925762 
    7470    799.89707   -7936.8418   -7847.6121    293.20625     28833.96    8.9863783 
    7480    826.62267   -7939.3347   -7847.1237     325.3714     28818.01    8.9775596 
    7490    829.43375     -7939.23   -7846.7054    579.80399    28803.104    8.9722352 
    7500    828.46205   -7938.8032    -7846.387    750.86156    28789.801    8.9769361 
    7510    835.24666   -7939.3385   -7846.1655    892.12252    28778.563    8.9950586 
    7520    826.56737   -7938.2538    -7846.049    1192.4787    28769.807     9.022166 
    7530    814.05891   -7936.8365    -7846.027    1279.0165    28764.192    9.0505938 
    7540    808.22643   -7936.2327   -7846.0738     1166.665    28761.957    9.0771715 
    7550     802.0858    -7935.648   -7846.1742    957.78594    28762.795    9.1012784 
    7560    787.84745   -7934.1936    -7846.308    1027.3367    28766.223    9.1206813 
    7570    795.96688   -7935.2538   -7846.4625    1201.5806    28772.359    9.1288524 
    7580    825.61685   -7938.7647   -7846.6659    1081.3753    28781.561    9.1250578 
    7590    830.90166   -7939.6683     -7846.98    791.07952     28793.55    9.1208233 
    7600    817.31401   -7938.6116    -7847.439    556.98468    28807.608    9.1243014 
    7610    812.21786   -7938.6587   -7848.0545    178.14508    28823.035    9.1343632 
    7620    803.80524   -7938.4955   -7848.8298    -161.7374    28838.882    9.1485511 
    7630    790.88298   -7937.9852    -7849.761   -321.94679    28854.288    9.1664403 
    7640    774.07891   -7937.1346   -7850.7849     -333.325    28868.815    9.1844192 
    7650    772.37449    -7937.973   -7851.8134   -298.55532    28882.399    9.1946258 
    7660    775.83237   -7939.3207   -7852.7754   -162.67718    28895.173    9.1950388 
    7670    763.98103   -7938.8129   -7853.5897     28.99312    28907.498    9.1918481 
    7680     763.2038   -7939.3527   -7854.2161    114.07729    28919.842    9.1893908 
    7690    762.23951   -7939.6929   -7854.6639    74.857505     28932.41    9.1886946 
    7700    753.90955   -7939.0566   -7854.9569    177.46403    28945.198    9.1897577 
    7710    749.50462   -7938.7249   -7855.1165    179.38043     28958.41    9.1947939 
    7720    759.25006   -7939.8712   -7855.1757   -11.729783    28972.015    9.2079536 
    7730    757.87861   -7939.7037   -7855.1612    34.374376    28985.624    9.2299629 
    7740    756.78378   -7939.5141   -7855.0938    140.63702    28999.303    9.2571003 
    7750    754.17725   -7939.1043   -7854.9747    268.79676    29013.336    9.2851682 
    7760    748.94489   -7938.3468   -7854.8008    501.25084    29028.096    9.3094137 
    7770    764.28213   -7939.8302   -7854.5733    496.85369    29044.111    9.3244585 
    7780    781.69061   -7941.5019   -7854.3032     321.1309    29061.405    9.3308298 
    7790    795.54146   -7942.7727   -7854.0289    264.78133    29079.582    9.3362019 
    7800    795.31092   -7942.4967   -7853.7786    412.92814    29098.502    9.3455123 
    7810    788.26065   -7941.4871   -7853.5555    550.74468    29118.509    9.3563841 
    7820    789.67055   -7941.4362   -7853.3473    513.09922    29139.946    9.3668978 
    7830    793.70542   -7941.6817   -7853.1426    291.14359    29162.706    9.3781765 
    7840    798.58666   -7942.0307   -7852.9472   -73.189955    29186.188    9.3947709 
    7850    799.44856   -7941.9476   -7852.7679   -372.62709    29209.456    9.4209313 
    7860    797.75793   -7941.6071    -7852.616   -551.46577    29231.708    9.4553771 
    7870    791.80522   -7940.8152   -7852.4881   -666.13422    29252.443    9.4896716 
    7880    781.64036   -7939.5593   -7852.3662   -740.39594     29271.35    9.5163622 
    7890    782.54548   -7939.5286   -7852.2345   -974.37709    29288.164    9.5339038 
    7900    778.80228   -7938.9599   -7852.0833   -1154.2915      29302.3     9.546993 
    7910     771.8285    -7938.003   -7851.9044   -1174.5806    29313.301    9.5610128 
    7920    777.79664   -7938.4522   -7851.6878   -1202.3202    29321.068    9.5790134 
    7930    781.33404   -7938.5902   -7851.4312   -1167.9792    29325.556    9.6034471 
    7940    797.66861   -7940.1344   -7851.1532   -1101.1247    29326.852      9.63243 
    7950    801.71721   -7940.3055   -7850.8727   -943.01504    29325.148     9.663661 
    7960    787.64995   -7938.4664   -7850.6028   -706.15613    29320.878    9.6972737 
    7970    777.44224   -7937.0462   -7850.3213   -439.76631    29314.693    9.7269765 
    7980    783.65837     -7937.42   -7850.0017   -201.56298    29307.332    9.7423164 
    7990    806.71389    -7939.642   -7849.6518   -321.94308    29299.336    9.7432982 
    8000    810.82881   -7939.7574   -7849.3082   -442.72528    29290.476    9.7415556 
    8010    799.63859   -7938.1903   -7848.9894   -382.50699    29280.482    9.7444135 
    8020    807.66021    -7938.782   -7848.6863   -562.69127    29269.394    9.7504585 
    8030    810.83705   -7938.8487   -7848.3986    -703.3998    29256.798    9.7577079 
    8040    819.25793    -7939.535   -7848.1456   -681.72275    29242.356    9.7678585 
    8050      833.546    -7940.933   -7847.9497   -804.07009     29226.03    9.7830384 
    8060    816.81803   -7938.9495   -7847.8322    -463.7947    29207.676    9.8028665 
    8070     811.2417   -7938.2717   -7847.7764    -149.3307     29188.06    9.8228515 
    8080      832.149    -7940.612   -7847.7845   -88.424623    29168.006    9.8413619 
    8090    826.43471   -7940.0848   -7847.8948    98.641014    29147.786    9.8625156 
    8100     802.3456   -7937.6082   -7848.1053     314.9523    29127.879    9.8886486 
    8110    785.64712   -7936.0255   -7848.3854     245.8164    29108.786    9.9196908 
    8120     765.7671    -7934.115   -7848.6925    188.91161    29090.399    9.9521472 
    8130    780.34432    -7936.066   -7849.0174    111.85404     29072.53    9.9810595 
    8140    794.98074   -7938.0633    -7849.382    260.65549    29055.063    10.006542 
    8150     791.3988    -7938.098   -7849.8163    471.98569    29038.358    10.033769 
    8160    773.40187   -7936.5726   -7850.2985    415.12302    29022.893    10.066577 
    8170    768.53576   -7936.5308   -7850.7995    237.78055    29008.537    10.102718 
    8180    760.18264   -7936.0909   -7851.2914    319.94999    28994.929    10.141211 
    8190    756.65432   -7936.1604   -7851.7545    344.65864    28982.192    10.180505 
    8200    769.41877   -7938.0148    -7852.185    286.50006    28970.396    10.218454 
    8210    779.14727   -7939.5211   -7852.6061    357.52978    28959.411    10.251273 
    8220    768.46806   -7938.7375   -7853.0138     720.2347    28949.501    10.273231 
    8230    771.41772   -7939.4519   -7853.3991    585.70539     28941.41    10.284801 
    8240    780.85342   -7940.8785   -7853.7731    152.53322    28934.837    10.292422 
    8250    766.83772   -7939.6696   -7854.1277    61.393501      28928.8    10.303749 
    8260    751.19382   -7938.2292   -7854.4324    138.32714    28922.985    10.324424 
    8270    756.02643   -7939.0085   -7854.6726    136.34377    28917.524    10.351431 
    8280    753.40231   -7938.8888   -7854.8456    255.61363    28912.485    10.377733 
    8290    749.88235   -7938.5954   -7854.9449     221.3224    28908.114     10.40026 
    8300    756.02125   -7939.3087   -7854.9734    5.1763167    28904.296    10.418682 
    8310    754.61736   -7939.1112   -7854.9325    5.5400631    28900.583    10.431993 
    8320    762.69385   -7939.9012   -7854.8215   -37.880703    28896.895    10.442055 
    8330    769.85396   -7940.5212   -7854.6428    74.544673    28893.163    10.456412 
    8340    764.31788   -7939.6628    -7854.402    269.92993    28889.656    10.479518 
    8350     767.7205    -7939.731   -7854.0906    262.41715    28886.826    10.510126 
    8360    788.09245   -7941.6173   -7853.7044    64.587172    28884.658    10.546341 
    8370    782.10408   -7940.5045   -7853.2596     183.3374    28882.746    10.586153 
    8380    769.48756   -7938.5982   -7852.7607    520.29559    28881.406    10.624735 
    8390    784.65392   -7939.7125   -7852.1831    433.40529    28881.359    10.658178 
    8400    800.06676   -7940.7862   -7851.5375    269.75329    28882.466    10.686649 
    8410    802.02197    -7940.338   -7850.8713    255.15248    28884.331    10.712541 
    8420    809.63211   -7940.5357     -7850.22    205.89813    28886.871    10.735217 
    8430    808.57515   -7939.8048   -7849.6071    154.59574    28889.961    10.754291 
    8440    798.64089   -7938.1399   -7849.0503    211.41461    28893.496    10.774706 
    8450    808.29506   -7938.7123   -7848.5458    185.80294    28897.563    10.801646 
    8460    806.81568   -7938.0953   -7848.0938    291.95915    28902.154    10.838442 
    8470    802.18388   -7937.1904   -7847.7055    397.51871    28907.527    10.885933 
    8480    804.56654   -7937.1265   -7847.3759    382.18351    28913.924    10.940851 
    8490    802.25287   -7936.5939   -7847.1014    520.99681    28921.391    10.994856 
    8500    813.47859   -7937.6343   -7846.8895    522.11208    28930.202    11.039353 
    8510    817.51647   -7937.9414   -7846.7462    303.68349    28940.338    11.072042 
    8520     811.6925   -7937.2169   -7846.6714   -4.4759712     28951.25    11.099239 
    8530    813.59421   -7937.4188   -7846.6611    -256.2188    28962.131    11.128962 
    8540    803.27271   -7936.3091   -7846.7028   -348.11867    28972.338    11.166669 
    8550    794.96729   -7935.4566   -7846.7768   -417.08724    28981.597    11.209532 
    8560    791.09274   -7935.1061   -7846.8585   -538.29842    28989.701     11.25019 
    8570    786.03916   -7934.6241   -7846.9403   -763.92246      28996.3    11.283633 
[...]
   22890    792.05267   -7941.9355   -7853.5808   -938.57476    28971.364    33.732332 
   22900    761.42485   -7938.9626   -7854.0245    -688.4868    28983.936    33.776369 
   22910    758.39239   -7939.1004   -7854.5005   -503.56888    28994.624    33.798383 
   22920    766.53336   -7940.5112   -7855.0032   -494.49073    29003.909    33.806156 
   22930    758.69424    -7940.168   -7855.5345   -530.51259    29011.866    33.812395 
   22940    748.46737    -7939.561   -7856.0683   -595.79249    29018.382    33.823402 
   22950    746.40306   -7939.8415   -7856.5791    -602.8453    29023.311    33.844298 
   22960    739.62342    -7939.551   -7857.0449    -519.2909     29026.64    33.879584 
   22970    732.90446   -7939.1974   -7857.4408   -502.98235    29028.564    33.925548 
   22980    740.67951   -7940.3788   -7857.7549   -811.23251    29029.061    33.974033 
   22990    746.60177   -7941.2759   -7857.9914   -1021.3364    29027.402    34.014737 
   23000    748.13513   -7941.6149   -7858.1593   -875.23765    29023.087    34.037279 
   23010    747.77078    -7941.669   -7858.2541   -536.47728    29016.478    34.032294 
   23020    751.66163   -7942.1183   -7858.2693   -258.15828    29008.414    34.002935 
   23030     757.3799   -7942.6961   -7858.2092   -269.35583    28999.576    33.968784 
   23040    745.27119   -7941.2056   -7858.0694   -356.32556    28990.014     33.94706 
   23050    739.50295   -7940.3202   -7857.8276   -591.65687    28979.459    33.939754 
   23060    752.08309    -7941.353    -7857.457   -787.17213    28967.331    33.942387 
   23070    762.24855   -7941.9858   -7856.9558   -735.37964    28953.153    33.951333 
   23080    769.24797   -7942.1546   -7856.3438   -627.33987    28937.006    33.961405 
   23090    775.10582   -7942.1083    -7855.644   -657.93828    28919.134    33.963346 
   23100    790.70735   -7943.1021   -7854.8975   -727.15828    28899.486     33.94927 
   23110    790.21427   -7942.2957   -7854.1461   -451.35475     28877.98    33.922192 
   23120    793.11328   -7941.9103   -7853.4373   -201.58994    28855.247    33.893924 
   23130    797.04029   -7941.7094   -7852.7983   -244.03059    28831.888    33.872105 
   23140    781.75376   -7939.4413   -7852.2354   -48.492597     28807.94    33.849967 
   23150    776.84877   -7938.3938   -7851.7352     75.53793    28783.825    33.819319 
   23160    786.06518    -7938.965   -7851.2782    24.140747    28759.845    33.783615 
   23170    790.45659   -7939.0494   -7850.8728    86.350131     28735.95     33.75166 
   23180    790.22982   -7938.6826   -7850.5313    277.83393    28712.313    33.728138 
   23190    780.75103   -7937.3298   -7850.2358    420.56837    28689.404    33.709526 
   23200    792.05386   -7938.3238    -7849.969    424.34744    28667.564     33.68511 
   23210    808.56408   -7939.9337   -7849.7371    592.91736     28646.88    33.647204 
   23220    817.34565   -7940.7482   -7849.5721    831.37913    28627.773    33.597407 
   23230    816.62214   -7940.5826   -7849.4872    909.46707    28610.799    33.545894 
   23240    805.70677    -7939.348   -7849.4702    863.30271    28596.172    33.502448 
   23250    796.34311   -7938.3236   -7849.4904    559.06525    28583.717    33.468971 
   23260    802.99281    -7939.112   -7849.5369    317.25235    28572.731    33.441865 
   23270    804.60805   -7939.3633    -7849.608    463.20137    28562.662    33.421751 
   23280    815.01281   -7940.6405   -7849.7246    756.75554    28553.835     33.41247 
   23290    818.68299   -7941.2254   -7849.9001    944.50853    28546.957    33.415764 
   23300    815.75771    -7941.148    -7850.149    1091.6391    28542.523    33.431568 
   23310    797.49069   -7939.4089   -7850.4476    1301.2032     28540.95     33.46295 
   23320     789.7846   -7938.8741   -7850.7724    1251.5026    28542.698    33.513781 
   23330    768.89284    -7936.856   -7851.0848    1177.2174    28547.714    33.583142 
   23340    765.10375   -7936.7054   -7851.3569    974.76007    28555.786    33.658913 
   23350    775.71222   -7938.1185   -7851.5867    731.18835    28566.417    33.728769 
   23360    784.89798   -7939.3478   -7851.7913    557.65346    28579.004    33.788858 
   23370    793.45796   -7940.5086   -7851.9972    433.08935    28593.124    33.837221 
   23380    781.34407   -7939.3705   -7852.2104    255.44636    28608.412    33.873627 
   23390    769.32354   -7938.2332    -7852.414    118.49652    28624.434    33.897874 
   23400    764.26972   -7937.8388   -7852.5833    79.754354    28640.844    33.917818 
   23410    772.27201   -7938.8626   -7852.7145   -11.181229    28657.523     33.95092 
   23420    771.16126   -7938.8319   -7852.8077    -71.90538     28674.26    34.001496 
   23430    762.52718   -7937.9319   -7852.8708    38.276482    28690.919    34.062352 
   23440    755.32384   -7937.1398   -7852.8823    215.72477    28707.781    34.130478 
   23450    772.86867   -7939.0488   -7852.8341    111.45043    28725.233    34.200244 
   23460     795.5729   -7941.4892   -7852.7419    -188.3184     28743.02    34.265022 
   23470    803.54196   -7942.2762   -7852.6399   -372.49762    28760.429    34.328821 
   23480    806.72423   -7942.5468   -7852.5555   -455.35154    28776.961    34.398696 
   23490    791.21961   -7940.7507    -7852.489    -385.3548    28792.418    34.476393 
   23500     789.1489   -7940.4623   -7852.4315    -543.8118    28806.856     34.56177 
   23510    784.43501   -7939.8614   -7852.3565   -730.46834    28819.922    34.655473 
   23520    783.27211   -7939.6343   -7852.2591   -820.17712     28831.14    34.745292 
   23530    783.00623   -7939.4755     -7852.13   -875.12257    28840.253       34.821 
   23540    783.80458   -7939.3987   -7851.9641   -941.69966    28847.099    34.887866 
   23550    783.91073   -7939.2034    -7851.757   -1032.2625    28851.467    34.945369 
   23560    782.63287   -7938.8128   -7851.5089   -873.29669    28853.187    34.990279 
   23570    787.73556   -7939.0927   -7851.2197   -672.76494    28852.597    35.027095 
   23580    794.39711   -7939.5147   -7850.8985   -630.27983    28850.166     35.06871 
   23590    790.91122   -7938.7868   -7850.5595   -556.92941    28846.053    35.120826 
   23600     778.3946   -7937.0308   -7850.1997   -251.57551     28840.49    35.179036 
   23610    795.71173   -7938.5707   -7849.8079   -104.04128    28834.181    35.234404 
   23620    821.24068   -7941.0178   -7849.4072    12.295811    28827.577    35.278295 
   23630     806.6925   -7939.0376   -7849.0498    185.99344    28820.993    35.309033 
   23640    793.60773   -7937.2671    -7848.739    115.30542    28814.801    35.327542 
   23650    787.71968   -7936.3083    -7848.437    16.270898    28808.869    35.339058 
   23660    794.96696   -7936.8125   -7848.1327   -116.34308    28802.921    35.351179 
   23670    798.32995   -7936.8875   -7847.8326   -206.94454    28796.632    35.361372 
   23680    796.01319   -7936.3444   -7847.5479   -130.15502    28789.791    35.357099 
   23690    810.96023   -7937.7448    -7847.281   -124.74064     28782.53     35.33844 
   23700    822.23661   -7938.7783   -7847.0565   -308.05672    28774.821    35.318149 
   23710     817.2649   -7938.0667   -7846.8996   -330.03425    28766.263    35.305106 
   23720    822.78417    -7938.593   -7846.8102   -179.01899    28756.783    35.304745 
   23730     849.3742   -7941.5606   -7846.8116    44.198948     28746.74     35.31227 
   23740    850.09483   -7941.7803   -7846.9509    383.50386    28736.737    35.323904 
   23750    833.75244   -7940.2487   -7847.2424    423.83705    28727.566    35.339995 
   23760    822.41836   -7939.4057   -7847.6637    201.95976    28719.348    35.354601 
   23770    793.80626   -7936.7168   -7848.1665    139.83687    28711.606    35.366459 
   23780    767.19936   -7934.2645   -7848.6823    144.54014    28704.158    35.380598 
   23790    763.23562   -7934.3018   -7849.1617    93.080315     28696.97    35.405947 
   23800     766.6711   -7935.1175   -7849.5942    289.79893    28690.011     35.44626 
   23810    763.45851   -7935.1434   -7849.9784    582.63659    28683.748    35.492458 
   23820       750.61   -7934.0317      -7850.3    653.71243    28678.873    35.535365 
   23830    745.90247   -7933.7501   -7850.5436     407.8117    28675.584    35.573243 
   23840    755.47439   -7934.9783    -7850.704   -43.187763    28673.275    35.604904 
   23850    770.69567   -7936.7737   -7850.8014   -297.98206    28670.873    35.627458 
   23860    783.19333   -7938.2325   -7850.8661    -301.1565    28667.712    35.643047 
   23870    791.29838   -7939.1931   -7850.9226   -176.91751    28663.738    35.658853 
   23880    797.78471   -7939.9883   -7850.9942    -224.6471    28659.169    35.677317 
   23890     796.1739   -7939.9026   -7851.0882   -167.96878    28653.983    35.695608 
   23900    796.27273   -7940.0395   -7851.2141   -98.797469    28648.269    35.709775 
   23910     784.2566   -7938.8461   -7851.3611   -110.53603    28642.169    35.715812 
   23920    775.79524   -7938.0583   -7851.5172   -158.70575    28635.655    35.713827 
   23930    766.08951   -7937.1171   -7851.6587   -38.930642    28628.632    35.709587 
   23940    764.02327   -7936.9948   -7851.7669    233.12157    28621.399    35.706735 
   23950    766.25789   -7937.3135   -7851.8363    495.54061    28614.637    35.704926 
   23960    768.77923   -7937.6227   -7851.8642      513.936    28608.987     35.70271 
   23970    789.21613   -7939.9038   -7851.8656     308.5182    28604.524     35.69722 
   23980    798.68489   -7940.9607   -7851.8662    258.32629    28600.821    35.686123 
   23990    795.08487   -7940.5841   -7851.8912    381.00995    28597.754    35.672081 
   24000    791.74489   -7940.2669   -7851.9466    520.39385    28595.616    35.664602 
   24010    783.30314   -7939.4019   -7852.0232    666.32775    28594.804    35.673263 
   24020    777.76226    -7938.873   -7852.1125    659.36645    28595.694    35.700358 
   24030    765.34981    -7937.563   -7852.1871    560.25682    28598.343    35.732379 
   24040    765.05956   -7937.5757   -7852.2322    293.29942    28602.501     35.75494 
   24050    753.28351   -7936.2514   -7852.2215    328.55597    28607.632    35.764211 
   24060    748.39529   -7935.6224   -7852.1378     474.1086    28613.789    35.764976 
   24070    750.43989   -7935.6695   -7851.9568    442.41611    28621.325    35.767389 
   24080    753.31171    -7935.704   -7851.6709    374.78572    28630.259     35.77813 
   24090    768.53906   -7937.0134   -7851.2817        92.02    28640.408    35.799525 
   24100    792.25191   -7939.1869   -7850.8101   -266.02604    28651.093    35.821304 
   24110    795.75192   -7939.0718   -7850.3044   -265.91615    28661.484    35.827918 
   24120    787.13908   -7937.6098   -7849.8032    72.512428    28671.574     35.81961 
   24130    777.25693   -7936.0054   -7849.3012    508.57606    28682.186    35.807591 
   24140    768.65697    -7934.529   -7848.7842    1031.0347    28694.519    35.798669 
   24150    775.27597   -7934.7256   -7848.2424    1269.3373    28709.934    35.796479 
   24160    794.87541    -7936.354   -7847.6844    1253.7114    28729.188    35.807507 
   24170    809.20858   -7937.4196   -7847.1512    1071.8908    28752.377    35.836719 
   24180     807.8131   -7936.7946   -7846.6818    780.06222     28779.17    35.880373 
   24190    803.71749   -7935.9358   -7846.2799    382.43661    28808.901    35.930377 
   24200    793.48287   -7934.4397   -7845.9255    199.90888    28840.695    35.985787 
   24210    794.39886   -7934.2217   -7845.6053    114.55664    28874.074    36.045747 
   24220     796.0475   -7934.1103     -7845.31    133.09006     28908.85     36.10875 
   24230    785.97613   -7932.7192   -7845.0424    280.81889    28945.124    36.178313 
   24240    785.06661    -7932.363   -7844.7876    141.61345    28983.218    36.256166 
   24250    782.19448   -7931.7819    -7844.527   -71.662565    29022.883    36.335605 
   24260    797.71564   -7933.2465   -7844.2602   -357.99357    29063.542    36.410038 
   24270    812.86801    -7934.684   -7844.0074   -574.94822    29104.435    36.479139 
   24280    807.90111   -7933.9237   -7843.8011   -512.25776    29145.038    36.546198 
   24290    807.90025   -7933.7714   -7843.6489   -738.83889     29185.31    36.621792 
   24300    793.92002   -7932.0909    -7843.528   -914.61747    29224.709    36.715666 
   24310    779.66208   -7930.3889   -7843.4164   -1047.6167    29262.685    36.820447 
   24320     789.2502   -7931.3355   -7843.2935   -1384.3688    29298.728    36.929472 
   24330     794.1039   -7931.7441   -7843.1606    -1676.953    29331.896    37.043143 
   24340    800.13668   -7932.2972   -7843.0408   -1895.6198     29361.27     37.15319 
   24350    804.58026   -7932.6999   -7842.9477   -2017.4439    29386.139    37.250338 
   24360    799.13827   -7932.0398   -7842.8948   -1896.8642    29406.071    37.331407 
   24370    794.09381   -7931.4591   -7842.8767   -1699.4227    29421.206    37.390349 
   24380    803.76087   -7932.5476   -7842.8869   -1718.2783    29431.894    37.426686 
   24390    814.47463   -7933.7994   -7842.9435   -1830.2741    29438.009    37.443204 
   24400    809.73765   -7933.4024    -7843.075   -1716.6344    29439.215    37.441146 
   24410    798.79226    -7932.392   -7843.2855   -1444.7889    29435.692    37.420378 
   24420    791.47258   -7931.8471   -7843.5572   -1236.9966    29428.035    37.385758 
   24430    788.81231   -7931.8752    -7843.882   -1120.3627    29416.738    37.346963 
   24440     785.2545   -7931.8596   -7844.2633   -1034.7875    29402.072    37.313761 
   24450    778.56456    -7931.543    -7844.693   -1020.3545    29384.213    37.294012 
   24460    792.46412   -7933.5895    -7845.189   -1249.6709    29363.077    37.288398 
   24470    793.31358   -7934.2617   -7845.7664   -1303.9786    29338.106    37.292176 
   24480    789.73859   -7934.5207   -7846.4242   -1253.9528    29309.071     37.30065 
   24490    781.76615   -7934.3456   -7847.1384    -1168.009    29276.054    37.300621 
   24500    773.15874   -7934.1117   -7847.8647   -969.83864    29239.273    37.277384 
   24510    763.93505   -7933.7796   -7848.5615   -633.26417    29199.238    37.232413 
   24520    754.00417   -7933.2835   -7849.1732   -128.79049    29156.875    37.183686 
   24530    755.93477   -7934.0144   -7849.6887    167.59259    29113.471    37.150465 
   24540    753.38532   -7934.1388   -7850.0975    340.23761    29069.904    37.138891 
   24550    775.77101   -7936.9692   -7850.4308    273.69364    29026.616    37.139132 
   24560    778.15168    -7937.526    -7850.722     321.9398    28983.559    37.135981 
   24570    757.40308   -7935.4577   -7850.9683    571.78139    28940.913    37.115616 
   24580    755.13594   -7935.3849   -7851.1483    604.52929    28899.268    37.076682 
   24590     759.2618   -7935.9541   -7851.2573    711.63535    28858.853    37.026644 
   24600    771.11977   -7937.3241   -7851.3046    861.79336    28819.975    36.973862 
   24610    790.06163   -7939.4462   -7851.3137    957.20152    28783.055    36.927383 
   24620    803.42086   -7940.9412   -7851.3184    982.89082    28748.388    36.896691 
   24630    811.43388   -7941.8728   -7851.3562    974.66809    28716.091    36.880606 
   24640    798.63406   -7940.5225   -7851.4336    991.93693    28686.185    36.866541 
   24650    788.84706   -7939.5394   -7851.5424    879.25998    28658.692     36.83704 
   24660    784.89256   -7939.2179   -7851.6619    885.68649    28633.416    36.787931 
   24670    790.39099   -7939.9538   -7851.7845    946.92567    28610.372    36.730074 
   24680     795.5588   -7940.6642   -7851.9184    1048.2861    28589.736    36.673721 
   24690    788.56156   -7940.0386   -7852.0734    1279.8953    28571.823    36.630878 
   24700    778.46871   -7939.0814   -7852.2421    1455.2953    28557.206    36.607706 
   24710    767.12297   -7937.9791   -7852.4054    1501.9482    28546.341    36.597576 
   24720    777.34155    -7939.261   -7852.5474    1260.9242    28539.318    36.586441 
   24730    792.73841   -7941.1126   -7852.6814    998.73058    28535.572    36.561665 
   24740    788.22451   -7940.7614   -7852.8338    977.01644    28534.486    36.518854 
   24750    792.51554   -7941.4282   -7853.0219    764.79514    28535.884    36.463563 
   24760    792.94204   -7941.7194   -7853.2655    790.72536    28539.345    36.405824 
   24770    788.85205    -7941.589   -7853.5914    1003.7571    28544.894    36.355457 
   24780    783.97325   -7941.4633   -7854.0099    1317.9641    28553.054    36.314027 
   24790     775.3052   -7940.9985    -7854.512    1599.4511    28564.619    36.279144 
   24800     773.4394   -7941.3685   -7855.0902    1429.6464    28580.215    36.243503 
   24810    765.89285   -7941.1625    -7855.726    1160.4001    28599.472     36.20189 
   24820    749.17317   -7939.9443    -7856.373    1094.6694    28621.773    36.159816 
   24830    752.59183   -7940.9472   -7856.9945    923.85253    28646.834    36.128209 
   24840     755.5418   -7941.8576   -7857.5758    925.00232    28674.258    36.117387 
   24850    753.92869   -7942.2107   -7858.1088    1063.1849    28704.022    36.127504 
   24860    749.51382   -7942.1912   -7858.5818    1151.3107    28736.419    36.150304 
   24870    746.15286    -7942.202   -7858.9675    1067.0705    28771.644    36.186357 
   24880    765.95328   -7944.7167   -7859.2735     689.3023     28809.41    36.236867 
   24890    762.89024   -7944.6184   -7859.5168    527.15318    28848.824    36.289625 
   24900    747.11752    -7943.039   -7859.6969     377.7126    28889.348    36.328689 
   24910    746.63964   -7943.0796   -7859.7908    107.26107    28930.517    36.364863 
   24920    749.56196   -7943.4043   -7859.7895   -65.083408    28971.663    36.418593 
   24930     745.3027   -7942.8333   -7859.6936    -269.3319    29012.268    36.485675 
   24940    747.16574   -7942.8503   -7859.5028   -445.25127    29051.771    36.542246 
   24950    754.03569   -7943.3281   -7859.2143   -362.02993    29089.763    36.575892 
   24960    763.04298   -7943.9583   -7858.8397   -260.99282    29126.396    36.592108 
   24970    769.16963   -7944.1943   -7858.3923   -176.00789     29161.94    36.607928 
   24980    757.81855    -7942.419   -7857.8832  0.030233008    29196.652    36.640317 
   24990    761.98651   -7942.3058   -7857.3051   -77.673299     29230.93    36.696818 
   25000    778.44549   -7943.4837    -7856.647   -312.96608    29264.617    36.772371 
Loop time of 17622.8 on 16 procs for 20000 steps with 864 atoms

Performance: 0.098 ns/day, 244.762 hours/ns, 1.135 timesteps/s
96.1% CPU use with 16 MPI tasks x 1 OpenMP threads

MPI task timing breakdown:
Section |  min time  |  avg time  |  max time  |%varavg| %total
---------------------------------------------------------------
Pair    | 10537      | 14448      | 15935      |1291.7 | 81.98
Bond    | 0.0023227  | 0.0060139  | 0.010136   |   3.3 |  0.00
Neigh   | 0.231      | 0.24759    | 0.28471    |   2.9 |  0.00
Comm    | 730.96     | 2148.1     | 6281.9     |3479.9 | 12.19
Output  | 2.2204     | 2.3885     | 4.8515     |  41.1 |  0.01
Modify  | 798.82     | 1024.1     | 1382.1     | 590.9 |  5.81
Other   |            | 0.1668     |            |       |  0.00

Nlocal:        54.0000 ave          59 max          48 min
Histogram: 2 2 1 2 0 1 2 1 0 5
Nghost:        409.562 ave         435 max         382 min
Histogram: 1 0 3 0 3 1 5 1 1 1
Neighs:         0.00000 ave           0 max           0 min
Histogram: 16 0 0 0 0 0 0 0 0 0
FullNghs:      1547.38 ave        1778 max        1301 min
Histogram: 2 1 2 2 1 0 3 0 4 1

Total # of neighbors = 24758
Ave neighs/atom = 28.655093
Ave special neighs/atom = 0.0000000
Neighbor list builds = 2000
Dangerous builds = 2000
Total wall time: 6:05:45
