LAMMPS (2 Aug 2023)
OMP_NUM_THREADS environment is not set. Defaulting to 1 thread. (src/comm.cpp:98)
  using 1 OpenMP thread(s) per MPI task
Reading restart file ...
  restart file = 2 Aug 2023, LAMMPS = 2 Aug 2023
  restoring atom style full from restart
  orthogonal box = (-0.73569318 -0.82717062 -9.2097329) to (24.671166 24.762643 81.01615)
  1 by 1 by 1 MPI processor grid
  pair style chgnet/gpu stores no restart info
  1536 atoms
Finding 1-2 1-3 1-4 neighbors ...
  special bond factors lj:    0        0        0       
  special bond factors coul:  0        0        0       
     0 = max # of 1-2 neighbors
     0 = max # of 1-3 neighbors
     0 = max # of 1-4 neighbors
     1 = max # of special neighbors
  special bonds CPU = 0.014 seconds
  read_restart CPU = 0.019 seconds
Resetting peratom fix info from restart file:
  fix style: STORE/ATOM, fix ID: msd_COMPUTE_STORE
All restart file peratom fix info was re-assigned
Neighbor list info ...
  update: every = 1 steps, delay = 10 steps, check = yes
  max neighbors/atom: 2000, page size: 100000
  master list distance cutoff = 6.3
  ghost atom cutoff = 6.3
  binsize = 3.15, bins = 9 9 29
  1 neighbor lists, perpetual/occasional/extra = 1 0 0
  (1) pair chgnet/gpu, perpetual
      attributes: full, newton on
      pair build: full/bin
      stencil: full/bin/3d
      bin: standard
Setting up Verlet run ...
  Unit style    : metal
  Current step  : 20000
  Time step     : 0.001
Per MPI rank memory allocation (min/avg/max) = 6.519 | 6.519 | 6.519 Mbytes
   Step          Temp          PotEng         TotEng         Press          Volume        c_msd[4]   
     20000   1512.4261     -5388.1073     -5088.0203      2618.0912      58660.97       49.242492    
     20010   1521.4942     -5389.9365     -5088.0503      2461.3866      58661.128      49.35739     
     20020   1515.6445     -5388.8818     -5088.1563      2514.4537      58661.523      49.445333    
     20030   1508.7424     -5387.6917     -5088.3355      2722.1174      58662.173      49.523423    
     20040   1491.8288     -5384.536      -5088.5358      2996.7182      58663.361      49.610472    
     20050   1485.5334     -5383.4824     -5088.7313      3221.6634      58665.356      49.704688    
     20060   1506.3796     -5387.803      -5088.9157      3242.2503      58667.995      49.794641    
     20070   1509.4412     -5388.639      -5089.1443      3228.7591      58671.121      49.88575     
     20080   1491.663      -5385.3973     -5089.43        3227.919       58674.965      49.984566    
     20090   1471.8256     -5381.7627     -5089.7314      3003.0802      58679.932      50.085927    
     20100   1461.3173     -5379.9214     -5089.9751      2638.5147      58686.141      50.193746    
     20110   1458.0043     -5379.4233     -5090.1344      2210.8179      58693.113      50.31271     
     20120   1443.7869     -5376.627      -5090.159       2064.2406      58700.264      50.44105     
     20130   1451.9124     -5378.1152     -5090.035       2040.8924      58707.195      50.576256    
     20140   1463.1911     -5380.0397     -5089.7216      2154.9647      58713.732      50.725167    
     20150   1462.4174     -5379.401      -5089.2364      2478.8187      58720.035      50.892481    
     20160   1456.2973     -5377.4843     -5088.534       2817.8017      58726.378      51.069614    
     20170   1484.5399     -5382.1432     -5087.5892      2684.5353      58733.02       51.247366    
     20180   1494.8943     -5383.0327     -5086.4243      2774.9312      58740.363      51.423186    
     20190   1480.7054     -5378.8953     -5085.1021      2989.0077      58748.89       51.595465    
     20200   1472.0573     -5375.6887     -5083.6115      3004.483       58758.635      51.757127    
     20210   1478.0792     -5375.2163     -5081.9442      2728.3734      58769.19       51.91544     
     20220   1503.3256     -5378.4518     -5080.1705      2311.6134      58780.11       52.080632    
     20230   1553.8243     -5386.7234     -5078.4224      1841.3693      58790.962      52.252479    
     20240   1566.3391     -5387.6946     -5076.9105      1783.5601      58801.273      52.420107    
     20250   1575.3046     -5388.364      -5075.801       1656.3089      58810.839      52.579472    
     20260   1563.9867     -5385.3922     -5075.0748      1617.5509      58819.691      52.728286    
     20270   1545.9122     -5381.4148     -5074.6837      1788.0454      58827.74       52.861198    
     20280   1541.5165     -5380.4194     -5074.5605      2006.3808      58834.889      52.982094    
     20290   1522.3485     -5376.6914     -5074.6357      2318.7505      58841.188      53.099142    
     20300   1503.3912     -5373.1578     -5074.8635      2653.6233      58847.06       53.214377    
     20310   1503.9644     -5373.5867     -5075.1786      2762.9555      58853.222      53.33919     
     20320   1493.4801     -5371.8864     -5075.5585      2888.8326      58860.03       53.483358    
     20330   1477.6461     -5369.1533     -5075.9672      3009.7975      58867.65       53.639818    
     20340   1474.1321     -5368.8743     -5076.3853      2850.3536      58875.999      53.796244    
     20350   1471.4147     -5368.7318     -5076.7821      2699.1353      58884.722      53.947333    
     20360   1479.0858     -5370.6167     -5077.1449      2505.617       58893.576      54.087993    
     20370   1506.0827     -5376.3889     -5077.5605      2301.8904      58902.56       54.207768    
     20380   1510.8583     -5377.8512     -5078.0753      2395.7447      58911.911      54.333684    
     20390   1515.5219     -5379.4453     -5078.7441      2577.5268      58922.015      54.474751    
     20400   1504.5589     -5378.1064     -5079.5804      2771.0478      58933.24       54.613567    
     20410   1507.5193     -5379.7039     -5080.5904      2759.9801      58945.954      54.749047    
     20420   1494.0474     -5378.1877     -5081.7474      2771.1434      58960.249      54.889076    
     20430   1512.0891     -5383.088      -5083.0679      2496.6048      58976.089      55.033857    
     20440   1495.7935     -5381.3262     -5084.5393      2548.4474      58993.118      55.194508    
     20450   1481.4636     -5380.0452     -5086.1016      2683.6215      59011.087      55.36513     
     20460   1477.7602     -5380.8541     -5087.6453      2617.7326      59029.737      55.539181    
     20470   1494.2028     -5385.6193     -5089.148       2295.9332      59048.602      55.718661    
     20480   1497.088      -5387.6294     -5090.5857      2068.2443      59067.245      55.900914    
     20490   1489.2731     -5387.4287     -5091.9356      1889.9867      59085.677      56.083525    
     20500   1483.7748     -5387.5239     -5093.1218      1805.9695      59104.185      56.267139    
     20510   1472.2546     -5386.2356     -5094.1192      1858.8539      59123.061      56.447991    
     20520   1476.6165     -5387.9231     -5094.9412      1716.7716      59142.178      56.629318    
     20530   1483.5975     -5389.9724     -5095.6054      1451.4486      59160.824      56.810687    
     20540   1462.6106     -5386.3521     -5096.1492      1424.5008      59178.279      56.981732    
     20550   1456.9409     -5385.6471     -5096.5691      1142.2358      59194.359      57.142596    
     20560   1460.2649     -5386.6267     -5096.8892      710.18134      59208.871      57.288004    
     20570   1448.9862     -5384.6184     -5097.1188      642.72074      59221.356      57.425871    
     20580   1436.5744     -5382.3058     -5097.2689      828.17025      59231.593      57.561124    
     20590   1438.3809     -5382.7112     -5097.3158      868.44877      59239.672      57.689816    
     20600   1445.0208     -5383.9794     -5097.2666      745.47758      59245.768      57.81757     
     20610   1471.088      -5389.0638     -5097.1789      367.52919      59249.538      57.936716    
     20620   1485.9436     -5391.9532     -5097.1208      123.45547      59250.238      58.040208    
     20630   1470.2926     -5388.8591     -5097.132       329.83975      59247.628      58.133098    
     20640   1458.3952     -5386.5593     -5097.1928      538.08187      59242.022      58.223256    
     20650   1438.3721     -5382.627      -5097.2333      875.07897      59233.764      58.317921    
     20660   1443.7049     -5383.663      -5097.2112      1182.5279      59223.385      58.403764    
     20670   1452.3889     -5385.2886     -5097.1138      1407.1279      59211.355      58.474303    
     20680   1485.2569     -5391.7211     -5097.0248      1349.9745      59197.88       58.539093    
     20690   1488.2064     -5392.2913     -5097.0098      1322.9827      59182.931      58.60476     
     20700   1471.7209     -5389.0935     -5097.083       1378.9432      59166.59       58.668228    
     20710   1463.8899     -5387.6719     -5097.2151      1542.295       59149.013      58.722516    
     20720   1475.9798     -5390.2493     -5097.3937      1727.1163      59130.041      58.756474    
     20730   1468.7685     -5389.0664     -5097.6417      1919.8676      59109.465      58.764524    
     20740   1472.5439     -5390.1354     -5097.9616      1800.635       59087.278      58.755921    
     20750   1485.37       -5393.1072     -5098.3885      1495.7697      59063.603      58.735171    
     20760   1468.8162     -5390.3734     -5098.9392      1432.191       59038.092      58.702673    
     20770   1470.9712     -5391.4607     -5099.5989      1303.0566      59010.599      58.674731    
     20780   1490.9215     -5396.2207     -5100.4005      1079.2129      58981.564      58.663894    
     20790   1497.1148     -5398.4487     -5101.3997      836.40304      58951.351      58.658388    
     20800   1491.1916     -5398.5286     -5102.6548      831.38611      58919.771      58.642925    
     20810   1456.3144     -5393.0625     -5104.1089      1310.3071      58886.572      58.615053    
     20820   1416.5268     -5386.6454     -5105.5862      1928.3887      58852.228      58.570982    
     20830   1419.9402     -5388.6705     -5106.9341      1917.3493      58817.617      58.515454    
     20840   1434.6319     -5392.8303     -5108.1788      1732.2524      58782.974      58.451557    
     20850   1445.1352     -5396.0962     -5109.3607      1550.2264      58748.054      58.38689     
     20860   1444.1851     -5397.0392     -5110.4922      1433.1192      58712.575      58.341178    
     20870   1428.6131     -5394.9888     -5111.5315      1591.4905      58676.304      58.311847    
     20880   1431.7105     -5396.5316     -5112.4597      1743.647       58639.01       58.27684     
     20890   1444.6437     -5399.9121     -5113.2741      1813.4236      58600.624      58.220218    
     20900   1448.8926     -5401.5176     -5114.0365      1906.0771      58561.228      58.136863    
     20910   1430.279      -5398.5        -5114.7122      1935.3688      58521.124      58.041555    
     20920   1411.306      -5395.3066     -5115.2833      2068.6754      58480.51       57.950555    
     20930   1394.3442     -5392.3455     -5115.6876      2300.7627      58439.503      57.868041    
     20940   1391.4527     -5391.9781     -5115.894       2451.0506      58398.145      57.789465    
     20950   1421.7983     -5398.0463     -5115.9411      2235.795       58356.279      57.703608    
     20960   1427.2172     -5399.0845     -5115.9041      2241.703       58313.709      57.612976    
     20970   1402.2065     -5394.0355     -5115.8177      2596.9087      58270.616      57.514141    
     20980   1380.9413     -5389.567      -5115.5685      2856.3093      58227.837      57.408558    
     20990   1390.232      -5390.9941     -5115.1522      2757.4626      58186.165      57.299787    
     21000   1417.9534     -5395.9501     -5114.6078      2443.0809      58145.828      57.192259    
     21010   1420.1653     -5395.7842     -5114.0031      2398.2202      58106.562      57.087179    
     21020   1427.7215     -5396.6847     -5113.4043      2516.7279      58068.125      56.987359    
     21030   1424.4342     -5395.4319     -5112.8037      2856.1784      58030.641      56.888031    
     21040   1423.5209     -5394.65       -5112.2031      3055.6302      57994.29       56.781225    
     21050   1443.5791     -5398.0583     -5111.6316      3119.8546      57959.164      56.679897    
     21060   1443.1474     -5397.4438     -5111.1027      3392.8598      57925.505      56.598436    
     21070   1442.0141     -5396.7766     -5110.6604      3714.7349      57893.725      56.543456    
     21080   1438.4926     -5395.693      -5110.2755      3875.4169      57864.038      56.516609    
     21090   1450.0193     -5397.6691     -5109.9645      3624.268       57836.368      56.514224    
     21100   1467.8511     -5400.9825     -5109.7399      3191.3334      57810.302      56.517366    
     21110   1492.4263     -5405.8015     -5109.6828      2730.7701      57785.468      56.52331     
     21120   1489.3417     -5405.3167     -5109.8099      2562.7772      57761.532      56.53056     
     21130   1489.7343     -5405.7246     -5110.14        2613.4143      57738.238      56.533164    
     21140   1472.2324     -5402.7217     -5110.6097      2818.1551      57715.521      56.535512    
     21150   1460.2046     -5400.8767     -5111.1512      2840.9049      57693.549      56.552412    
     21160   1467.2602     -5402.8411     -5111.7156      2619.354       57672.652      56.589771    
     21170   1481.8465     -5406.3728     -5112.3532      2397.7273      57653.276      56.635946    
     21180   1470.2902     -5404.8018     -5113.0751      2492.7678      57635.507      56.687212    
     21190   1470.499      -5405.6246     -5113.8566      2599.5062      57619.202      56.743964    
     21200   1469.8495     -5406.3054     -5114.6662      2807.5426      57604.269      56.807997    
     21210   1462.2658     -5405.655      -5115.5205      3069.1613      57590.552      56.877032    
     21220   1453.1189     -5404.6879     -5116.3683      3266.9043      57577.809      56.946037    
     21230   1426.8355     -5400.2952     -5117.1906      3564.6012      57565.86       57.006074    
     21240   1411.9512     -5398.0236     -5117.8722      3731.3736      57554.655      57.067929    
     21250   1440.8142     -5404.3367     -5118.4585      3478.2715      57544.161      57.145433    
     21260   1451.6317     -5407.0408     -5119.0162      3231.8512      57534.126      57.231383    
     21270   1465.6795     -5410.4465     -5119.6347      3100.1146      57524.134      57.314718    
     21280   1449.8499     -5407.9878     -5120.3168      3207.777       57513.66       57.376631    
     21290   1442.7642     -5407.2935     -5121.0284      3030.9352      57502.268      57.411597    
     21300   1456.7788     -5410.8212     -5121.7754      2705.7609      57489.452      57.425714    
     21310   1448.4074     -5409.9606     -5122.5758      2689.6873      57475.111      57.435217    
     21320   1451.6168     -5411.432      -5123.4104      2619.4279      57459.59       57.442554    
     21330   1451.3133     -5412.2417     -5124.2804      2650.555       57443.34       57.447283    
     21340   1462.2238     -5415.3226     -5125.1965      2506.5158      57426.843      57.454155    
     21350   1483.0805     -5420.4847     -5126.2203      2229.0156      57410.097      57.458343    
     21360   1471.1723     -5419.2861     -5127.3845      2280.8693      57392.677      57.452964    
     21370   1457.8478     -5417.874      -5128.6161      2179.4755      57374.36       57.429942    
     21380   1449.7233     -5417.5129     -5129.8671      1915.4879      57355.11       57.404303    
     21390   1433.9581     -5415.6031     -5131.0853      1860.3239      57334.981      57.394832    
     21400   1401.7361     -5410.3037     -5132.1792      2294.5441      57314.411      57.394326    
     21410   1369.4154     -5404.7853     -5133.0737      2951.309       57294.306      57.399101    
     21420   1336.4741     -5398.8281     -5133.6525      3477.4291      57275.776      57.416643    
     21430   1339.0186     -5399.6067     -5133.9262      3444.5171      57259.414      57.441535    
     21440   1359.3198     -5403.6603     -5133.9518      3216.055       57244.989      57.474262    
     21450   1366.1084     -5404.8556     -5133.8001      3299.6506      57232.146      57.521253    
     21460   1349.3053     -5401.1858     -5133.4643      3609.9945      57220.886      57.56962     
     21470   1378.6662     -5406.5387     -5132.9916      3426.6316      57211.289      57.60207     
     21480   1394.4618     -5409.0806     -5132.3994      3276.0302      57203.205      57.638466    
     21490   1408.079      -5411.1672     -5131.7842      3184.7807      57196.771      57.697242    
     21500   1407.9585     -5410.5242     -5131.165       3274.9688      57192.09       57.783381    
     21510   1412.202      -5410.7725     -5130.5714      3300.9222      57189.215      57.893815    
     21520   1430.1077     -5413.7717     -5130.0179      3225.4771      57188.079      58.003288    
     21530   1451.2359     -5417.4972     -5129.5512      3021.8793      57188.212      58.098341    
     21540   1430.6823     -5413.0913     -5129.2234      3182.4405      57189.019      58.199417    
     21550   1423.1866     -5411.3899     -5129.0093      3120.7495      57190.391      58.323349    
     21560   1419.0794     -5410.4103     -5128.8446      3094.4987      57192.227      58.464047    
     21570   1420.3669     -5410.5513     -5128.7301      3220.9952      57194.68       58.610619    
     21580   1425.2432     -5411.4514     -5128.6627      3494.9324      57198.121      58.759008    
     21590   1432.8836     -5412.9774     -5128.6728      3575.1013      57203.12       58.914298    
     21600   1430.0137     -5412.52       -5128.7848      3446.9375      57209.839      59.078287    
     21610   1433.9945     -5413.5304     -5129.0054      3217.53        57218.089      59.234811    
     21620   1440.6693     -5415.1974     -5129.348       2984.236       57227.441      59.382367    
     21630   1450.393      -5417.6572     -5129.8785      2735.5563      57237.33       59.534719    
     21640   1437.1691     -5415.7701     -5130.6152      2621.9997      57247.298      59.694095    
     21650   1419.815      -5413.2539     -5131.5423      2477.9918      57257.229      59.861872    
     21660   1418.5105     -5414.0962     -5132.6434      2337.9935      57267.014      60.042236    
     21670   1409.7142     -5413.593      -5133.8855      2315.5989      57276.526      60.225438    
     21680   1422.8187     -5417.5968     -5135.2892      2262.3256      57285.976      60.398807    
     21690   1423.4654     -5419.3217     -5136.8857      2493.8123      57295.847      60.56554     
     21700   1410.9952     -5418.5497     -5138.588       2801.6944      57306.735      60.73714     
     21710   1413.3431     -5420.7568     -5140.3293      2980.7993      57318.884      60.924782    
     21720   1401.3165     -5420.0552     -5142.0139      3111.8351      57332.234      61.133007    
     21730   1369.0858     -5415.1362     -5143.49        3335.1806      57346.719      61.349751    
     21740   1361.9667     -5414.8824     -5144.6487      3339.6498      57362.26       61.56207     
     21750   1369.7506     -5417.2606     -5145.4825      3134.1377      57378.72       61.778039    
     21760   1390.3601     -5421.9741     -5146.1068      2791.4512      57396.046      62.002784    
     21770   1374.4915     -5419.296      -5146.5772      2852.9081      57413.866      62.228585    
     21780   1356.5012     -5416.0312     -5146.882       3002.0727      57431.886      62.440531    
     21790   1353.4699     -5415.5643     -5147.0165      2860.2433      57449.917      62.625017    
     21800   1357.3001     -5416.3165     -5147.0087      2592.8114      57467.678      62.793642    
     21810   1345.3335     -5413.8127     -5146.8793      2472.1224      57484.819      62.951879    
     21820   1329.8097     -5410.4663     -5146.613       2343.6302      57501.04       63.093981    
     21830   1333.9211     -5410.8593     -5146.1902      2130.4628      57516.354      63.215845    
     21840   1354.3823     -5414.3551     -5145.6262      1917.3764      57530.944      63.334648    
     21850   1377.0377     -5418.1945     -5144.9704      1772.6074      57544.611      63.465493    
     21860   1380.7036     -5418.2607     -5144.3094      1861.5996      57556.911      63.602095    
     21870   1365.1058     -5414.5074     -5143.6509      2135.1774      57567.842      63.737632    
     21880   1361.9576     -5413.1979     -5142.966       2305.2537      57577.609      63.869       
     21890   1362.6552     -5412.5944     -5142.2241      2335.9487      57586.116      63.991067    
     21900   1378.4265     -5414.9359     -5141.4364      2138.3448      57593.083      64.111909    
     21910   1387.8845     -5416.0056     -5140.6295      1908.5549      57598.317      64.235256    
     21920   1397.0808     -5417.0786     -5139.8778      1661.837       57601.766      64.344155    
     21930   1408.8661     -5418.7427     -5139.2035      1555.4819      57603.424      64.429417    
     21940   1402.8684     -5416.9607     -5138.6115      1764.2356      57603.657      64.498038    
     21950   1416.2081     -5419.1338     -5138.1378      1857.2881      57603.084      64.55925     
     21960   1392.022      -5413.9548     -5137.7577      2211.3928      57601.871      64.609582    
     21970   1377.3505     -5410.719      -5137.4329      2431.6026      57600.112      64.644858    
     21980   1393.9992     -5413.7124     -5137.123       2221.2452      57597.947      64.680622    
     21990   1390.0732     -5412.6526     -5136.8421      2154.9847      57595.385      64.744463    
     22000   1374.2622     -5409.2523     -5136.579       2326.4321      57592.534      64.848257    
     22010   1381.6998     -5410.4711     -5136.322       2504.7843      57589.761      64.980148    
     22020   1379.1526     -5409.6833     -5136.0397      2620.2127      57587.146      65.122027    
     22030   1390.9996     -5411.7583     -5135.7641      2545.9954      57584.264      65.253993    
     22040   1396.2927     -5412.5662     -5135.5217      2532.4633      57580.776      65.370934    
     22050   1396.6793     -5412.4442     -5135.323       2571.2353      57576.718      65.476318    
     22060   1406.4549     -5414.2588     -5135.198       2566.0507      57572.097      65.564264    
     22070   1406.9605     -5414.3196     -5135.1585      2591.8954      57566.893      65.641539    
     22080   1414.4928     -5415.9053     -5135.2496      2532.9923      57561.032      65.723043    
     22090   1413.5122     -5415.9514     -5135.4904      2568.7194      57554.396      65.799285    
     22100   1397.8232     -5413.2667     -5135.9186      2704.5701      57546.837      65.853003    
     22110   1392.3388     -5412.7756     -5136.5157      2618.1764      57538.338      65.882428    
     22120   1385.3273     -5412.1454     -5137.2766      2492.4925      57529.05       65.891677    
     22130   1370.1731     -5410.0594     -5138.1975      2456.1595      57519.281      65.88144     
     22140   1387.2815     -5414.5503     -5139.2938      2209.8644      57509.356      65.880842    
     22150   1389.3816     -5416.2828     -5140.6096      2002.8901      57499.112      65.908362    
     22160   1379.0249     -5415.7811     -5142.1628      2047.3989      57488.143      65.958321    
     22170   1366.0745     -5414.9022     -5143.8535      2142.318       57476.154      66.020225    
     22180   1368.2425     -5417.0867     -5145.6078      2037.6262      57463.07       66.085847    
     22190   1349.9916     -5415.1501     -5147.2925      2010.6188      57448.904      66.141354    
     22200   1358.0559     -5418.312      -5148.8543      1933.6903      57433.585      66.181788    
     22210   1334.8797     -5415.0579     -5150.1986      2049.5753      57417.021      66.227295    
     22220   1323.2564     -5413.8208     -5151.2678      2181.8392      57399.453      66.275519    
     22230   1340.6506     -5418.0919     -5152.0876      2023.5234      57380.98       66.305384    
     22240   1341.8583     -5418.9569     -5152.713       2027.5012      57361.277      66.318479    
     22250   1338.9194     -5418.847      -5153.1863      2008.2003      57340.193      66.32606     
     22260   1352.7782     -5421.9309     -5153.5203      1744.4049      57317.93       66.321675    
     22270   1386.8843     -5428.9882     -5153.8105      1394.4658      57294.701      66.295502    
     22280   1394.0537     -5430.7427     -5154.1425      1370.8917      57270.551      66.255661    
     22290   1390.3092     -5430.4109     -5154.5536      1556.4786      57245.615      66.216311    
     22300   1369.0915     -5426.6514     -5155.004       1934.6154      57220.192      66.195113    
     22310   1375.1988     -5428.3521     -5155.4929      1880.3241      57194.614      66.203907    
     22320   1339.205      -5421.6676     -5155.9501      2118.8221      57168.863      66.233398    
     22330   1330.7585     -5420.3514     -5156.3099      2181.2959      57143.246      66.27082     
     22340   1326.6551     -5419.7791     -5156.5517      2108.2106      57117.963      66.288402    
     22350   1322.9701     -5419.177      -5156.6808      2195.7631      57092.835      66.273492    
     22360   1308.185      -5416.2378     -5156.6752      2453.7431      57067.638      66.232457    
     22370   1291.9589     -5412.8511     -5156.5079      2708.2678      57042.387      66.177542    
     22380   1305.6697     -5415.1996     -5156.136       2636.1153      57017.014      66.105665    
     22390   1322.5893     -5418.0154     -5155.5947      2540.2809      56991.247      66.023249    
     22400   1311.9141     -5415.2102     -5154.9077      2755.857       56965.186      65.940498    
     22410   1317.6898     -5415.5383     -5154.0898      2807.2505      56939.319      65.854499    
     22420   1326.7942     -5416.4147     -5153.1597      2730.5293      56913.709      65.76888     
     22430   1319.8754     -5414.0112     -5152.129       2703.7932      56888.149      65.693574    
     22440   1326.5665     -5414.2408     -5151.031       2719.5166      56862.645      65.615052    
     22450   1336.6785     -5415.0978     -5149.8816      2966.7675      56837.421      65.528464    
     22460   1337.523      -5414.1189     -5148.7352      3494.5648      56813.208      65.443209    
     22470   1357.7802     -5417.0596     -5147.6565      3801.8974      56790.941      65.369158    
     22480   1367.0084     -5417.9257     -5146.6916      3984.9373      56770.962      65.321155    
     22490   1382.528      -5420.2405     -5145.9271      4051.0654      56752.954      65.307886    
     22500   1401.5057     -5423.4551     -5145.3763      3877.0773      56736.406      65.311974    
     22510   1415.3447     -5425.9087     -5145.084       3725.0955      56720.825      65.318126    
     22520   1406.8601     -5424.1992     -5145.058       3666.309       56705.946      65.315312    
     22530   1376.5846     -5418.3362     -5145.2021      3872.2097      56691.835      65.306106    
     22540   1370.5377     -5417.3859     -5145.4516      3842.5048      56678.807      65.294178    
     22550   1371.3414     -5417.8304     -5145.7367      3798.1476      56666.836      65.291924    
     22560   1366.6079     -5417.2024     -5146.0478      3757.9764      56655.727      65.299143    
     22570   1383.9399     -5421.0106     -5146.4171      3584.7919      56645.499      65.301054    
     22580   1398.8196     -5424.4332     -5146.8874      3483.1132      56636.043      65.309425    
     22590   1379.9086     -5421.2798     -5147.4862      3738.3948      56627.101      65.329443    
     22600   1351.1837     -5416.2096     -5148.1154      4020.4013      56618.722      65.358168    
     22610   1359.0876     -5418.405      -5148.7426      3828.5015      56611.307      65.394508    
     22620   1350.6582     -5417.3306     -5149.3406      3614.4061      56604.994      65.438974    
     22630   1366.3282     -5421.0447     -5149.9456      3081.2086      56599.541      65.488209    
     22640   1369.2085     -5422.2546     -5150.5841      2864.641       56594.438      65.546927    
     22650   1355.6584     -5420.2412     -5151.2592      3043.2231      56589.509      65.615606    
     22660   1344.4282     -5418.6943     -5151.9405      3244.6802      56584.897      65.680236    
     22670   1340.5354     -5418.5662     -5152.5847      3188.5162      56580.655      65.729871    
     22680   1346.0684     -5420.2742     -5153.1949      2987.6131      56576.611      65.766219    
     22690   1350.3502     -5421.7152     -5153.7864      2901.107       56572.611      65.795706    
     22700   1335.2112     -5419.2986     -5154.3736      2910.7987      56568.738      65.830574    
     22710   1331.5523     -5419.1195     -5154.9205      2681.0087      56565.243      65.882286    
     22720   1329.4525     -5419.1917     -5155.4092      2484.1468      56562.176      65.956561    
     22730   1323.0657     -5418.3633     -5155.8481      2500.999       56559.414      66.039768    
     22740   1316.4228     -5417.4056     -5156.2085      2632.7083      56556.917      66.128204    
     22750   1321.1411     -5418.6335     -5156.5002      2812.6844      56554.581      66.235412    
     22760   1325.7026     -5419.7648     -5156.7264      2956.0701      56552.585      66.360655    
     22770   1356.5681     -5426.0966     -5156.934       2803.0434      56551.185      66.494035    
     22780   1390.4694     -5433.1157     -5157.2267      2629.1064      56550.285      66.623137    
     22790   1388.2978     -5433.1622     -5157.7041      2875.5848      56549.737      66.738294    
     22800   1374.2815     -5431.0594     -5158.3823      3267.5395      56549.87       66.836107    
     22810   1351.2626     -5427.2944     -5159.1846      3483.1379      56550.939      66.91786     
     22820   1309.8762     -5419.897      -5159.9988      3819.6449      56553.145      66.989581    
     22830   1306.1348     -5419.89       -5160.7342      3799.5427      56557.049      67.074046    
     22840   1333.2786     -5425.9325     -5161.3909      3631.0192      56562.754      67.191738    
     22850   1344.2361     -5428.7527     -5162.037       3569.094       56569.839      67.333325    
     22860   1336.9017     -5427.9598     -5162.6994      3709.997       56577.937      67.482615    
     22870   1339.8235     -5429.2141     -5163.3739      3672.3589      56587.096      67.637283    
     22880   1340.6223     -5430.067      -5164.0684      3446.4163      56597.507      67.799028    
     22890   1341.2839     -5430.8979     -5164.768       3016.2246      56608.986      67.961278    
     22900   1331.3846     -5429.6239     -5165.4581      2786.8493      56621.009      68.112573    
     22910   1310.3818     -5426.1028     -5166.1043      2841.2413      56633.235      68.250032    
     22920   1301.0622     -5424.7797     -5166.6303      2812.0121      56645.714      68.362686    
     22930   1306.4166     -5426.2394     -5167.0276      2584.8422      56658.841      68.451053    
     22940   1324.8552     -5430.2102     -5167.34        2230.6778      56672.944      68.532825    
     22950   1332.5359     -5432.0017     -5167.6075      1959.8041      56687.743      68.628134    
     22960   1333.8351     -5432.5181     -5167.8661      1737.6792      56702.746      68.741738    
     22970   1342.0924     -5434.4044     -5168.1141      1395.508       56717.31       68.854938    
     22980   1347.5716     -5435.7649     -5168.3874      1205.1161      56730.545      68.954626    
     22990   1345.447      -5435.6437     -5168.6877      1240.6667      56741.802      69.038656    
     23000   1348.3552     -5436.5541     -5169.0211      1305.1441      56750.812      69.105425    
     23010   1341.1925     -5435.4858     -5169.374       1401.9882      56757.582      69.152556    
     23020   1335.2258     -5434.6747     -5169.7468      1622.407       56762.539      69.183624    
     23030   1320.9        -5432.1819     -5170.0964      2004.5161      56766.109      69.202498    
     23040   1312.1634     -5430.7522     -5170.4002      2341.7877      56768.843      69.216418    
     23050   1316.3487     -5431.8237     -5170.6413      2247.8488      56771.516      69.230919    
     23060   1325.7273     -5433.8921     -5170.8488      2024.8594      56774.135      69.257343    
     23070   1329.7541     -5434.9102     -5171.0679      1930.3719      56776.392      69.309963    
     23080   1322.217      -5433.6541     -5171.3073      2075.5502      56778.436      69.375058    
     23090   1301.2248     -5429.7195     -5171.5378      2360.3297      56780.536      69.44012     
     23100   1300.0536     -5429.673      -5171.7237      2634.3949      56782.958      69.517467    
     23110   1308.4214     -5431.4594     -5171.8498      2901.0352      56785.9        69.617467    
     23120   1323.6566     -5434.5875     -5171.9551      3031.207       56789.652      69.729196    
     23130   1334.6646     -5436.9272     -5172.1107      3133.8419      56794.533      69.847974    
     23140   1312.3469     -5432.7019     -5172.3135      3460.9281      56800.774      69.987614    
     23150   1287.1822     -5427.9232     -5172.5278      3821.5311      56808.563      70.145202    
     23160   1264.7686     -5423.6023     -5172.6541      4074.9299      56817.943      70.303798    
     23170   1261.8008     -5422.9907     -5172.6314      3911.8176      56828.674      70.445312    
     23180   1267.1766     -5423.8667     -5172.4407      3606.5402      56840.319      70.569509    
     23190   1265.7125     -5423.2335     -5172.098       3408.2923      56852.633      70.693039    
     23200   1260.3783     -5421.672      -5171.5949      3210.396       56865.725      70.826494    
     23210   1261.0434     -5421.119      -5170.9099      2884.5446      56879.578      70.968536    
     23220   1267.989      -5421.6233     -5170.0361      2412.3563      56893.966      71.105158    
     23230   1269.2089     -5420.8268     -5168.9976      2019.3949      56908.73       71.234862    
     23240   1268.0839     -5419.4202     -5167.8142      1838.5636      56923.851      71.367394    
     23250   1261.7936     -5416.8644     -5166.5065      1880.5879      56939.265      71.513217    
     23260   1267.8057     -5416.6633     -5165.1125      2061.3795      56954.835      71.672031    
     23270   1286.6494     -5418.9778     -5163.6881      2325.7465      56970.378      71.835763    
     23280   1299.2108     -5420.1101     -5162.3281      2689.5854      56985.727      72.001628    
     23290   1321.0457     -5423.2694     -5161.155       2754.6457      57000.927      72.169233    
     23300   1327.449      -5423.5957     -5160.2108      2629.8078      57016.229      72.348286    
     23310   1330.4073     -5423.4913     -5159.5195      2387.4254      57031.789      72.534652    
     23320   1336.0928     -5424.1432     -5159.0432      2152.0093      57047.544      72.714018    
     23330   1318.9375     -5420.4423     -5158.7462      2207.1685      57063.257      72.891874    
     23340   1328.7947     -5422.2356     -5158.5837      2109.2735      57078.93       73.070745    
     23350   1340.868      -5424.5841     -5158.5367      2178.6122      57094.589      73.25089     
     23360   1350.0222     -5426.5012     -5158.6375      2317.411       57110.299      73.441032    
     23370   1358.6924     -5428.4949     -5158.9108      2295.3114      57126.215      73.641799    
     23380   1375.5908     -5432.3254     -5159.3885      2015.5314      57142.299      73.846249    
     23390   1368.2445     -5431.5681     -5160.0888      1980.0197      57158.12       74.042217    
     23400   1366.1296     -5432.0658     -5161.0061      1939.5254      57173.335      74.224755    
     23410   1365.9591     -5433.1399     -5162.114       1798.5879      57187.734      74.411708    
     23420   1348.1614     -5430.8584     -5163.3639      1686.7623      57200.919      74.608145    
     23430   1324.854      -5427.5277     -5164.6577      1566.4347      57212.496      74.814996    
     23440   1311.9044     -5426.2094     -5165.9087      1427.395       57222.265      75.031575    
     23450   1290.7334     -5423.153      -5167.053       1446.2712      57230.271      75.242085    
     23460   1270.0512     -5420.012      -5168.0156      1497.4583      57236.599      75.436836    
     23470   1285.2379     -5423.8228     -5168.8131      1355.7227      57241.369      75.604519    
     23480   1294.1187     -5426.2559     -5169.4842      1344.2054      57244.795      75.736362    
     23490   1304.2989     -5428.9003     -5170.1087      1530.4514      57247.264      75.848199    
     23500   1296.456      -5427.9342     -5170.6988      1928.3677      57249.255      75.957548    
     23510   1311.4126     -5431.4875     -5171.2845      2147.0875      57251.135      76.073444    
     23520   1309.9167     -5431.8003     -5171.8941      2251.1888      57252.81       76.199725    
     23530   1303.997      -5431.2631     -5172.5314      2253.1705      57253.948      76.331208    
     23540   1314.0185     -5433.9174     -5173.1973      2001.9739      57254.304      76.47051     
     23550   1320.6911     -5435.9612     -5173.9171      1782.4359      57253.579      76.616961    
     23560   1328.5746     -5438.3427     -5174.7344      1504.6007      57251.617      76.765839    
     23570   1315.6787     -5436.6921     -5175.6426      1509.8464      57248.495      76.910602    
     23580   1292.7549     -5433.0919     -5176.5908      1788.0065      57244.535      77.042809    
     23590   1270.5674     -5429.5671     -5177.4684      2089.0872      57240.132      77.168526    
     23600   1278.028      -5431.8516     -5178.2725      1977.7287      57235.59       77.298653    
     23610   1286.9841     -5434.3586     -5179.0026      1665.9847      57230.809      77.42655     
     23620   1296.2969     -5436.9104     -5179.7065      1156.8091      57225.366      77.533343    
     23630   1299.2445     -5438.2083     -5180.4195      803.18442      57218.567      77.617516    
     23640   1288.3996     -5436.7874     -5181.1504      901.93278      57209.875      77.69304     
     23650   1281.124      -5436.0454     -5181.8521      1140.7808      57199.292      77.775844    
     23660   1286.1668     -5437.7142     -5182.5203      1284.0001      57186.871      77.865569    
     23670   1294.0189     -5439.9338     -5183.182       1333.6423      57172.44       77.947371    
     23680   1282.8075     -5438.3723     -5183.8449      1501.9466      57155.994      78.005557    
     23690   1268.7064     -5436.2095     -5184.4799      1717.4815      57137.796      78.035347    
     23700   1258.9856     -5434.8384     -5185.0376      1972.6821      57118.006      78.050986    
     23710   1247.7905     -5433.0776     -5185.4981      2110.3299      57096.851      78.083895    
     23720   1262.5104     -5436.3538     -5185.8536      1744.7239      57074.528      78.14869     
     23730   1279.05       -5439.9397     -5186.1579      1361.3655      57050.729      78.231899    
     23740   1270.5682     -5438.5499     -5186.451       1379.319       57025.102      78.315315    
     23750   1265.6065     -5437.8402     -5186.7258      1559.6699      56997.716      78.390016    
     23760   1265.6474     -5438.0859     -5186.9634      1841.5952      56968.925      78.446212    
     23770   1269.1562     -5438.9758     -5187.1571      2177.6509      56939.035      78.46756     
     23780   1266.2785     -5438.5836     -5187.3358      2547.6151      56908.373      78.458287    
     23790   1257.0315     -5436.8829     -5187.4699      2763.5892      56877.374      78.451303    
     23800   1246.129      -5434.8051     -5187.5552      2727.0696      56846.268      78.458971    
     23810   1231.8896     -5431.9669     -5187.5424      2541.1         56815.124      78.470638    
     23820   1250.9386     -5435.6243     -5187.4201      2055.8282      56783.868      78.478217    
     23830   1268.8312     -5438.9663     -5187.212       1634.8022      56752.187      78.467612    
     23840   1290.2967     -5443.0162     -5187.0029      1263.1779      56719.757      78.431354    
     23850   1297.1254     -5444.2024     -5186.8341      1168.416       56686.223      78.397683    
     23860   1267.7547     -5438.2529     -5186.7122      1570.5528      56651.719      78.374827    
     23870   1256.9398     -5435.996      -5186.6011      1801.7729      56616.685      78.353435    
     23880   1236.5334     -5431.7542     -5186.4082      2058.2157      56581.181      78.328837    
     23890   1224.0958     -5428.9431     -5186.065       2152.9376      56545.153      78.308897    
     23900   1230.3035     -5429.573      -5185.4632      2133.2229      56508.817      78.289154    
     23910   1253.0943     -5433.2065     -5184.5747      1977.0771      56472.415      78.265318    
     23920   1277.8651     -5436.9595     -5183.4127      1892.2491      56435.821      78.240815    
     23930   1273.1271     -5434.6267     -5182.02        2186.4607      56399.065      78.208812    
     23940   1282.0487     -5434.8369     -5180.4601      2509.165       56362.584      78.154215    
     23950   1310.6635     -5438.855      -5178.8006      2656.2472      56326.814      78.066072    
     23960   1307.6245     -5436.6746     -5177.2231      3157.4577      56292.177      77.957375    
     23970   1292.2941     -5432.2335     -5175.8239      3635.4214      56259.417      77.852761    
     23980   1304.9196     -5433.5248     -5174.61        3653.0755      56228.994      77.76733     
     23990   1320.4547     -5435.6125     -5173.6154      3451.6617      56200.799      77.719046    
     24000   1320.2934     -5434.8556     -5172.8905      3194.1256      56174.548      77.704839    
     24010   1322.3705     -5434.83       -5172.4527      2896.5422      56149.719      77.701783    
     24020   1335.6589     -5437.2982     -5172.2844      2617.2748      56125.672      77.698862    
     24030   1329.5757     -5436.1912     -5172.3843      2610.7641      56102.044      77.700393    
     24040   1323.1258     -5435.2646     -5172.7375      2636.9753      56078.889      77.711953    
     24050   1324.0072     -5436.0333     -5173.3313      2705.2405      56056.281      77.741868    
     24060   1297.5534     -5431.5524     -5174.0992      3032.3347      56034.329      77.788813    
     24070   1276.8652     -5428.3392     -5174.9909      3294.1536      56013.211      77.860773    
     24080   1259.0297     -5425.6974     -5175.8879      3388.4654      55992.928      77.946055    
     24090   1251.0477     -5424.9639     -5176.7381      3370.0332      55973.357      78.021038    
     24100   1264.943      -5428.5513     -5177.5685      3082.2325      55954.359      78.087797    
     24110   1258.6694     -5428.0664     -5178.3284      2915.8596      55935.638      78.160573    
     24120   1271.3411     -5431.3143     -5179.062       2639.7455      55917.021      78.231161    
     24130   1281.3054     -5434.0364     -5179.807       2546.1637      55898.355      78.291681    
     24140   1280.6647     -5434.6761     -5180.5739      2635.5138      55879.431      78.333963    
     24150   1280.8697     -5435.5137     -5181.3708      2669.4777      55860.015      78.35005     
     24160   1283.5442     -5436.861      -5182.1874      2687.8881      55840.131      78.342009    
     24170   1283.7823     -5437.7223     -5183.0015      2950.4326      55820.145      78.315525    
     24180   1295.2684     -5440.8307     -5183.8309      3339.6773      55800.859      78.291701    
     24190   1295.9289     -5441.8235     -5184.6926      3783.9678      55782.996      78.292544    
     24200   1280.2642     -5439.5801     -5185.5573      4214.6589      55766.974      78.311121    
     24210   1262.7956     -5436.9309     -5186.3742      4416.7882      55753.015      78.322213    
     24220   1273.3574     -5439.7914     -5187.139       4297.3357      55741.1        78.319578    
     24230   1293.6905     -5444.5697     -5187.883       3997.3295      55731.24       78.323669    
     24240   1284.3307     -5443.4908     -5188.6612      3819.8471      55723.347      78.352213    
     24250   1287.5384     -5444.9377     -5189.4717      3482.0931      55717.306      78.401904    
     24260   1288.8578     -5446.0543     -5190.3265      3334.9414      55712.757      78.451989    
     24270   1262.9217     -5441.7568     -5191.1751      3637.6407      55709.425      78.493186    
     24280   1267.1158     -5443.4301     -5192.0161      3894.1619      55707.535      78.530992    
     24290   1250.2324     -5440.8604     -5192.7963      4176.9177      55707.232      78.565562    
     24300   1256.3867     -5442.8225     -5193.5374      4170.1832      55708.172      78.594461    
     24310   1266.1889     -5445.4874     -5194.2574      4064.0843      55709.791      78.617429    
     24320   1269.5759     -5446.9043     -5195.0023      4150.1717      55712.098      78.645398    
     24330   1259.6102     -5445.6892     -5195.7645      4179.226       55715.581      78.686059    
     24340   1258.6733     -5446.2832     -5196.5444      3991.3541      55720.403      78.738205    
     24350   1242.271      -5443.8069     -5197.3225      3833.1827      55726.345      78.814556    
     24360   1217.7094     -5439.6317     -5198.0207      3688.3491      55732.927      78.930375    
     24370   1235.2513     -5443.7336     -5198.6421      3129.7329      55739.494      79.068101    
     24380   1229.5983     -5443.1733     -5199.2034      2974.0007      55745.434      79.220492    
     24390   1194.2875     -5436.6266     -5199.6628      3100.6216      55750.731      79.373996    
     24400   1201.8493     -5438.4683     -5200.0042      2915.8092      55755.757      79.508119    
     24410   1205.9011     -5439.4794     -5200.2113      2657.3789      55760.8        79.625929    
     24420   1206.24       -5439.6387     -5200.3034      2560.2212      55765.885      79.74205     
     24430   1229.1872     -5444.2097     -5200.3214      2356.9329      55770.792      79.858478    
     24440   1242.5321     -5446.8373     -5200.3011      2276.4858      55775.149      79.965874    
     24450   1246.1124     -5447.5712     -5200.3246      2415.2557      55778.471      80.057112    
     24460   1234.9728     -5445.4219     -5200.3856      2660.6755      55780.447      80.130435    
     24470   1241.1972     -5446.7366     -5200.4653      2676.6092      55781.043      80.196209    
     24480   1267.379      -5452.0646     -5200.5984      2443.3658      55780.235      80.273318    
     24490   1262.41       -5451.3263     -5200.8461      2620.5837      55777.909      80.364205    
     24500   1263.563      -5451.9558     -5201.2468      2965.2546      55774.138      80.455661    
     24510   1259.04       -5451.5918     -5201.7802      3173.2454      55769.233      80.53928     
     24520   1260.8498     -5452.6428     -5202.4722      3038.1308      55763.418      80.602591    
     24530   1257.5286     -5452.8311     -5203.3194      2791.1576      55756.581      80.643467    
     24540   1256.3973     -5453.6243     -5204.3371      2560.8465      55748.457      80.664264    
     24550   1241.4945     -5451.8156     -5205.4853      2693.5758      55738.971      80.663543    
     24560   1226.9767     -5450.1581     -5206.7083      3097.7613      55728.488      80.652127    
     24570   1224.5106     -5450.8824     -5207.922       3498.3391      55717.56       80.634967    
     24580   1235.6032     -5454.2802     -5209.1188      3533.9381      55706.618      80.614346    
     24590   1256.6551     -5459.6407     -5210.3024      3106.4223      55695.74       80.602128    
     24600   1266.2648     -5462.77       -5211.5249      2702.3554      55684.593      80.614066    
     24610   1248.0542     -5460.3625     -5212.7307      2594.4884      55672.738      80.642249    
     24620   1238.7392     -5459.6418     -5213.8582      2640.4922      55659.983      80.659076    
     24630   1233.9938     -5459.6902     -5214.8481      2638.2977      55646.406      80.656206    
     24640   1217.4112     -5457.2344     -5215.6826      2767.9828      55632.255      80.642226    
     24650   1216.2482     -5457.6658     -5216.3447      2914.1919      55617.765      80.620142    
     24660   1205.821      -5456.113      -5216.8609      3005.8187      55603.029      80.588104    
     24670   1204.6256     -5456.2559     -5217.2409      2984.8669      55588.237      80.552678    
     24680   1206.9486     -5457.0048     -5217.5289      2936.2254      55573.572      80.520277    
     24690   1177.8507     -5451.3962     -5217.6938      3138.0041      55559.219      80.500692    
     24700   1190.2248     -5453.8982     -5217.7405      2919.9956      55545.473      80.490425    
     24710   1217.5562     -5459.2833     -5217.7027      2595.8532      55532.284      80.479141    
     24720   1215.4366     -5458.7974     -5217.6373      2764.3447      55519.554      80.474802    
     24730   1205.7459     -5456.8162     -5217.5789      3061.2363      55507.542      80.487932    
     24740   1204.2248     -5456.425      -5217.4896      3093.5935      55496.338      80.530401    
     24750   1219.5173     -5459.3394     -5217.3697      2835.3826      55485.707      80.597649    
     24760   1229.9431     -5461.3085     -5217.2701      2502.2513      55475.304      80.688007    
     24770   1217.8701     -5458.8658     -5217.223       2543.872       55464.893      80.779182    
     24780   1181.4289     -5451.5808     -5217.1684      2962.6114      55454.655      80.84639     
     24790   1168.3742     -5448.8405     -5217.0183      3263.2606      55444.9        80.894081    
     24800   1189.6867     -5452.7933     -5216.7425      3268.7965      55435.588      80.953867    
     24810   1190.7888     -5452.6198     -5216.3502      3569.5854      55426.518      81.030463    
     24820   1188.8663     -5451.7701     -5215.882       3945.7416      55417.925      81.11524     
     24830   1199.0244     -5453.2255     -5215.3218      4129.4944      55410.375      81.200935    
     24840   1210.0061     -5454.7782     -5214.6957      4174.4027      55404.387      81.286384    
     24850   1207.6553     -5453.6407     -5214.0246      4163.3971      55400.351      81.380195    
     24860   1224.1178     -5456.2317     -5213.3492      3986.9595      55398.438      81.487257    
     24870   1230.6064     -5456.8528     -5212.6829      3837.0463      55398.422      81.605832    
     24880   1238.6781     -5457.8613     -5212.0899      3811.7016      55400.107      81.737852    
     24890   1244.6201     -5458.5293     -5211.5788      3884.737       55403.569      81.883548    
     24900   1263.3981     -5461.8765     -5211.2002      3789.4352      55409.093      82.035076    
     24910   1281.3289     -5465.2427     -5211.0087      3584.3869      55416.703      82.19094     
     24920   1280.2604     -5465.1182     -5211.0962      3481.851       55426.13       82.348934    
     24930   1256.0409     -5460.6625     -5211.446       3530.4496      55437.019      82.506304    
     24940   1248.3564     -5459.7294     -5212.0376      3230.0919      55449.127      82.659637    
     24950   1237.6513     -5458.4055     -5212.8378      2965.9461      55461.914      82.787159    
     24960   1229.1415     -5457.7291     -5213.8498      2699.4695      55474.776      82.88433     
     24970   1209.5586     -5455.006      -5215.0122      2528.3882      55487.382      82.968489    
     24980   1195.535      -5453.4734     -5216.2621      2408.5129      55499.552      83.05229     
     24990   1174.9928     -5450.6433     -5217.5079      2485.3969      55510.931      83.136887    
     25000   1164.6009     -5449.7278     -5218.6543      2643.9878      55521.274      83.224057    
     25010   1154.6221     -5448.7375     -5219.644       2728.105       55530.718      83.312465    
     25020   1163.006      -5451.2106     -5220.4535      2626.8836      55539.56       83.396611    
     25030   1173.1349     -5453.8737     -5221.1069      2613.1798      55547.863      83.481942    
     25040   1173.2369     -5454.3984     -5221.6114      2684.2397      55555.418      83.565967    
     25050   1184.8348     -5457.1139     -5222.0257      2736.6324      55562.129      83.648344    
     25060   1178.1462     -5456.1064     -5222.3454      3004.2233      55568.209      83.737958    
     25070   1179.6577     -5456.6521     -5222.5911      3104.5792      55574.206      83.827503    
     25080   1168.4305     -5454.5878     -5222.7544      3233.7558      55580.742      83.908488    
     25090   1169.0399     -5454.7841     -5222.8298      2993.4793      55588.36       83.975169    
     25100   1169.1473     -5454.7943     -5222.8187      2740.6779      55597.195      84.032945    
     25110   1147.2658     -5450.3456     -5222.7116      2700.1725      55607.231      84.086359    
     25120   1148.5129     -5450.3712     -5222.4898      2685.555       55618.409      84.143087    
     25130   1160.1062     -5452.3275     -5222.1458      2728.307       55630.443      84.222061    
     25140   1173.8481     -5454.65       -5221.7417      2947.836       55643.062      84.319483    
     25150   1195.5918     -5458.552      -5221.3295      2922.8836      55656.29       84.426414    
     25160   1215.5243     -5462.1617     -5220.9843      2651.0221      55670.019      84.540502    
     25170   1212.1073     -5461.2506     -5220.7512      2525.5114      55683.789      84.656375    
     25180   1202.1103     -5459.1379     -5220.622       2463.3887      55697.2        84.773869    
     25190   1208.8051     -5460.4061     -5220.5619      2271.3349      55710.088      84.907932    
     25200   1202.3372     -5459.1204     -5220.5594      2085.7441      55722.341      85.056589    
     25210   1193.745      -5457.4651     -5220.609       1928.9827      55733.628      85.198381    
     25220   1183.7912     -5455.5491     -5220.6679      1913.2883      55743.576      85.32567     
     25230   1171.9573     -5453.2463     -5220.7132      2110.1622      55752.163      85.439869    
     25240   1166.4222     -5452.1364     -5220.7015      2243.4955      55759.609      85.548788    
     25250   1179.1178     -5454.5977     -5220.6438      2121.7139      55765.96       85.664874    
     25260   1185.6382     -5455.816      -5220.5684      2136.2167      55771.044      85.800843    
     25270   1178.1274     -5454.2542     -5220.4968      2307.3509      55774.901      85.960719    
     25280   1175.9381     -5453.7502     -5220.4273      2462.8123      55777.703      86.131252    
     25290   1161.7847     -5450.8301     -5220.3154      2659.9554      55779.613      86.301243    
     25300   1169.7576     -5452.2631     -5220.1664      2705.2484      55780.998      86.461506    
     25310   1178.4263     -5453.7946     -5219.9779      2804.0595      55782.246      86.588236    
     25320   1174.8627     -5452.8812     -5219.7716      3000.0494      55783.702      86.680771    
     25330   1198.3561     -5457.3582     -5219.5871      2702.9074      55785.757      86.74964     
     25340   1217.6164     -5461.0404     -5219.4479      2265.9312      55788.315      86.807105    
     25350   1214.9714     -5460.5131     -5219.4453      2064.5434      55790.884      86.870657    
     25360   1182.5705     -5454.1853     -5219.5464      2129.7387      55793.042      86.941315    
     25370   1170.122      -5451.854      -5219.685       2068.1368      55794.576      87.005207    
     25380   1170.9565     -5452.1254     -5219.7908      2007.2051      55795.271      87.052597    
     25390   1174.2319     -5452.8669     -5219.8825      1915.9833      55794.977      87.082328    
     25400   1181.3306     -5454.3673     -5219.9744      1886.8366      55793.597      87.104       
     25410   1183.3425     -5454.8804     -5220.0883      1982.2562      55791.03       87.12877     
     25420   1181.7191     -5454.7101     -5220.2401      2084.7282      55787.255      87.164836    
     25430   1184.1375     -5455.3755     -5220.4257      2168.1166      55782.513      87.218901    
     25440   1189.8154     -5456.7532     -5220.6768      2198.281       55776.839      87.284077    
     25450   1185.5259     -5456.2368     -5221.0115      2370.6653      55769.985      87.34086     
     25460   1191.3526     -5457.8276     -5221.4462      2508.6112      55762.052      87.374831    
     25470   1203.8033     -5460.8884     -5222.0366      2415.1876      55753.505      87.388382    
     25480   1199.5845     -5460.8657     -5222.851       2279.5273      55744.614      87.396544    
     25490   1197.3509     -5461.5048     -5223.9332      2074.4501      55735.333      87.41554     
     25500   1179.4711     -5459.3038     -5225.2799      1907.7126      55725.505      87.464617    
     25510   1168.2671     -5458.6318     -5226.8309      1704.2426      55715.061      87.552204    
     25520   1157.0133     -5458.0422     -5228.4742      1679.3452      55703.821      87.655782    
     25530   1141.3504     -5456.532      -5230.0717      1796.8354      55691.714      87.749356    
     25540   1125.5932     -5454.8064     -5231.4726      1947.9584      55678.814      87.816108    
     25550   1126.1808     -5456.0526     -5232.6022      2011.4941      55665.191      87.858248    
     25560   1125.1548     -5456.7037     -5233.4569      2226.5147      55650.902      87.902407    
     25570   1128.7167     -5458.021      -5234.0674      2481.29        55636.064      87.964346    
     25580   1140.8999     -5460.8452     -5234.4743      2591.945       55620.644      88.040452    
     25590   1161.297      -5465.1892     -5234.7713      2616.8289      55604.585      88.112662    
     25600   1159.6076     -5465.0834     -5235.0006      2849.2436      55587.938      88.171849    
     25610   1156.1874     -5464.5934     -5235.1892      2930.6633      55571.079      88.21604     
     25620   1149.0714     -5463.3197     -5235.3275      2902.6458      55554.365      88.251274    
     25630   1132.2821     -5460.0623     -5235.4013      2778.8773      55537.697      88.281204    
     25640   1127.6184     -5459.1156     -5235.38        2530.8715      55520.823      88.302099    
     25650   1133.0323     -5460.071      -5235.2612      2258.8723      55503.593      88.310627    
     25660   1130.6816     -5459.3899     -5235.0465      2306.4817      55486.069      88.306806    
     25670   1137.8016     -5460.5087     -5234.7525      2540.2735      55468.536      88.291012    
     25680   1136.4312     -5459.8777     -5234.3935      2860.5588      55451.349      88.26245     
     25690   1133.5665     -5458.8831     -5233.9672      2936.9021      55434.83       88.225677    
     25700   1141.1846     -5459.9084     -5233.4811      2714.3852      55419.078      88.187144    
     25710   1144.2785     -5459.9949     -5232.9536      2509.4731      55403.845      88.152397    
     25720   1158.7432     -5462.309      -5232.3977      2232.2326      55388.927      88.134942    
     25730   1182.2301     -5466.4347     -5231.8633      1924.3668      55374.099      88.133787    
     25740   1200.5053     -5469.6302     -5231.4328      1762.3813      55359.034      88.147249    
     25750   1202.3439     -5469.7229     -5231.1606      1748.4953      55343.611      88.17854     
     25760   1202.2541     -5469.6163     -5231.0719      1709.6237      55327.817      88.221037    
     25770   1198.2052     -5468.892      -5231.1509      1816.6465      55311.537      88.248546    
     25780   1182.5339     -5466.0139     -5231.3823      2097.2219      55294.765      88.242184    
     25790   1167.9631     -5463.457      -5231.7164      2319.5583      55277.667      88.213001    
     25800   1164.5768     -5463.1754     -5232.1067      2440.3831      55260.466      88.183894    
     25810   1165.8525     -5463.8804     -5232.5585      2454.9342      55243.197      88.160188    
     25820   1162.9062     -5463.7994     -5233.0622      2436.6542      55225.662      88.13136     
     25830   1177.5402     -5467.2982     -5233.6574      2273.9158      55207.642      88.096515    
     25840   1167.4513     -5465.9883     -5234.3492      2296.3177      55189.042      88.059061    
     25850   1149.76       -5463.2556     -5235.1268      2412.8319      55170.124      88.011456    
     25860   1144.6982     -5463.0381     -5235.9136      2273.7607      55151.104      87.942973    
     25870   1176.9516     -5470.2876     -5236.7635      1844.9852      55131.999      87.847709    
     25880   1184.4405     -5472.7595     -5237.7496      1859.6309      55112.688      87.738099    
     25890   1172.3849     -5471.4968     -5238.8789      2194.2169      55093.081      87.633857    
     25900   1165.4425     -5471.3295     -5240.089       2450.7533      55073.223      87.557356    
     25910   1151.5645     -5469.7991     -5241.3122      2662.4833      55053.146      87.51035     
     25920   1134.5014     -5467.5392     -5242.4378      2741.2828      55032.896      87.484729    
     25930   1134.1615     -5468.4448     -5243.4109      2765.8971      55012.526      87.474179    
     25940   1121.1646     -5466.6445     -5244.1894      2898.897       54991.941      87.4783      
     25950   1115.3711     -5466.0542     -5244.7486      2974.3971      54971.093      87.475227    
     25960   1133.5195     -5470.0367     -5245.1302      2983.3289      54950.134      87.453713    
     25970   1128.397      -5469.264      -5245.3739      3123.586       54929.156      87.444128    
     25980   1129.138      -5469.5621     -5245.525       3122.6631      54908.346      87.455991    
     25990   1136.9287     -5471.2057     -5245.6227      2994.2537      54887.611      87.464287    
     26000   1139.5191     -5471.7909     -5245.694       2858.8103      54866.622      87.479196    
     26010   1128.1815     -5469.5999     -5245.7525      2878.4535      54845.137      87.517642    
     26020   1122.299      -5468.4514     -5245.7712      2973.9023      54823.24       87.568967    
     26030   1115.5429     -5467.0594     -5245.7198      3053.7841      54801.142      87.61498     
     26040   1145.4366     -5472.9023     -5245.6313      2816.6761      54778.97       87.621369    
     26050   1170.5513     -5477.8125     -5245.5584      2555.2653      54756.706      87.595391    
     26060   1182.9235     -5480.3159     -5245.6069      2460.3635      54734.488      87.571511    
     26070   1171.4018     -5478.2245     -5245.8016      2550.4128      54712.566      87.56153     
     26080   1135.9379     -5471.4913     -5246.105       2883.3236      54691.094      87.568654    
     26090   1110.2792     -5466.6841     -5246.3888      3167.7677      54670.365      87.579104    
     26100   1122.5388     -5469.3333     -5246.6055      3132.743       54650.652      87.579896    
     26110   1147.3229     -5474.4434     -5246.7981      2941.7156      54631.816      87.571982    
     26120   1152.7341     -5475.7504     -5247.0314      2952.0019      54613.304      87.565439    
     26130   1162.7616     -5478.0721     -5247.3636      2974.9323      54594.626      87.559921    
     26140   1149.2536     -5475.8159     -5247.7875      3120.6609      54575.624      87.551017    
     26150   1139.095      -5474.2987     -5248.2859      3131.8705      54556.388      87.541981    
     26160   1152.9346     -5477.6012     -5248.8424      2933.0357      54536.975      87.541408    
     26170   1146.3302     -5476.9274     -5249.479       2885.3491      54517.377      87.550832    
     26180   1135.5483     -5475.4984     -5250.1894      3010.5542      54497.644      87.56682     
     26190   1115.8213     -5472.3065     -5250.9116      3209.7453      54477.7        87.56831     
     26200   1120.5163     -5473.9391     -5251.6126      3335.9499      54457.587      87.558638    
     26210   1132.4222     -5476.9863     -5252.2975      3478.7266      54437.508      87.553074    
     26220   1154.0937     -5481.9957     -5253.007       3435.9995      54417.829      87.547561    
     26230   1172.5227     -5486.4833     -5253.838       3319.8832      54398.78       87.542358    
     26240   1152.7832     -5483.5272     -5254.7985      3483.3042      54380.474      87.543113    
     26250   1136.1052     -5481.234      -5255.8145      3572.502       54363.18       87.545683    
     26260   1126.7821     -5480.3815     -5256.8118      3792.0716      54346.857      87.547609    
     26270   1104.0734     -5476.7809     -5257.7169      4378.9167      54331.451      87.547659    
     26280   1095.2631     -5475.7815     -5258.4656      4733.9314      54317.323      87.551304    
     26290   1105.2925     -5478.3673     -5259.0615      4612.3395      54304.644      87.563088    
     26300   1116.0445     -5480.9791     -5259.5399      4247.6724      54293.388      87.569645    
     26310   1130.6616     -5484.3018     -5259.9623      3827.8185      54283.385      87.568931    
     26320   1122.6928     -5483.1178     -5260.3595      3759.5215      54274.181      87.560991    
     26330   1114.8884     -5481.9313     -5260.7215      3753.6072      54265.596      87.538433    
     26340   1099.0603     -5479.0726     -5261.0033      3762.0704      54257.787      87.515057    
     26350   1100.9743     -5479.6531     -5261.204       3562.7723      54250.938      87.496315    
     26360   1092.7936     -5478.1483     -5261.3224      3517.4465      54245.013      87.48693     
     26370   1078.7105     -5475.3717     -5261.3401      3535.458       54239.968      87.506583    
     26380   1074.7727     -5474.4884     -5261.2381      3408.0033      54235.958      87.573127    
     26390   1075.2307     -5474.358      -5261.0169      3313.041       54233.077      87.684255    
     26400   1064.0686     -5471.8037     -5260.6773      3493.7516      54231.414      87.816677    
     26410   1053.3734     -5469.2098     -5260.2055      3719.4786      54231.323      87.932352    
     26420   1078.3766     -5473.5667     -5259.6013      3526.5138      54233.372      88.016726    
     26430   1089.6478     -5475.1007     -5258.899       3450.0892      54237.689      88.083701    
     26440   1102.8873     -5477.012      -5258.1833      3317.7117      54244.025      88.146197    
     26450   1125.5109     -5480.8235     -5257.506       3074.0695      54251.82       88.199169    
     26460   1135.3142     -5482.1854     -5256.9228      3080.5267      54260.413      88.235413    
     26470   1131.688      -5481.0293     -5256.4862      3424.3391      54269.547      88.258523    
     26480   1115.8939     -5477.5708     -5256.1615      3861.8163      54279.66       88.285268    
     26490   1118.1606     -5477.7667     -5255.9076      4088.8042      54291.473      88.335282    
     26500   1121.1233     -5478.167      -5255.7201      4158.7368      54305.588      88.411048    
     26510   1128.2965     -5479.4557     -5255.5855      3961.1264      54322.308      88.497531    
     26520   1154.7229     -5484.653      -5255.5394      3513.2546      54341.253      88.563502    
     26530   1150.6977     -5483.9396     -5255.6247      3383.3136      54361.733      88.609501    
     26540   1148.8061     -5483.8136     -5255.874       3491.8979      54383.44       88.665488    
     26550   1125.0369     -5479.4377     -5256.2143      3723.6617      54406.618      88.732406    
     26560   1133.2396     -5481.4775     -5256.6266      3562.5396      54431.569      88.807304    
     26570   1146.816      -5484.6324     -5257.0877      3305.7078      54458.06       88.904824    
     26580   1143.356      -5484.52       -5257.6618      3320.7103      54485.454      89.025383    
     26590   1125.9272     -5481.7035     -5258.3034      3437.9619      54513.358      89.154675    
     26600   1119.3764     -5481.0714     -5258.9711      3580.0639      54541.622      89.303376    
     26610   1103.4695     -5478.5724     -5259.6282      3742.1544      54570.258      89.467644    
     26620   1094.6428     -5477.4174     -5260.2246      3778.7857      54599.527      89.636262    
     26630   1110.834      -5481.1622     -5260.7569      3572.3061      54629.607      89.812626    
     26640   1111.1842     -5481.7288     -5261.2539      3476.7945      54660.31       89.996723    
     26650   1098.7976     -5479.7362     -5261.719       3508.2299      54691.446      90.178931    
     26660   1099.4267     -5480.2749     -5262.1329      3360.7947      54722.948      90.351175    
     26670   1110.6334     -5482.8754     -5262.5098      3028.2184      54754.649      90.513523    
     26680   1105.0966     -5482.1272     -5262.8602      2824.4196      54786.272      90.678684    
     26690   1107.9534     -5483.0306     -5263.1968      2558.6748      54817.525      90.856258    
     26700   1102.7633     -5482.3187     -5263.5147      2284.7807      54848.026      91.049795    
     26710   1089.0919     -5479.894      -5263.8026      2196.4123      54877.378      91.252333    
     26720   1082.6024     -5478.8368     -5264.033       2117.4509      54905.269      91.451455    
     26730   1069.928      -5476.4703     -5264.1813      2195.2054      54931.455      91.641671    
     26740   1063.5277     -5475.2607     -5264.2416      2351.3124      54955.974      91.824834    
     26750   1059.3197     -5474.3778     -5264.1936      2496.8037      54979.216      92.001098    
     26760   1079.8782     -5478.3179     -5264.0546      2425.8134      55001.55       92.163747    
     26770   1094.5597     -5481.0458     -5263.8695      2433.0136      55023.043      92.30404     
     26780   1089.6757     -5479.9065     -5263.6992      2759.4854      55043.823      92.434892    
     26790   1074.248      -5476.6681     -5263.5219      3275.4996      55064.208      92.574548    
     26800   1078.1731     -5477.2416     -5263.3166      3562.9458      55084.573      92.727143    
     26810   1089.0398     -5479.1565     -5263.0754      3551.2544      55105.245      92.884312    
     26820   1091.6768     -5479.4323     -5262.8279      3392.2191      55126.233      93.05122     
     26830   1101.1971     -5481.0886     -5262.5953      2952.1559      55147.181      93.230739    
     26840   1103.6964     -5481.3922     -5262.403       2567.927       55167.732      93.406794    
     26850   1109.0165     -5482.3125     -5262.2677      2250.3574      55187.717      93.562603    
     26860   1108.2535     -5482.092      -5262.1987      2040.029       55206.968      93.68334     
     26870   1095.6785     -5479.5952     -5262.1969      2056.7989      55225.418      93.766516    
     26880   1090.3362     -5478.564      -5262.2256      2147.4428      55243.308      93.830414    
     26890   1097.1025     -5479.9563     -5262.2754      2186.5299      55260.859      93.902828    
     26900   1087.0505     -5478.037      -5262.3506      2383.0834      55278.104      94.003176    
     26910   1079.8936     -5476.6915     -5262.4252      2384.7836      55295.15       94.144366    
     26920   1088.3311     -5478.4442     -5262.5037      2162.7034      55312.078      94.316645    
     26930   1080.0803     -5476.8783     -5262.5749      2061.0741      55328.922      94.492421    
     26940   1067.0566     -5474.3606     -5262.6413      2033.5012      55345.782      94.657898    
     26950   1068.2193     -5474.618      -5262.668       1919.0912      55362.744      94.811702    
     26960   1076.3458     -5476.1997     -5262.6373      1661.3641      55379.677      94.947983    
     26970   1077.3655     -5476.3418     -5262.5771      1495.9674      55396.24       95.07072     
     26980   1075.8398     -5475.9536     -5262.4916      1454.9592      55412.204      95.186989    
     26990   1074.3119     -5475.5259     -5262.367       1496.6996      55427.591      95.29377     
     27000   1082.5569     -5476.9966     -5262.2018      1460.9475      55442.654      95.388723    
     27010   1090.105      -5478.278      -5261.9855      1487.7224      55457.681      95.485255    
     27020   1089.7949     -5477.9857     -5261.7548      1598.3724      55472.843      95.598531    
     27030   1079.4864     -5475.6562     -5261.4707      1686.5431      55488.251      95.723378    
     27040   1080.1143     -5475.4318     -5261.1216      1560.1015      55503.816      95.851088    
     27050   1067.0498     -5472.3904     -5260.6724      1550.253       55519.192      95.979298    
     27060   1060.0326     -5470.437      -5260.1114      1594.7229      55534.088      96.103743    
     27070   1073.9717     -5472.5028     -5259.4114      1419.0411      55548.423      96.229921    
     27080   1095.8679     -5476.0316     -5258.5957      1143.7707      55562.139      96.366203    
     27090   1118.6066     -5479.7267     -5257.7791      993.15326      55575.031      96.513382    
     27100   1124.429      -5480.1555     -5257.0527      1098.7275      55586.781      96.670298    
     27110   1125.1207     -5479.7311     -5256.491       1332.0687      55597.189      96.829422    
     27120   1118.0603     -5477.9363     -5256.0971      1588.9203      55606.293      96.971722    
     27130   1115.6597     -5477.2284     -5255.8655      1723.9161      55614.142      97.090828    
     27140   1120.5048     -5478.1084     -5255.7842      1623.7305      55620.624      97.195512    
     27150   1136.9768     -5481.4871     -5255.8946      1360.7901      55625.5        97.282007    
     27160   1145.7654     -5483.5829     -5256.2466      1173.588       55628.446      97.347109    
     27170   1144.9596     -5484.0736     -5256.8972      1069.5732      55629.256      97.416713    
     27180   1139.61       -5483.9637     -5257.8488      968.84341      55627.987      97.500849    
     27190   1125.065      -5482.2748     -5259.0458      956.19151      55624.876      97.593331    
     27200   1112.9717     -5481.226      -5260.3964      824.0494       55620.224      97.688764    
     27210   1117.7828     -5483.6063     -5261.8222      409.91065      55614.098      97.766223    
     27220   1115.7478     -5484.6672     -5263.2869      127.51769      55606.243      97.803839    
     27230   1095.7815     -5482.1093     -5264.6905      132.70241      55596.446      97.802654    
     27240   1087.0798     -5481.665      -5265.9728      164.68024      55584.515      97.778922    
     27250   1085.2058     -5482.441      -5267.1207      268.27278      55570.255      97.73378     
     27260   1071.9217     -5480.8271     -5268.1425      615.06007      55553.724      97.673273    
     27270   1050.5616     -5477.4536     -5269.0071      1154.9767      55535.28       97.618901    
     27280   1045.1625     -5477.0918     -5269.7166      1501.8815      55515.53       97.582183    
     27290   1043.188      -5477.2687     -5270.2852      1594.236       55494.85       97.552142    
     27300   1054.1643     -5479.9149     -5270.7536      1389.3962      55473.244      97.533287    
     27310   1065.9137     -5482.6776     -5271.1851      978.10098      55450.371      97.537418    
     27320   1065.3586     -5482.9948     -5271.6123      694.90897      55425.922      97.549046    
     27330   1069.0009     -5484.1542     -5272.0491      470.1665       55399.89       97.552203    
     27340   1073.7308     -5485.5601     -5272.5165      490.6184       55372.13       97.54838     
     27350   1069.8459     -5485.2949     -5273.0222      882.26826      55342.54       97.546633    
     27360   1061.9584     -5484.2567     -5273.549       1420.3862      55311.467      97.541176    
     27370   1044.3257     -5481.2725     -5274.0633      1970.1264      55279.472      97.529682    
     27380   1035.3668     -5479.9475     -5274.5159      2150.6476      55247.049      97.504806    
     27390   1043.0507     -5481.8672     -5274.911       1901.4273      55214.274      97.452766    
     27400   1035.362      -5480.6891     -5275.2584      1818.5241      55180.956      97.385787    
     27410   1027.2641     -5479.355      -5275.5311      1963.0454      55147.141      97.323136    
     27420   1021.3998     -5478.3666     -5275.7062      2404.2582      55113.165      97.272688    
     27430   1010.5421     -5476.2535     -5275.7475      2978.3666      55079.696      97.234067    
     27440   1011.4632     -5476.3337     -5275.645       3305.7102      55047.487      97.207037    
     27450   1022.6694     -5478.3069     -5275.3946      3330.1742      55016.936      97.190604    
     27460   1032.3766     -5479.8706     -5275.0323      3201.6154      54988.018      97.180578    
     27470   1052.7613     -5483.4851     -5274.6022      2793.19        54960.34       97.163933    
     27480   1055.5894     -5483.5902     -5274.1462      2553.4639      54933.321      97.137084    
     27490   1063.011      -5484.6145     -5273.6979      2399.4669      54906.55       97.113185    
     27500   1063.7063     -5484.3215     -5273.267       2290.5464      54879.792      97.104827    
     27510   1080.9268     -5487.3625     -5272.8912      2012.981       54852.805      97.107528    
     27520   1092.618      -5489.3892     -5272.5981      1736.1592      54825.167      97.101863    
     27530   1087.9514     -5488.322      -5272.4569      1655.4292      54796.481      97.059782    
     27540   1077.9091     -5486.3108     -5272.4382      1780.3658      54766.784      96.975046    
     27550   1078.4296     -5486.5023     -5272.5264      1759.1711      54736.669      96.866553    
     27560   1079.7482     -5486.9561     -5272.7186      1758.4909      54706.662      96.752778    
     27570   1071.0377     -5485.5414     -5273.0322      1898.4785      54677.071      96.636427    
     27580   1062.4895     -5484.2783     -5273.4652      2171.7276      54648.05       96.525242    
     27590   1055.5167     -5483.425      -5273.9954      2607.0908      54619.653      96.423525    
     27600   1037.0639     -5480.35       -5274.5817      3194.9353      54592.092      96.337442    
     27610   1030.9735     -5479.7443     -5275.1844      3426.0525      54565.732      96.278375    
     27620   1041.554      -5482.4652     -5275.806       3293.622       54540.654      96.250743    
     27630   1051.4435     -5485.0983     -5276.4768      3052.7327      54516.564      96.256036    
     27640   1053.2036     -5486.1936     -5277.2229      2965.4648      54493.258      96.279342    
     27650   1048.854      -5486.1423     -5278.0347      2853.51        54470.93       96.302872    
     27660   1047.2339     -5486.6964     -5278.9102      2565.8879      54449.759      96.315667    
     27670   1039.0446     -5485.9915     -5279.8301      2350.2887      54429.456      96.312754    
[...]
     48200   911.91504     -5483.4141     -5302.4771     -193.88597      61218.271      231.38134    
     48210   909.88617     -5482.5967     -5302.0622     -100.7681       61198.405      231.38247    
     48220   907.6922      -5481.8031     -5301.704       22.573022      61178.111      231.37011    
     48230   911.42713     -5482.2341     -5301.3939      93.358031      61158.073      231.34531    
     48240   913.00383     -5482.2902     -5301.1371      68.613394      61138.648      231.31258    
     48250   911.21989     -5481.7383     -5300.9392      89.303367      61119.784      231.28195    
     48260   910.3042      -5481.4094     -5300.792       166.76845      61101.606      231.26994    
     48270   914.11152     -5482.0693     -5300.6965      240.48167      61084.512      231.28151    
     48280   910.57286     -5481.3201     -5300.6494      366.73681      61068.992      231.29742    
     48290   915.47022     -5482.2931     -5300.6507      347.19565      61055.642      231.28939    
     48300   921.63305     -5483.5781     -5300.7129      278.93073      61044.401      231.24869    
     48310   921.03606     -5483.6096     -5300.8629      283.20279      61034.917      231.1889     
     48320   910.27411     -5481.7053     -5301.0939      403.05445      61027.194      231.13202    
     48330   903.9942      -5480.7352     -5301.3698      457.01871      61021.828      231.09439    
     48340   914.32156     -5483.1057     -5301.6912      284.83251      61019.034      231.0797     
     48350   909.24733     -5482.4813     -5302.0736      262.34081      61018.024      231.08194    
     48360   900.70387     -5481.2241     -5302.5116      211.28654      61018.515      231.09796    
     48370   902.25587     -5482.0126     -5302.9921      23.63463       61020.16       231.11479    
     48380   897.94147     -5481.6797     -5303.5152     -155.68067      61021.93       231.1195     
     48390   894.06721     -5481.5021     -5304.1063     -355.00249      61022.722      231.11387    
     48400   898.55683     -5483.0753     -5304.7888     -610.45592      61021.355      231.10076    
     48410   890.6921      -5482.3231     -5305.5971     -638.92746      61016.593      231.08782    
     48420   887.75603     -5482.7212     -5306.5777     -666.88787      61008.102      231.09415    
     48430   876.47242     -5481.6449     -5307.7402     -563.63901      60995.84       231.11965    
     48440   863.90341     -5480.4642     -5309.0534     -441.51354      60980.353      231.15717    
     48450   869.62608     -5483.0145     -5310.4683     -431.60831      60962.288      231.20921    
     48460   868.62072     -5484.2622     -5311.9154     -297.85192      60941.86       231.2661     
     48470   868.42402     -5485.6135     -5313.3058     -151.43229      60919.758      231.30335    
     48480   870.69352     -5487.3065     -5314.5485     -64.902036      60896.829      231.3106     
     48490   874.41055     -5489.0892     -5315.5937     -73.255698      60873.557      231.29408    
     48500   886.31875     -5492.306      -5316.4477     -192.10953      60849.897      231.27184    
     48510   886.2641      -5492.9875     -5317.1401     -277.80181      60825.242      231.25208    
     48520   869.00315     -5490.0919     -5317.6692     -171.44736      60799.182      231.22601    
     48530   860.71925     -5488.7827     -5318.0037     -157.19472      60772.139      231.18411    
     48540   865.43412     -5489.8733     -5318.1588     -202.90266      60744.258      231.12857    
     48550   865.42304     -5489.8795     -5318.1672     -179.75648      60715.318      231.06516    
     48560   853.21767     -5487.3314     -5318.0408     -26.567082      60685.487      230.99998    
     48570   845.18133     -5485.4641     -5317.768       56.359506      60655.53       230.93698    
     48580   850.64604     -5486.1211     -5317.3407     -29.182974      60625.863      230.86835    
     48590   856.39937     -5486.7074     -5316.7855     -123.11615      60596.058      230.79237    
     48600   852.09777     -5485.196      -5316.1276      53.286587      60565.773      230.71744    
     48610   854.18012     -5484.865      -5315.3834      194.21061      60535.806      230.64937    
     48620   860.77702     -5485.3535     -5314.563       345.65565      60507.048      230.58945    
     48630   864.73582     -5485.2755     -5313.6995      460.72207      60480.299      230.53185    
     48640   874.23756     -5486.287      -5312.8257      458.35869      60456.194      230.47124    
     48650   890.2256      -5488.6135     -5311.98        296.44804      60434.672      230.42115    
     48660   892.44841     -5488.2799     -5311.2054      135.19546      60414.867      230.40367    
     48670   888.69643     -5486.8499     -5310.5198      18.520252      60395.849      230.4272     
     48680   879.62512     -5484.4153     -5309.8851      31.046149      60377.018      230.48976    
     48690   878.19934     -5483.5089     -5309.2616      75.834597      60358.394      230.57568    
     48700   889.79627     -5485.184      -5308.6356      60.254048      60340.173      230.65677    
     48710   896.72238     -5485.9475     -5308.0249      10.877906      60322.262      230.71986    
     48720   895.31351     -5485.0986     -5307.4556     -61.619033      60304.408      230.7665     
     48730   894.3398      -5484.3735     -5306.9237     -137.639        60286.203      230.79281    
     48740   894.70407     -5483.9301     -5306.408      -191.82744      60267.216      230.79715    
     48750   896.61746     -5483.814      -5305.9122     -240.92349      60247.13       230.78815    
     48760   900.63104     -5484.1326     -5305.4345     -213.78415      60225.706      230.78549    
     48770   902.75574     -5484.0981     -5304.9785     -24.546776      60203.159      230.80601    
     48780   905.7311      -5484.2637     -5304.5536      179.22465      60180.432      230.84647    
     48790   905.63426     -5483.8499     -5304.159       377.23476      60158.695      230.90511    
     48800   906.87689     -5483.7404     -5303.803       537.4891       60139.059      230.98564    
     48810   906.3041      -5483.3064     -5303.4827      670.49756      60122.427      231.09037    
     48820   904.27495     -5482.6102     -5303.1891      818.47821      60109.582      231.22237    
     48830   907.51317     -5482.9768     -5302.9132      842.68752      60101.288      231.38913    
     48840   914.0294      -5484.0234     -5302.6669      769.01354      60097.695      231.58497    
     48850   914.18946     -5483.863      -5302.4748      718.45505      60098.447      231.79434    
     48860   909.44202     -5482.7809     -5302.3346      750.60394      60103.348      232.00782    
     48870   906.07934     -5482.0111     -5302.232       726.28517      60112.506      232.22514    
     48880   902.87399     -5481.2904     -5302.1473      735.77911      60125.849      232.44972    
     48890   896.30368     -5479.9076     -5302.0681      748.22992      60143.385      232.68232    
     48900   891.36964     -5478.8346     -5301.9741      763.88081      60165.177      232.93196    
     48910   893.36413     -5479.1016     -5301.8453      738.23355      60191.326      233.20791    
     48920   899.09776     -5480.0706     -5301.6767      632.53033      60221.669      233.5073     
     48930   898.58006     -5479.775      -5301.4839      628.33523      60255.74       233.81979    
     48940   897.53544     -5479.3458     -5301.2619      576.65601      60293.422      234.12119    
     48950   906.49314     -5480.8674     -5301.0062      340.29919      60334.336      234.39734    
     48960   916.73997     -5482.6381     -5300.7437      88.249013      60377.211      234.65844    
     48970   924.0602      -5483.8674     -5300.5207     -99.841199      60420.59       234.91259    
     48980   918.41361     -5482.5828     -5300.3563     -121.23394      60463.454      235.1675     
     48990   918.75377     -5482.5553     -5300.2614     -107.12841      60505.583      235.44215    
     49000   921.19681     -5483.0068     -5300.2282     -119.38471      60547.046      235.73751    
     49010   923.47075     -5483.5093     -5300.2795     -154.48211      60587.749      236.02903    
     49020   925.56447     -5484.085      -5300.4397     -278.28907      60627.404      236.29617    
     49030   915.58275     -5482.3942     -5300.7294     -241.22415      60665.478      236.54155    
     49040   905.11171     -5480.7158     -5301.1287     -136.59432      60702.12       236.77174    
     49050   913.33697     -5482.8501     -5301.631      -142.64886      60737.766      236.9841     
     49060   908.92949     -5482.6014     -5302.2568     -76.253595      60772.508      237.18239    
     49070   901.97971     -5481.9602     -5302.9945     -68.190518      60806.62       237.37527    
     49080   902.96822     -5482.9841     -5303.8223     -204.3648       60840.083      237.57899    
     49090   899.96019     -5483.2852     -5304.7202     -368.11228      60872.172      237.80141    
     49100   898.82814     -5484.0004     -5305.66       -508.57787      60901.979      238.02591    
     49110   895.42631     -5484.2706     -5306.6052     -630.02082      60928.681      238.23727    
     49120   889.86634     -5484.0934     -5307.5312     -681.72127      60951.595      238.44208    
     49130   882.57889     -5483.5031     -5308.3868     -692.93969      60970.38       238.64339    
     49140   874.80599     -5482.7131     -5309.1391     -642.87728      60985.017      238.83003    
     49150   866.29189     -5481.6493     -5309.7646     -520.00507      60995.846      238.99581    
     49160   851.57172     -5479.1876     -5310.2236     -333.94304      61003.6        239.14819    
     49170   848.68452     -5478.8763     -5310.4852     -260.39247      61009.268      239.29026    
     49180   860.1308      -5481.2168     -5310.5545     -245.78032      61013.349      239.41695    
     49190   862.43949     -5481.5863     -5310.466      -146.11681      61015.996      239.52853    
     49200   858.13416     -5480.499      -5310.2329     -61.501992      61017.767      239.64229    
     49210   854.8846      -5479.4707     -5309.8494     -61.574787      61019.134      239.76029    
     49220   854.99149     -5478.9426     -5309.3001     -75.71658       61020.159      239.86806    
     49230   860.54136     -5479.3341     -5308.5904     -123.16109      61020.748      239.94985    
     49240   865.79016     -5479.5322     -5307.7471     -217.56665      61020.578      239.99745    
     49250   879.97934     -5481.4105     -5306.81       -319.92944      61019.145      240.01623    
     49260   895.28977     -5483.4781     -5305.8398     -326.23557      61015.943      240.02875    
     49270   898.93453     -5483.2863     -5304.9248     -129.39684      61011.028      240.06736    
     49280   900.89685     -5482.8549     -5304.104       78.587492      61005.424      240.14995    
     49290   904.07421     -5482.7725     -5303.3912      250.54643      61000.354      240.25801    
     49300   898.72773     -5481.1066     -5302.7861      419.70382      60996.839      240.36025    
     49310   896.05608     -5480.0544     -5302.2641      455.44126      60995.69       240.44156    
     49320   898.92255     -5480.1603     -5301.8012      339.59858      60997.108      240.50138    
     49330   909.24223     -5481.8104     -5301.4037      101.14551      61000.443      240.55394    
     49340   917.85223     -5483.2064     -5301.0914     -92.542219      61004.371      240.61145    
     49350   924.54083     -5484.3373     -5300.8951     -187.88706      61007.766      240.67115    
     49360   926.74966     -5484.6984     -5300.818      -127.13776      61010.126      240.72894    
     49370   921.08459     -5483.6071     -5300.8507     -45.853345      61011.684      240.78132    
     49380   915.09379     -5482.533      -5300.9652      56.930425      61012.96       240.82553    
     49390   909.68943     -5481.6237     -5CHGNet v0.3.0 initialized with 412,525 parameters
CHGNet will run on cuda:0
CHGNet will run on cuda:0
301.1282      90.231045      61014.528      240.86185    
     49400   911.53827     -5482.1873     -5301.325       22.776342      61016.581      240.89742    
     49410   911.57601     -5482.4227     -5301.553      -60.887491      61018.784      240.93532    
     49420   914.88401     -5483.3379     -5301.8118     -189.27374      61020.588      240.97905    
     49430   935.28694     -5487.7094     -5302.135      -474.1572       61021.181      241.03027    
     49440   932.67        -5487.6372     -5302.5821     -525.70904      61019.15       241.08936    
     49450   909.79527     -5483.6488     -5303.1324     -390.86554      61014.204      241.1524     
     49460   901.29384     -5482.5421     -5303.7125     -370.76526      61007.018      241.21701    
     49470   896.06704     -5482.0752     -5304.2827     -385.32657      60997.763      241.27847    
     49480   885.86712     -5480.5822     -5304.8134     -291.50106      60986.489      241.32849    
     49490   876.36339     -5479.1488     -5305.2658     -147.86076      60973.75       241.37123    
     49500   879.2308      -5480.0676     -5305.6156     -84.455925      60960.302      241.42459    
     49510   887.40413     -5481.9514     -5305.8777     -50.900535      60946.562      241.49516    
     49520   895.14896     -5483.6953     -5306.0849     -40.832954      60932.739      241.58045    
     49530   903.65121     -5485.5743     -5306.277      -69.093496      60918.868      241.66862    
     49540   905.86304     -5486.2233     -5306.4871     -57.004005      60904.85       241.75429    
     49550   901.00156     -5485.4872     -5306.7156     -90.579572      60890.728      241.83014    
     49560   895.70958     -5484.672      -5306.9504     -225.73456      60876.259      241.8707     
     49570   888.70285     -5483.502      -5307.1706     -316.26323      60860.772      241.85182    
     49580   880.95157     -5482.1422     -5307.3488     -387.69392      60843.772      241.77285    
     49590   875.79782     -5481.2311     -5307.4602     -464.27105      60824.863      241.64215    
     49600   877.02184     -5481.5046     -5307.4909     -514.77766      60803.636      241.48138    
     49610   879.81854     -5482.0034     -5307.4348     -519.6744       60779.852      241.32849    
     49620   880.39032     -5481.9697     -5307.2877     -490.95997      60753.521      241.21497    
     49630   881.78211     -5481.9943     -5307.0361     -459.04067      60724.861      241.14735    
     49640   888.6792      -5482.9911     -5306.6644     -391.52539      60694.128      241.11163    
     49650   883.54265     -5481.4581     -5306.1506     -139.09055      60661.855      241.07962    
     49660   876.38946     -5479.3352     -5305.447       132.37205      60629.449      241.02702    
     49670   889.9157      -5481.0623     -5304.4902      185.28529      60598.339      240.94897    
     49680   901.52676     -5482.1532     -5303.2774      157.10367      60568.863      240.8604     
     49690   904.91008     -5481.4204     -5301.8733      176.61731      60540.884      240.7699     
     49700   911.49498     -5481.2245     -5300.3708      181.2452       60514.459      240.67825    
     49710   922.21228     -5481.8643     -5298.8841      211.88578      60489.603      240.59234    
     49720   931.83376     -5482.4399     -5297.5508      296.59936      60466.466      240.52457    
     49730   936.3401      -5482.2437     -5296.4604      565.75588      60445.603      240.49461    
     49740   942.09647     -5482.5729     -5295.6474      796.24876      60428.355      240.51758    
     49750   946.85159     -5482.9757     -5295.1068      945.68585      60416.003      240.58237    
     49760   949.02425     -5483.1306     -5294.8306      899.46639      60409.18       240.67809    
     49770   942.41624     -5481.7676     -5294.7787      794.0648       60407.591      240.80615    
     49780   930.04843     -5479.4341     -5294.8992      733.88983      60410.585      240.95968    
     49790   921.20033     -5477.9059     -5295.1265      670.7846       60417.679      241.1279     
     49800   918.75426     -5477.7144     -5295.4204      623.57102      60428.473      241.30417    
     49810   916.20025     -5477.5507     -5295.7634      669.52717      60442.677      241.48499    
     49820   913.05728     -5477.3038     -5296.1402      611.88661      60460.346      241.67429    
     49830   915.22237     -5478.1428     -5296.5496      339.27041      60481.042      241.88306    
     49840   910.96242     -5477.7294     -5296.9814      130.05773      60503.335      242.12019    
     49850   904.76619     -5476.9523     -5297.4337      12.531826      60525.965      242.37842    
     49860   896.18828     -5475.6918     -5297.8752     -33.936509      60548.22       242.63672    
     49870   890.86813     -5475.037      -5298.276       26.652495      60569.926      242.87922    
     49880   897.82925     -5476.7769     -5298.6347      31.936709      60591.335      243.09729    
     49890   896.84994     -5476.9131     -5298.9652      142.99806      60612.563      243.29626    
     49900   889.26859     -5475.7148     -5299.2712      264.57082      60634.171      243.49671    
     49910   891.19155     -5476.3623     -5299.5371      292.56367      60656.817      243.71722    
     49920   899.89273     -5478.323      -5299.7714      244.73803      60680.637      243.9501     
     49930   904.00222     -5479.3619     -5299.995       354.45209      60705.495      244.18163    
     49940   912.76796     -5481.3497     -5300.2435      459.56368      60731.858      244.41769    
     49950   915.56068     -5482.2019     -5300.5416      561.01066      60760.333      244.67828    
     49960   914.58705     -5482.3784     -5300.9112      600.76123      60791.455      244.9632     
     49970   906.83448     -5481.2677     -5301.3388      473.3672       60825.315      245.25112    
     49980   895.28758     -5479.4396     -5301.8017      213.20389      60861.145      245.52471    
     49990   879.54826     -5476.7552     -5302.2403      62.395679      60897.614      245.77544    
     50000   877.39469     -5476.7095     -5302.6218     -130.67508      60933.734      245.99042    
Loop time of 5804.14 on 1 procs for 20000 steps with 1536 atoms

Performance: 0.298 ns/day, 80.613 hours/ns, 3.446 timesteps/s, 5.293 katom-step/s
132.5% CPU use with 1 MPI tasks x 1 OpenMP threads

MPI task timing breakdown:
Section |  min time  |  avg time  |  max time  |%varavg| %total
---------------------------------------------------------------
Pair    | 5723.7     | 5723.7     | 5723.7     |   0.0 | 98.61
Bond    | 0.0071043  | 0.0071043  | 0.0071043  |   0.0 |  0.00
Neigh   | 5.1586     | 5.1586     | 5.1586     |   0.0 |  0.09
Comm    | 0.63911    | 0.63911    | 0.63911    |   0.0 |  0.01
Output  | 72.921     | 72.921     | 72.921     |   0.0 |  1.26
Modify  | 1.5251     | 1.5251     | 1.5251     |   0.0 |  0.03
Other   |            | 0.1417     |            |       |  0.00

Nlocal:           1536 ave        1536 max        1536 min
Histogram: 1 0 0 0 0 0 0 0 0 0
Nghost:           2325 ave        2325 max        2325 min
Histogram: 1 0 0 0 0 0 0 0 0 0
Neighs:              0 ave           0 max           0 min
Histogram: 1 0 0 0 0 0 0 0 0 0
FullNghs:        39016 ave       39016 max       39016 min
Histogram: 1 0 0 0 0 0 0 0 0 0

Total # of neighbors = 39016
Ave neighs/atom = 25.401042
Ave special neighs/atom = 0
Neighbor list builds = 2000
Dangerous builds = 2000
System init for write_data ...
System init for write_restart ...
Total wall time: 2:31:21
