LAMMPS (29 Sep 2021 - Update 3)
OMP_NUM_THREADS environment is not set. Defaulting to 1 thread. (src/comm.cpp:98)
  using 1 OpenMP thread(s) per MPI task
Reading data file ...
  orthogonal box = (0.0000000 0.0000000 0.0000000) to (18.492711 18.368364 83.044081)
  2 by 1 by 8 MPI processor grid
  reading atoms ...
  864 atoms
Finding 1-2 1-3 1-4 neighbors ...
  special bond factors lj:    0        0        0       
  special bond factors coul:  0        0        0       
     0 = max # of 1-2 neighbors
     0 = max # of 1-3 neighbors
     0 = max # of 1-4 neighbors
     1 = max # of special neighbors
  special bonds CPU = 0.001 seconds
  read_data CPU = 0.010 seconds
Neighbor list info ...
  update every 1 steps, delay 10 steps, check yes
  max neighbors/atom: 2000, page size: 100000
  master list distance cutoff = 6.22
  ghost atom cutoff = 6.22
  binsize = 3.11, bins = 6 6 27
  1 neighbor lists, perpetual/occasional/extra = 1 0 0
  (1) pair quip, perpetual
      attributes: full, newton on
      pair build: full/bin
      stencil: full/bin/3d
      bin: standard
Setting up Verlet run ...
  Unit style    : metal
  Current step  : 0
  Time step     : 0.001
Per MPI rank memory allocation (min/avg/max) = 8.888 | 8.895 | 8.900 Mbytes
Step Temp PotEng TotEng Press Volume c_msd[4] 
       0            0   -7973.6696   -7973.6696   -2874.2394    28208.484            0 
      10    41.278351   -7978.2784   -7973.6737   -2959.4518    28208.484 0.00023887099 
      20    117.01377   -7986.7312   -7973.6782   -2971.9336    28208.484 0.0029537371 
      30    174.81925   -7993.1785   -7973.6771   -2824.2466    28208.484  0.010160551 
      40    218.44962    -7998.045   -7973.6766   -2720.6333    28208.484  0.020641735 
      50    256.00476   -8002.2349   -7973.6771   -2700.3711    28208.484  0.032489043 
      60    281.23595   -8005.0509   -7973.6786   -2720.3164    28208.484  0.045481137 
      70    279.84796   -8004.8936   -7973.6762   -2497.2427    28208.484  0.060875411 
      80    275.57271   -8004.4166   -7973.6761   -2346.6282    28208.484  0.078472831 
      90    275.14134   -8004.3684    -7973.676   -2375.5075    28208.484  0.097756432 
     100    277.97329   -8004.6843   -7973.6759   -2450.2098    28208.484   0.11838341 
     110    284.32121   -8005.3929   -7973.6764   -2585.3887    28208.484    0.1397563 
     120    288.42818   -8005.8514   -7973.6768   -2555.7238    28208.484   0.16133553 
     130    287.27066   -8005.7216   -7973.6761   -2379.8786    28208.484   0.18293983 
     140    286.58177   -8005.6454   -7973.6767   -2199.4073    28208.484   0.20440576 
     150    283.09159    -8005.256   -7973.6767   -2058.8623    28208.484   0.22545748 
     160    281.87093     -8005.12   -7973.6769   -2002.9487    28208.484   0.24504756 
     170    281.00839    -8005.024   -7973.6771   -2057.3307    28208.484   0.26222423 
     180    282.68046     -8005.21   -7973.6765   -2118.7926    28208.484   0.27648184 
     190    291.53832   -8006.1995   -7973.6779   -2237.0667    28208.484   0.28923786 
     200    293.64302   -8006.4325   -7973.6762   -2373.3356    28208.484   0.30372277 
     210    298.64228   -8006.9936   -7973.6796   -2435.1957    28208.484   0.32052492 
     220    292.65421   -8006.3221   -7973.6761   -2273.8456    28208.484   0.33666335 
     230    296.18967   -8006.7198   -7973.6794   -2277.4624    28208.484   0.34931106 
     240    282.07352   -8005.1401   -7973.6743   -2198.7147    28208.484   0.36070053 
     250    293.47873    -8006.417    -7973.679   -2346.9356    28208.484   0.37209929 
     260    294.86866   -8006.5718   -7973.6788   -2406.0825    28208.484   0.38456478 
     270    292.66954   -8006.3399   -7973.6921   -2371.6679    28208.484   0.39632792 
     280    288.22645   -8005.8424   -7973.6903   -2343.9303    28208.484   0.40740341 
     290    280.03766   -8004.9272   -7973.6886   -2399.6918    28208.484   0.41930862 
     300    280.42672   -8004.9707   -7973.6886   -2493.7264    28208.484   0.43203295 
     310    287.66524   -8005.7795     -7973.69   -2540.7382    28208.484   0.44617059 
     320    287.59248   -8005.7709   -7973.6895   -2479.6365    28208.484   0.46153129 
     330    287.30367   -8005.7384   -7973.6892   -2430.7941    28208.484   0.47558463 
     340      291.107   -8006.1632   -7973.6897   -2433.3574    28208.484   0.48761679 
     350    290.07985   -8006.0486   -7973.6898   -2407.8749    28208.484   0.49931209 
     360    283.46216   -8005.3096    -7973.689    -2324.857    28208.484   0.51138392 
     370    283.31611   -8005.2933    -7973.689   -2223.9029    28208.484   0.52363749 
     380    293.81781   -8006.4657   -7973.6899   -2201.7975    28208.484   0.53571675 
     390    300.79692   -8007.2454   -7973.6911   -2203.1603    28208.484   0.54763687 
     400    296.63974     -8006.78   -7973.6894   -2207.2978    28208.484   0.55946952 
     410     295.9675   -8006.7055   -7973.6899    -2389.454    28208.484   0.57119336 
     420    296.34311   -8006.7466   -7973.6891   -2528.2941    28208.484   0.58115249 
     430    302.08464   -8007.3879   -7973.6899   -2546.6384    28208.484   0.58802692 
     440    300.89773   -8007.2566    -7973.691   -2408.1467    28208.484   0.59313659 
     450    295.75798   -8006.6815   -7973.6893   -2201.4544    28208.484   0.59704421 
     460    298.71554   -8007.0127   -7973.6905   -2097.6901    28208.484   0.60034051 
     470    293.57038   -8006.4367   -7973.6885   -1853.8963    28208.484   0.60455383 
     480    299.68957   -8007.1205   -7973.6897   -1687.1392    28208.484   0.60898733 
     490    304.28303    -8007.634   -7973.6908   -1569.5251    28208.484   0.61372446 
     500    297.76534   -8006.9049   -7973.6887   -1520.9163    28208.484   0.61909997 
     510     298.0343    -8006.936   -7973.6898   -1578.3555    28208.484     0.624484 
     520    298.51386   -8006.9892   -7973.6895   -1617.2528    28208.484   0.63055005 
     530    299.67651    -8007.119   -7973.6896   -1583.6011    28208.484   0.63765456 
     540    301.93935   -8007.3714   -7973.6896    -1486.536    28208.484   0.64551302 
     550    304.04909   -8007.6074   -7973.6903   -1392.2763    28208.484    0.6536082 
     560    304.32541   -8007.6381   -7973.6901   -1287.1967    28208.484   0.66116979 
     570    303.65289   -8007.5627   -7973.6898   -1155.3607    28208.484   0.66831766 
     580    306.61685   -8007.8931   -7973.6895   -1197.3354    28208.484   0.67540713 
     590    314.13334   -8008.7329   -7973.6909   -1349.2051    28208.484   0.68183493 
     600    314.58012   -8008.7816   -7973.6897   -1383.1623    28208.484   0.68848067 
     610    313.36382   -8008.6461   -7973.6899   -1339.6031    28208.484   0.69624527 
     620     312.9428   -8008.5985   -7973.6893   -1300.0364    28208.484   0.70606469 
     630    317.72028    -8009.132   -7973.6899   -1341.7477    28208.484   0.71807814 
     640    322.57063   -8009.6733   -7973.6901   -1410.5145    28208.484   0.73069429 
     650    323.60168   -8009.7886   -7973.6903   -1540.2113    28208.484   0.74223138 
     660    318.39172   -8009.2068   -7973.6897   -1568.6259    28208.484   0.75263353 
     670    316.27474   -8008.9702   -7973.6892   -1586.0839    28208.484    0.7619451 
     680    320.95534   -8009.4935   -7973.6904   -1558.4885    28208.484   0.77150239 
     690    319.85933   -8009.3708     -7973.69    -1459.468    28208.484   0.78296875 
     700    315.81982   -8008.9199   -7973.6897   -1330.2989    28208.484   0.79605918 
     710    316.18394   -8008.9601   -7973.6893   -1285.6029    28208.484   0.80930055 
     720    321.99795   -8009.6098   -7973.6904   -1374.2337    28208.484   0.82124899 
     730    320.60154   -8009.4538   -7973.6902   -1440.5044    28208.484   0.83277534 
     740    316.58517   -8009.0043   -7973.6888   -1452.0725    28208.484    0.8439361 
     750    321.27163   -8009.5293    -7973.691   -1655.1798    28208.484     0.854338 
     760    314.38368   -8008.7598   -7973.6899   -1838.5562    28208.484   0.86584884 
     770     305.9368   -8007.8166   -7973.6889   -1999.9526    28208.484   0.87941766 
     780    305.71483   -8007.7927   -7973.6897   -2140.7584    28208.484   0.89394007 
     790    305.84031   -8007.8065   -7973.6896   -2209.2571    28208.484   0.90782838 
     800    306.48205   -8007.8784   -7973.6899   -2275.1918    28208.484   0.92026204 
     810    304.33355   -8007.6388   -7973.6899   -2343.4421    28208.484   0.93178116 
     820    297.82924   -8006.9125   -7973.6892   -2314.2529    28208.484    0.9431626 
     830    296.11711   -8006.7216   -7973.6893   -2340.1192    28208.484   0.95457823 
     840    299.50491   -8007.0998   -7973.6896   -2406.4366    28208.484   0.96506277 
     850    304.52466   -8007.6597   -7973.6895   -2460.7845    28208.484   0.97329313 
     860     310.8399   -8008.3649   -7973.6902   -2449.0401    28208.484   0.97916609 
     870    310.67413   -8008.3459   -7973.6897   -2327.6881    28208.484   0.98350092 
     880    309.42712   -8008.2065   -7973.6894   -2225.4629    28208.484   0.98651824 
     890    311.26126   -8008.4116   -7973.6899    -2248.854    28208.484   0.98981853 
     900    313.26109   -8008.6341   -7973.6893   -2271.1415    28208.484     0.995508 
     910    320.18937   -8009.4082   -7973.6906   -2399.0494    28208.484    1.0049166 
     920    319.06768   -8009.2826   -7973.6901    -2517.896    28208.484    1.0179539 
     930    311.48412   -8008.4358   -7973.6893   -2630.8665    28208.484    1.0322955 
     940    307.33364   -8007.9728   -7973.6893   -2692.4224    28208.484    1.0452919 
     950    306.79072   -8007.9125   -7973.6895   -2690.0291    28208.484    1.0559933 
     960    307.40028   -8007.9805   -7973.6895    -2685.778    28208.484    1.0648912 
     970    308.12458   -8008.0613   -7973.6895   -2650.3957    28208.484    1.0729687 
     980    308.40186   -8008.0924   -7973.6897   -2580.8757    28208.484    1.0808973 
     990    307.35297   -8007.9752   -7973.6895    -2481.356    28208.484    1.0887898 
    1000    307.21435     -8007.96   -7973.6898   -2353.6684    28208.484    1.0961224 
    1010    306.76152   -8007.9091   -7973.6894   -2248.7956    28208.484    1.1027335 
    1020    309.26646    -8008.189   -7973.6898   -2286.0041    28208.484    1.1099454 
    1030    310.25342   -8008.2989   -7973.6897   -2305.1256    28208.484    1.1183111 
    1040    307.62812   -8008.0062   -7973.6898    -2294.831    28208.484    1.1271276 
    1050    300.85261   -8007.2498   -7973.6892   -2274.7356    28208.484    1.1353455 
    1060    298.03491   -8006.9356   -7973.6894   -2274.0022    28208.484    1.1412949 
    1070     298.1827   -8006.9525   -7973.6898   -2240.2755    28208.484    1.1449307 
    1080    298.32389   -8006.9674   -7973.6889   -2186.0158    28208.484    1.1478628 
    1090    304.12167   -8007.6156   -7973.6903   -2224.5843    28208.484    1.1507358 
    1100    303.21342   -8007.5135   -7973.6896   -2273.1413    28208.484    1.1542182 
    1110    302.55349   -8007.4391   -7973.6888   -2350.8777    28208.484    1.1583885 
    1120    311.89752   -8008.4827   -7973.6901   -2437.4889    28208.484     1.162828 
    1130    317.78566     -8009.14   -7973.6905   -2446.8483    28208.484     1.167408 
    1140    311.56568   -8008.4454   -7973.6898   -2410.0182    28208.484    1.1717043 
    1150    303.07264   -8007.4971   -7973.6889   -2380.3816    28208.484    1.1751291 
    1160    303.70308   -8007.5677   -7973.6892    -2470.872    28208.484    1.1775178 
    1170    310.51899   -8008.3284   -7973.6895   -2617.7569    28208.484    1.1788381 
    1180    316.91994   -8009.0426   -7973.6898   -2682.3818    28208.484    1.1790698 
    1190    320.34041   -8009.4241   -7973.6896   -2666.8258    28208.484    1.1789053 
    1200    321.06279   -8009.5055   -7973.6905   -2603.0061    28208.484    1.1796194 
    1210    314.26027   -8008.7456   -7973.6894   -2485.4053    28208.484    1.1821764 
    1220    309.32884    -8008.196   -7973.6899    -2464.998    28208.484    1.1865082 
    1230    306.19371   -8007.8458   -7973.6895   -2530.8384    28208.484    1.1911967 
    1240    306.63151   -8007.8948   -7973.6896   -2616.4378    28208.484    1.1944331 
    1250    309.06475   -8008.1663   -7973.6897   -2607.8093    28208.484    1.1957913 
    1260    312.48643   -8008.5482   -7973.6898    -2462.899    28208.484    1.1957707 
    1270    312.94072   -8008.5995   -7973.6905   -2234.5909    28208.484    1.1949586 
    1280    309.44145   -8008.2076   -7973.6889   -2027.1289    28208.484    1.1941489 
    1290    314.87458   -8008.8149   -7973.6902   -1974.2087    28208.484    1.1943163 
    1300    319.36818   -8009.3159   -7973.6899   -1982.4404    28208.484     1.195877 
    1310    321.84143   -8009.5922   -7973.6903   -1943.5386    28208.484    1.1987306 
    1320    321.73486     -8009.58     -7973.69    -1845.706    28208.484    1.2036004 
    1330    320.53672   -8009.4466   -7973.6902   -1700.8294    28208.484    1.2106875 
    1340    314.45984   -8008.7682   -7973.6898   -1509.1942    28208.484    1.2186301 
    1350    308.88407   -8008.1459   -7973.6894   -1443.5528    28208.484    1.2257175 
    1360    308.85021   -8008.1421   -7973.6894   -1546.3935    28208.484    1.2310073 
    1370    314.64585   -8008.7893   -7973.6901   -1721.3694    28208.484     1.234708 
    1380    316.29012   -8008.9734   -7973.6908   -1817.9195    28208.484    1.2377498 
    1390    307.32275   -8007.9718   -7973.6895   -1803.5548    28208.484    1.2409119 
    1400    301.76471   -8007.3515   -7973.6892   -1859.1426    28208.484    1.2443267 
    1410    303.86241   -8007.5861   -7973.6897   -1936.9087    28208.484    1.2481193 
    1420    306.88628   -8007.9231   -7973.6894   -1917.1497    28208.484    1.2526965 
    1430    311.21927   -8008.4068   -7973.6898   -1887.7633    28208.484    1.2583105 
    1440    313.42496   -8008.6528   -7973.6898   -1851.4527    28208.484    1.2642026 
    1450     313.3569   -8008.6451   -7973.6897   -1798.7574    28208.484     1.269636 
    1460    313.21275   -8008.6295   -7973.6901   -1825.1156    28208.484    1.2754342 
    1470    309.64761   -8008.2313   -7973.6896   -1804.0626    28208.484    1.2823313 
    1480    309.40126   -8008.2029   -7973.6887   -1783.0935    28208.484    1.2890305 
    1490    320.42565   -8009.4341   -7973.6901   -1893.3186    28208.484    1.2938055 
    1500    328.10175   -8010.2905   -7973.6903   -1974.4184    28208.484    1.2976917 
    1510    327.81197   -8010.2577   -7973.6898    -1937.058    28208.484    1.3022885 
    1520     324.2243   -8009.8576   -7973.6899   -1828.5619    28208.484    1.3070588 
    1530    318.99753   -8009.2739   -7973.6893   -1744.3097    28208.484    1.3111416 
    1540    315.99968   -8008.9401   -7973.6899   -1679.5222    28208.484    1.3147163 
    1550    311.82694   -8008.4737   -7973.6889   -1676.3191    28208.484     1.318865 
    1560    315.99733   -8008.9396   -7973.6896   -1782.1266    28208.484    1.3245612 
    1570    321.70035   -8009.5765   -7973.6904   -1943.6277    28208.484    1.3315419 
    1580    318.91113   -8009.2648   -7973.6898   -1980.5418    28208.484     1.338424 
    1590    316.40503   -8008.9842   -7973.6888   -1871.1257    28208.484    1.3448929 
    1600    323.69059   -8009.7984   -7973.6903   -1863.2593    28208.484    1.3517889 
    1610    324.55521    -8009.895   -7973.6903   -1926.3043    28208.484    1.3589892 
    1620    317.22283   -8009.0757    -7973.689    -2033.451    28208.484    1.3640281 
    1630    315.56944   -8008.8917   -7973.6895   -2189.5743    28208.484    1.3650114 
    1640          316   -8008.9396   -7973.6894   -2246.5115    28208.484     1.363698 
    1650     317.3618   -8009.0917   -7973.6895   -2167.3771    28208.484    1.3628757 
    1660    317.92845   -8009.1553   -7973.6899   -2101.0814    28208.484    1.3639966 
    1670    314.61233   -8008.7852   -7973.6897   -2010.9785    28208.484    1.3669961 
    1680    312.18324   -8008.5133   -7973.6888   -2055.2147    28208.484     1.371293 
    1690    317.45918   -8009.1028   -7973.6897    -2191.224    28208.484    1.3761955 
    1700    321.08797   -8009.5076   -7973.6898   -2266.1824    28208.484    1.3813209 
    1710    322.36089   -8009.6492   -7973.6893   -2262.0514    28208.484    1.3861808 
    1720    325.18317   -8009.9643   -7973.6896   -2258.3202    28208.484    1.3904451 
    1730    326.15411   -8010.0728   -7973.6898    -2317.316    28208.484     1.394947 
    1740     323.8725   -8009.8181   -7973.6896   -2287.8062    28208.484    1.4007384 
    1750    320.41839   -8009.4325   -7973.6894   -2200.4994    28208.484    1.4075406 
    1760     319.2517   -8009.3028   -7973.6898   -2148.7833    28208.484     1.414045 
    1770    317.70647   -8009.1306     -7973.69    -2060.265    28208.484    1.4199919 
    1780    313.91842   -8008.7076   -7973.6895   -1900.1987    28208.484    1.4259827 
    1790    313.00692   -8008.6058   -7973.6894   -1752.6987    28208.484    1.4322179 
    1800     316.3606   -8008.9805     -7973.69   -1656.4741    28208.484    1.4376798 
    1810    317.06323    -8009.059   -7973.6901   -1611.9912    28208.484    1.4414287 
    1820    314.75826    -8008.801   -7973.6892    -1594.078    28208.484    1.4434919 
    1830    319.39788   -8009.3191   -7973.6898   -1580.2478    28208.484    1.4448335 
    1840    326.94741   -8010.1618   -7973.6903   -1586.0007    28208.484    1.4478206 
    1850     328.2751   -8010.3099   -7973.6903   -1510.9657    28208.484    1.4534245 
    1860    325.54844   -8010.0044    -7973.689   -1434.8489    28208.484    1.4597334 
    1870    330.22766   -8010.5276   -7973.6902   -1485.8246    28208.484    1.4649668 
    1880    331.47708   -8010.6665   -7973.6897   -1548.2944    28208.484    1.4702024 
    1890    330.21474   -8010.5256   -7973.6896   -1516.0861    28208.484    1.4764703 
    1900    331.58833   -8010.6782    -7973.689   -1442.8287    28208.484    1.4834549 
    1910    337.92691   -8011.3872    -7973.691   -1475.0881    28208.484    1.4904186 
    1920     332.3277   -8010.7614   -7973.6897   -1417.3686    28208.484    1.4973123 
    1930    326.40875   -8010.1005   -7973.6891    -1294.946    28208.484    1.5028962 
    1940    327.61985   -8010.2367   -7973.6902   -1344.4187    28208.484    1.5071937 
    1950    326.33555   -8010.0933   -7973.6901   -1454.2005    28208.484    1.5117741 
    1960    320.98412   -8009.4961   -7973.6898    -1539.947    28208.484    1.5179832 
    1970    316.38994    -8008.983   -7973.6892   -1494.5471    28208.484    1.5266599 
    1980    318.66568   -8009.2379   -7973.6903    -1430.619    28208.484     1.537506 
    1990    319.09324   -8009.2848   -7973.6895   -1383.3475    28208.484     1.548395 
    2000    324.20331   -8009.8559   -7973.6905   -1553.3118    28208.484     1.556546 
Loop time of 1151.95 on 16 procs for 2000 steps with 864 atoms

Performance: 0.150 ns/day, 159.993 hours/ns, 1.736 timesteps/s
97.7% CPU use with 16 MPI tasks x 1 OpenMP threads

MPI task timing breakdown:
Section |  min time  |  avg time  |  max time  |%varavg| %total
---------------------------------------------------------------
Pair    | 735.71     | 949.18     | 1123.2     | 368.7 | 82.40
Bond    | 0.0001936  | 0.00069238 | 0.0012143  |   0.0 |  0.00
Neigh   | 0.021174   | 0.025228   | 0.029717   |   1.8 |  0.00
Comm    | 28.057     | 198.25     | 415.4      | 804.0 | 17.21
Output  | 0.29753    | 4.4054     | 14.613     | 225.5 |  0.38
Modify  | 0.0091298  | 0.010463   | 0.014049   |   1.4 |  0.00
Other   |            | 0.07003    |            |       |  0.01

Nlocal:        54.0000 ave          63 max          48 min
Histogram: 5 0 1 2 2 1 1 2 0 2
Nghost:        409.688 ave         449 max         386 min
Histogram: 3 3 1 3 2 1 1 0 0 2
Neighs:         0.00000 ave           0 max           0 min
Histogram: 16 0 0 0 0 0 0 0 0 0
FullNghs:      1604.62 ave        2106 max        1301 min
Histogram: 5 0 2 2 2 0 2 1 1 1

Total # of neighbors = 25674
Ave neighs/atom = 29.715278
Ave special neighs/atom = 0.0000000
Neighbor list builds = 199
Dangerous builds = 198
Setting up Verlet run ...
  Unit style    : metal
  Current step  : 2000
  Time step     : 0.001
Per MPI rank memory allocation (min/avg/max) = 8.893 | 8.897 | 8.900 Mbytes
Step Temp PotEng TotEng Press Volume c_msd[4] 
    2000        937.5   -8009.8559   -7905.2763    1037.1989    28208.484     1.556546 
    2010    874.83011   -8002.8459   -7905.2572    1368.6805    28209.667    1.5609893 
    2020    775.10209   -7991.5825   -7905.1187    1878.2076    28213.801    1.5710105 
    2030    705.12653   -7983.3805   -7904.7226    2312.4095    28221.933    1.5825685 
    2040    658.49411   -7977.4481   -7903.9921    2637.2532    28235.001    1.5966126 
    2050    633.32105   -7973.5889    -7902.941    2658.8044    28253.683    1.6153281 
    2060    628.06658   -7971.7663   -7901.7045    2399.1616    28278.061    1.6390572 
    2070    628.96772   -7970.6653    -7900.503    1891.3494    28307.607    1.6660717 
    2080      639.689   -7970.7761   -7899.4179    1113.9525    28341.236    1.6940458 
    2090     635.6965   -7969.2789    -7898.366    581.75007    28377.402    1.7227101 
    2100    624.47893   -7966.9254   -7897.2638    332.39883    28414.952    1.7522344 
    2110    615.03405   -7964.6586   -7896.0507    399.90803    28453.367    1.7809666 
    2120     617.6495   -7963.6212   -7894.7215    540.05823    28492.728    1.8072553 
    2130    620.09421   -7962.4728   -7893.3003    608.90999    28533.312    1.8314722 
    2140    626.62433   -7961.7291   -7891.8282    438.57479    28575.233    1.8525064 
    2150    655.11521   -7963.3632   -7890.2841   -19.199578    28618.096    1.8692123 
    2160    680.47325   -7964.5704   -7888.6625     -342.308     28660.97    1.8843184 
    2170    694.93228    -7964.524   -7887.0033   -519.22713    28703.125    1.9012012 
    2180    703.63999   -7963.8159   -7885.3238   -606.26715    28744.135    1.9213199 
    2190    706.20092   -7962.4064   -7883.6286   -632.10813    28783.777    1.9433394 
    2200    709.21005   -7961.0283   -7881.9149   -703.62211    28821.958    1.9646524 
    2210    707.92209   -7959.1492   -7880.1795   -848.52434    28858.489    1.9843475 
    2220    702.52318   -7956.7974   -7878.4298   -816.44879    28893.098    2.0013423 
    2230    701.72189   -7954.9457   -7876.6675   -796.73626    28925.791    2.0148708 
    2240    704.70003   -7953.4955   -7874.8852   -813.76355    28956.601      2.02691 
    2250    715.55862   -7952.9012   -7873.0796   -720.51309    28985.523    2.0401353 
    2260    733.17257   -7953.0322   -7871.2457   -670.56016    29012.729    2.0556536 
    2270    750.98841   -7953.1628   -7869.3889   -707.99727    29038.322    2.0738948 
    2280     757.0323    -7951.978   -7867.5299   -723.04576    29062.232    2.0960284 
    2290    762.61775   -7950.7554   -7865.6843   -766.85385    29084.413    2.1219874 
    2300    778.03185   -7950.6211   -7863.8305   -590.79316    29104.829    2.1502153 
    2310    779.98759   -7948.9907   -7861.9819   -105.28008    29123.918    2.1794245 
    2320    788.53987   -7948.1067   -7860.1439    82.912368    29142.646    2.2069873 
    2330    809.66778   -7948.6123   -7858.2927   -20.684892    29161.445    2.2313487 
    2340    818.63987   -7947.7622   -7856.4417     58.22287    29180.195    2.2533581 
    2350    825.56025   -7946.7137   -7854.6212    111.30093    29199.016    2.2732676 
    2360    838.12509   -7946.3126   -7852.8185   -71.787338    29217.978    2.2916797 
    2370    828.84709   -7943.5012   -7851.0421   -191.56705     29236.74    2.3126484 
    2380    831.45394   -7942.0468   -7849.2969   -334.57322    29255.012    2.3381559 
    2390    834.43613   -7940.6261   -7847.5435   -362.29603    29272.506     2.367891 
    2400    842.80701   -7939.8152   -7845.7989   -319.08268    29289.142    2.4020632 
    2410    850.62362    -7938.943   -7844.0547   -289.17846    29305.007    2.4392173 
    2420     853.9088   -7937.5825   -7842.3277   -261.11486    29320.172    2.4753772 
    2430    854.48515   -7935.9434   -7840.6243    -262.5412    29334.703    2.5069562 
    2440    862.42049   -7935.1376   -7838.9333   -314.75992      29348.6    2.5337464 
    2450    865.89246   -7933.8457   -7837.2541   -220.73392    29361.797    2.5589901 
    2460    866.27181   -7932.2304   -7835.5965   -38.176137    29374.487    2.5847279 
    2470    870.50047   -7931.0611   -7833.9554    174.25703    29387.077    2.6121559 
    2480    876.95206   -7930.1567   -7832.3314    211.87235    29400.012    2.6435397 
    2490    877.76063   -7928.6435    -7830.728    215.85928    29413.446    2.6800973 
    2500     885.5267   -7927.9274   -7829.1455   -29.085985    29427.323    2.7190456 
    2510     905.0561   -7928.5343   -7827.5739   -205.54196    29441.153    2.7556912 
    2520      932.748   -7930.0798   -7826.0304    -216.3457    29454.541    2.7878368 
    2530     952.4398   -7930.7995   -7824.5534   -207.74666    29467.418    2.8159584 
    2540    957.88799   -7930.0344   -7823.1806     -131.393    29479.821    2.8435683 
    2550    967.31767   -7929.8242   -7821.9184   -104.77756     29491.91    2.8753839 
    2560    975.36625   -7929.5705    -7820.767   -134.52071    29503.732    2.9134979 
    2570    960.37649   -7926.8639   -7819.7324    22.722006    29515.274    2.9539556 
    2580    967.53545   -7926.7217   -7818.7917   -93.404043    29526.796    2.9909043 
    2590    982.39743   -7927.5084   -7817.9205   -347.80487    29538.063    3.0256727 
    2600    981.74007   -7926.6676    -7817.153   -318.74818     29548.59    3.0610022 
    2610    988.56046   -7926.7831   -7816.5076   -405.08691    29558.338     3.096393 
    2620    977.94462   -7925.0741   -7815.9829   -420.15132    29567.156    3.1301499 
    2630     951.6136   -7921.7152   -7815.5613   -499.25548    29574.976    3.1627418 
    2640    932.53578   -7919.2123   -7815.1865   -713.23341     29581.61     3.195783 
    2650    929.99235    -7918.549   -7814.8069   -900.98627    29586.589    3.2298663 
    2660    943.01391   -7919.6037   -7814.4091   -1140.1832    29589.438    3.2658509 
    2670    954.47687   -7920.4901   -7814.0167   -1083.1595    29589.682     3.304561 
    2680    965.85365   -7921.4027   -7813.6603    -831.2181    29587.444    3.3448051 
    2690    982.39371   -7922.9602   -7813.3728   -817.08821     29583.21    3.3851198 
    2700    972.47531   -7921.6604   -7813.1793   -653.77338    29577.105    3.4253129 
    2710     961.8024   -7920.3624   -7813.0719    -555.1859    29569.464    3.4650989 
    2720    950.41379   -7919.0414   -7813.0213   -870.02807    29560.431     3.504116 
    2730    935.85612   -7917.3961   -7812.9999    -1123.615    29549.381    3.5405681 
    2740    944.03535    -7918.296   -7812.9874   -1223.5719    29535.722    3.5730005 
    2750    958.49563   -7919.9136   -7812.9919   -1143.4004    29519.222    3.6025002 
    2760    955.73329   -7919.6504   -7813.0369   -763.03917    29500.082    3.6309709 
    2770    954.41729   -7919.5864   -7813.1198   -383.74281    29479.122     3.657992 
    2780    960.72595    -7920.414   -7813.2435   -217.86839    29457.177    3.6817944 
    2790    957.99599   -7920.2783   -7813.4124   -29.509364    29434.705    3.7021796 
    2800    957.07397    -7920.396    -7813.633   -35.729185    29412.065    3.7213578 
    2810    944.99311   -7919.3065   -7813.8911    79.595713    29389.316    3.7412216 
    2820    937.42839   -7918.7379   -7814.1663    184.30267    29366.684    3.7613918 
    2830    946.78785   -7920.0602   -7814.4446    301.26876    29344.427    3.7827725 
    2840    969.77642   -7922.9371   -7814.7571    238.63521    29322.741    3.8070624 
    2850    968.68216   -7923.1963   -7815.1383    409.25665    29301.601    3.8346413 
    2860    951.34764   -7921.7059   -7815.5816    782.67349    29281.385    3.8632609 
    2870     922.0754   -7918.8925   -7816.0336    1006.6379    29262.877    3.8905459 
    2880    915.08203   -7918.5271   -7816.4483    849.25581    29246.556    3.9167167 
    2890    927.65679   -7920.3112   -7816.8297    338.61968    29232.042     3.944332 
    2900     918.0262   -7919.5903   -7817.1831    20.948888    29218.293    3.9753207 
    2910    914.18401   -7919.4746    -7817.496   -173.72274    29204.554     4.007664 
    2920     937.0923   -7922.3097   -7817.7757   -352.63027     29190.35    4.0404156 
    2930    942.96391   -7923.2409   -7818.0519   -317.05537    29175.318    4.0736739 
    2940    936.38864   -7922.7929   -7818.3373   -119.85843    29159.524    4.1014475 
    2950    931.21166   -7922.4977   -7818.6196    40.716498    29143.365    4.1200178 
    2960    923.81659   -7921.9337   -7818.8806    337.97543    29127.267     4.133141 
    2970    925.58377   -7922.3655   -7819.1152    623.88614    29111.853    4.1452738 
    2980    921.96673   -7922.1679   -7819.3211    978.36996    29097.783    4.1593742 
    2990    911.15255    -7921.128   -7819.4875    1308.0275    29085.843    4.1764232 
    3000     906.5728   -7920.7285   -7819.5989    1494.2957    29076.774    4.1973868 
    3010    909.50693   -7921.1046   -7819.6477    1467.7529    29070.993    4.2225642 
    3020    915.98264   -7921.8163    -7819.637     1265.026    29068.471    4.2491225 
    3030    924.41864   -7922.7048   -7819.5845    1003.8776    29068.793    4.2745779 
    3040    926.36965   -7922.8371   -7819.4991    837.71884    29071.457    4.2991495 
    3050    938.07083   -7924.0406   -7819.3974    554.89004    29076.038    4.3241832 
    3060     934.7588   -7923.5625   -7819.2888    499.31595    29081.988    4.3517485 
    3070    920.99274   -7921.9092   -7819.1711    512.69917    29089.146    4.3818169 
    3080    920.71258   -7921.7311   -7819.0243    539.45231    29097.563    4.4134713 
    3090    929.51408   -7922.5284   -7818.8397    483.05041    29107.307    4.4471757 
    3100    939.38713   -7923.4236   -7818.6335    450.75187     29118.29    4.4839938 
    3110    954.03873   -7924.8566   -7818.4322    540.72815    29130.473    4.5256521 
    3120    957.71086   -7925.0945   -7818.2604    713.74483    29144.087    4.5727093 
    3130    952.96734    -7924.442    -7818.137    814.71553    29159.505    4.6235786 
    3140    930.70084   -7921.8645   -7818.0434    1048.4411    29177.057    4.6755261 
    3150    923.38239   -7920.9527   -7817.9481    950.48215    29197.211    4.7242616 
    3160    907.63886   -7919.0655    -7817.817    759.54358    29219.844    4.7673667 
    3170    889.00485   -7916.7934   -7817.6235    766.95819     29244.63    4.8025862 
    3180    891.85232   -7916.8268   -7817.3394    735.46533    29271.565    4.8303027 
    3190    890.25542   -7916.2643    -7816.955    814.26327    29300.671     4.860374 
    3200    901.04962   -7916.9896   -7816.4762    567.07317    29332.071    4.8995361 
    3210    907.71132   -7917.1574   -7815.9008    152.71125    29365.279    4.9455631 
    3220    934.10956   -7919.4589   -7815.2576   -331.79478    29399.361    4.9929951 
    3230    948.73576   -7920.4139    -7814.581   -481.75688      29433.3    5.0416789 
    3240    945.26188   -7919.3769   -7813.9315   -456.48325    29466.691    5.0904693 
    3250     949.0648   -7919.1795   -7813.3099     -588.299    29499.528    5.1357239 
    3260    958.31206   -7919.6227   -7812.7215   -755.73916    29531.494    5.1783235 
    3270    941.77768   -7917.2355   -7812.1788   -645.46143    29562.249    5.2223019 
    3280    925.11779   -7914.8658   -7811.6676   -450.09813    29591.972    5.2669748 
    3290    916.33244   -7913.3631   -7811.1448   -232.01408    29621.124    5.3097327 
    3300    928.64611   -7914.1793   -7810.5874   -408.26484    29650.086    5.3491706 
    3310    942.55152   -7915.1385   -7809.9955   -692.21123    29678.491    5.3891969 
    3320    949.50961   -7915.3247   -7809.4055   -714.15967     29705.74    5.4339585 
    3330    946.99799   -7914.4837   -7808.8447   -466.15343    29731.767    5.4838002 
    3340    950.35124   -7914.3298   -7808.3167   -410.44862    29757.015    5.5367532 
    3350    959.12221   -7914.8072   -7807.8157   -661.51783    29781.577    5.5896903 
    3360    950.10298   -7913.3399   -7807.3545   -844.90814     29804.93    5.6407748 
    3370    942.74824   -7912.0934   -7806.9284   -916.49272    29826.612    5.6920825 
    3380    943.13624   -7911.7268   -7806.5185   -959.82596    29846.409    5.7457055 
    3390    941.60552   -7911.1569   -7806.1194   -1222.8604    29864.098    5.8018252 
    3400    935.45265   -7910.0795   -7805.7283   -1486.5358    29879.081    5.8586733 
    3410    930.96762    -7909.183   -7805.3322   -1689.0362    29890.719    5.9126103 
    3420    947.17273   -7910.5878   -7804.9292   -1873.9261     29898.44    5.9645651 
    3430    940.88756   -7909.4934    -7804.536   -1717.6994    29901.829    6.0187282 
    3440    942.21205   -7909.2675   -7804.1623   -1564.2312    29901.124    6.0705127 
    3450    955.20259   -7910.3572   -7803.8029   -1445.5022    29896.646    6.1156414 
    3460    966.80421   -7911.3348   -7803.4863   -1185.3537     29888.67    6.1578138 
    3470    963.48068   -7910.7125   -7803.2348   -765.94182    29877.806    6.2013064 
    3480     969.1133   -7911.1592   -7803.0532   -544.60841    29864.949    6.2459758 
    3490    970.92398   -7911.2512   -7802.9432   -414.78832    29850.645    6.2904983 
    3500     957.0399   -7909.6627   -7802.9034   -203.68515    29835.232    6.3335238 
    3510    940.75468    -7907.844   -7802.9014   -7.4076336     29819.19     6.371969 
    3520     926.7844   -7906.2669   -7802.8827    230.82768    29803.007    6.4037423 
    3530    949.54633   -7908.7665   -7802.8432     219.1014    29787.156    6.4309926 
    3540    963.87212   -7910.3438   -7802.8224    422.66015    29771.767    6.4577292 
    3550    961.48888     -7910.12   -7802.8644    688.23088    29757.285    6.4851491 
    3560    971.02639   -7911.3025    -7802.983    832.86549    29744.305    6.5166294 
    3570    973.42869   -7911.7777   -7803.1903    1042.6864    29733.248    6.5572292 
    3580     962.0214   -7910.7925   -7803.4776    1029.5829    29724.559     6.608882 
    3590    958.05026   -7910.6916   -7803.8197    712.96087    29718.207    6.6691027 
    3600    964.70043     -7911.82   -7804.2062    299.57037    29713.513    6.7338346 
    3610    965.55294   -7912.3676   -7804.6587   -55.298836    29709.515    6.8001165 
    3620    940.87655    -7910.099   -7805.1428   -6.3191599    29705.482    6.8659033 
    3630    944.17839   -7910.9573   -7805.6328   -120.40864    29701.382     6.931999 
    3640    956.59023    -7912.844   -7806.1349    -311.6821    29696.974    7.0031206 
    3650    970.08023   -7914.8942   -7806.6803    -504.0986    29691.818    7.0777044 
    3660    979.62594   -7916.5864   -7807.3077   -573.30211    29685.486    7.1505716 
    3670    967.66838   -7915.9571   -7808.0123   -308.26144    29677.852    7.2162188 
    3680    941.95551   -7913.8278   -7808.7512    186.35233    29669.531    7.2727795 
    3690    920.22043   -7912.1159   -7809.4639    257.73939    29661.542     7.327091 
    3700    908.60168   -7911.4645   -7810.1086   -199.79231    29654.048    7.3836761 
    3710    914.74145   -7912.7217   -7810.6809    -564.1581    29646.107    7.4392838 
    3720    934.17642   -7915.4139   -7811.2051   -634.72186    29636.881    7.4878033 
    3730    945.82511   -7917.2281   -7811.7199   -522.53797     29626.17     7.527791 
    3740    954.20392   -7918.6908   -7812.2479   -481.03632     29614.19    7.5639667 
    3750    971.61709   -7921.2119   -7812.8266   -626.95037    29601.012    7.5979597 
    3760    965.01882   -7921.1243    -7813.475    -673.8178    29586.358    7.6306142 
    3770    939.65147   -7918.9771   -7814.1575    -603.8417    29570.113    7.6618459 
    3780    923.39547   -7917.8269   -7814.8208   -377.73998     29552.44    7.6892789 
    3790    914.52229   -7917.4431   -7815.4267   -25.317365    29533.853    7.7137566 
    3800    901.34123   -7916.5014   -7815.9554    465.76593    29515.199    7.7374667 
    3810    892.12683      -7915.9   -7816.3819    763.27189    29497.553    7.7622834 
    3820    911.70613   -7918.4236   -7816.7214    433.51689    29481.509    7.7890774 
    3830    929.89975   -7920.7438   -7817.0121   -38.442728    29466.404    7.8198655 
    3840    925.53493   -7920.5265   -7817.2817   -174.20161     29451.23    7.8533259 
    3850    925.31079   -7920.7527   -7817.5329   -181.49424    29435.621    7.8847139 
    3860    924.97928    -7920.944   -7817.7612   -119.16735    29419.546    7.9123724 
    3870    918.23345   -7920.3917   -7817.9614    107.83457    29403.148    7.9384056 
    3880    918.65289   -7920.5992   -7818.1221    354.31928     29386.93     7.963661 
    3890    917.03462   -7920.5374   -7818.2408    642.25715    29371.471      7.98979 
    3900    914.60941   -7920.3403   -7818.3143    1102.0066    29357.458    8.0202254 
    3910    922.35232   -7921.2332   -7818.3434    1461.7822    29345.906    8.0579585 
    3920    920.25037   -7920.9938   -7818.3385    1526.8135     29337.62    8.1033606 
    3930    906.51544   -7919.4222    -7818.299    1496.0792    29332.799    8.1535513 
    3940    892.23987   -7917.7218   -7818.1911    1443.9476    29331.421    8.2048347 
    3950    892.70165   -7917.5684   -7817.9862    1322.7927     29333.37     8.253156 
    3960    902.63639   -7918.3676   -7817.6771    1112.4212    29338.381     8.295872 
    3970    912.38758   -7919.0594   -7817.2812    705.21611    29345.955    8.3322086 
    3980    913.20131   -7918.6879   -7816.8189    453.60532    29355.269     8.365565 
    3990    912.54529   -7918.1012   -7816.3054    344.55384    29365.744    8.3984361 
    4000    902.97589   -7916.4708   -7815.7425    384.20945    29377.142    8.4297964 
    4010    904.93593   -7916.0717   -7815.1248    487.13649    29389.548    8.4614658 
    4020    922.05866   -7917.3094   -7814.4524    439.00909    29403.179    8.4993825 
    4030    936.30948   -7918.1991   -7813.7524    400.56355    29417.973    8.5454189 
    4040    956.65837   -7919.7873   -7813.0706    440.82131     29433.85    8.5942357 
    4050    978.15287    -7921.559   -7812.4446    490.19244    29450.909      8.64268 
    4060    974.74801   -7920.6572   -7811.9226    593.26727    29469.281    8.6901736 
    4070    959.64954   -7918.5608   -7811.5105    539.19302    29489.171    8.7350832 
    4080    957.73285   -7918.0072   -7811.1706    247.56973    29510.466    8.7775304 
    4090    952.16763   -7917.0955   -7810.8798    135.48913    29532.599    8.8176371 
    4100    939.39813   -7915.4191   -7810.6278     53.81544    29555.268    8.8541724 
    4110    937.45941   -7914.9643   -7810.3893   -1.0540988    29578.283    8.8857698 
    4120     951.8533   -7916.3402   -7810.1595   -24.468742    29601.494    8.9136665 
    4130    947.98646   -7915.7015   -7809.9522    34.697151    29624.864    8.9421585 
    4140    934.66701   -7914.0312   -7809.7677    142.98975      29648.5    8.9710826 
    4150    928.70648   -7913.1691   -7809.5705    247.55958    29672.656    8.9955563 
    4160    934.56968   -7913.5931   -7809.3404    151.23349    29697.527    9.0135762 
    4170    946.51227   -7914.6752   -7809.0903    96.415287    29722.936    9.0273796 
    4180    956.65489   -7915.5648   -7808.8485    84.452284    29748.736    9.0443062 
    4190    951.44117     -7914.77   -7808.6353    136.32895    29774.884     9.071058 
    4200    946.35599   -7914.0154   -7808.4479     137.6142    29801.469     9.107967 
    4210    948.28676   -7914.0534   -7808.2706     82.22758    29828.485    9.1481625 
    4220    946.00865    -7913.632   -7808.1033   -33.977294     29855.78    9.1878993 
    4230    944.75207   -7913.3373   -7807.9487   -262.46944    29883.033    9.2279275 
    4240    935.77819   -7912.1861   -7807.7986   -336.75628    29909.751    9.2629331 
    4250    933.11455   -7911.7319   -7807.6416   -387.54269      29935.7    9.2850448 
    4260    947.36672   -7913.1548   -7807.4746   -621.23981    29960.709    9.2937474 
    4270     958.5886   -7914.2513   -7807.3193   -928.69629    29984.216    9.2965114 
    4280    955.75013   -7913.8189   -7807.2035   -1090.9678    30005.533    9.3008435 
    4290     953.4761   -7913.4895   -7807.1278   -1131.0473    30024.247    9.3101979 
    4300    960.59215   -7914.2458   -7807.0903   -1085.2184     30040.25    9.3274364 
    4310    964.26286   -7914.6719    -7807.107   -1157.9191    30053.584    9.3527959 
    4320    944.57493    -7912.548   -7807.1792   -1048.0153     30064.16     9.382507 
    4330    929.90804   -7911.0166    -7807.284   -1115.9717     30072.15    9.4083495 
    4340    918.03795   -7909.8002   -7807.3917   -1280.7898    30077.411    9.4285012 
    4350    894.93727   -7907.2881   -7807.4565   -1227.1697    30079.628     9.446963 
    4360     900.7761   -7907.9317   -7807.4487   -1392.0138    30078.818    9.4621764 
    4370    915.85286   -7909.5233   -7807.3586   -1503.9066    30074.657    9.4706932 
    4380    918.33442   -7909.6468   -7807.2052    -1408.992    30066.899    9.4739545 
    4390    926.17973   -7910.3119   -7806.9952   -1198.0317    30055.795    9.4746941 
    4400    950.59247   -7912.7822   -7806.7422   -1138.2419    30041.778    9.4720276 
    4410    969.97184   -7914.6848    -7806.483   -964.79171    30025.093    9.4662414 
    4420    987.33556   -7916.4092   -7806.2704   -924.00226    30006.071    9.4568225 
    4430    984.97167   -7916.0203   -7806.1453   -618.52511    29984.933    9.4418238 
    4440    977.43537    -7915.147   -7806.1126   -387.60108    29962.364    9.4215383 
    4450    993.84735    -7917.062   -7806.1969   -559.75614    29938.828     9.400981 
    4460    989.06339   -7916.7492   -7806.4176   -655.93318     29914.05    9.3862748 
    4470    981.87981   -7916.3276   -7806.7974   -876.36947    29887.744    9.3759309 
    4480    967.80782   -7915.2799   -7807.3195   -984.75234    29859.461    9.3661838 
    4490    952.61735   -7914.2225   -7807.9566   -950.02262    29828.983    9.3529651 
    4500    945.26997   -7914.1215   -7808.6752     -1024.59    29796.344    9.3354579 
    4510    938.57784   -7914.1416   -7809.4418   -954.65061    29761.466    9.3145801 
    4520    930.45826   -7914.0147   -7810.2207   -583.01865    29724.587    9.2911448 
    4530     918.8594   -7913.4688   -7810.9686   -71.564797    29686.599     9.265764 
    4540    905.95518   -7912.6985   -7811.6378    161.90539    29648.641    9.2393257 
    4550    906.55512   -7913.3424   -7812.2148    205.31183    29611.296    9.2146188 
    4560     899.4923   -7913.0335   -7812.6938    312.38403    29574.733    9.1938502 
    4570    898.27671   -7913.2698   -7813.0657     346.3229    29539.187    9.1747243 
    4580    900.72837   -7913.8216    -7813.344    398.27848    29504.766    9.1529921 
    4590     891.1129   -7912.9252   -7813.5202    678.40304    29471.648    9.1280033 
    4600    896.21689   -7913.5651   -7813.5907    732.96258    29440.368    9.1028221 
    4610    903.65129   -7914.3812   -7813.5775    485.19204    29411.012    9.0817518 
    4620    908.82344   -7914.8779   -7813.4973    253.99689    29383.086     9.068613 
    4630    915.91474   -7915.5407   -7813.3691    148.23081    29356.048    9.0621241 
    4640    900.86697   -7913.6798   -7813.1868    428.98864    29329.719    9.0600089 
    4650     900.2477   -7913.3507   -7812.9267    633.15308    29304.644    9.0602289 
    4660    922.87263   -7915.5307   -7812.5829     662.4515    29281.258    9.0576786 
    4670    950.26038   -7918.1978   -7812.1949    859.62482    29259.681    9.0521632 
    4680    958.23439   -7918.7022   -7811.8097    1048.9731    29240.275    9.0484793 
    4690    970.30219   -7919.7063   -7811.4677    1183.3172    29223.464    9.0464578 
    4700    974.65449   -7919.9104   -7811.1862    1330.7954    29209.533    9.0453477 
    4710    962.01229   -7918.2934   -7810.9795    1518.9848    29198.798    9.0478052 
    4720    941.56624   -7915.8634   -7810.8303    1620.6704    29191.617    9.0546475 
    4730    909.25342   -7912.1129   -7810.6843    1641.5685    29188.186    9.0676684 
    4740    892.87868   -7910.0726   -7810.4707     1472.175    29188.495    9.0900491 
    4750     909.9861   -7911.6553    -7810.145    1057.2104    29192.097    9.1208694 
    4760    922.96117   -7912.6602   -7809.7025    794.62532    29198.121    9.1588381 
    4770    925.87131   -7912.4417   -7809.1593    729.35255    29205.958    9.2024666 
    4780    928.64781   -7912.0967   -7808.5046    676.89957    29215.379    9.2473439 
    4790    923.20853   -7910.7043    -7807.719    799.34891    29226.289    9.2897697 
    4800    934.45328   -7911.0355   -7806.7958    845.80835    29238.905    9.3280697 
    4810    957.25004   -7912.5266   -7805.7439    710.36408      29253.3    9.3652897 
    4820    972.96289   -7913.1879   -7804.6525    660.34599    29269.214    9.4071879 
    4830    989.55216   -7914.0143   -7803.6283    757.36929    29286.523    9.4557361 
    4840    991.36339   -7913.3457   -7802.7577    918.87961    29305.426    9.5066466 
    4850    985.66891   -7912.0359    -7802.083    896.80982    29326.233    9.5510508 
    4860    995.33285   -7912.6253   -7801.5944    660.27956    29348.881    9.5857422 
    4870    998.53482   -7912.6758   -7801.2877    373.41238    29372.836    9.6139463 
    4880    976.84159   -7910.1197   -7801.1515    430.99274    29397.523    9.6410236 
    4890    951.15458   -7907.2282   -7801.1255    496.91911    29422.981    9.6722724 
    4900    939.61238   -7905.9515   -7801.1364    491.39744    29449.362    9.7112179 
    4910    953.61485   -7907.5397   -7801.1626    189.33451    29476.585    9.7612774 
    4920    959.69133   -7908.2676   -7801.2126   -91.412072    29504.022    9.8244975 
    4930    956.41699   -7907.9859   -7801.2962   -136.66944     29531.05    9.8930254 
    4940    963.88462   -7908.9397    -7801.417   -97.009319    29557.529     9.957704 
    4950    952.69998   -7907.8487   -7801.5736    164.36554    29583.594    10.018176 
    4960    939.97487      -7906.6   -7801.7444    200.39489    29609.758    10.076659 
    4970    937.43583   -7906.4703   -7801.8979   -119.67885     29636.07    10.133835 
    4980    943.13755   -7907.2422   -7802.0338   -521.88664    29661.812    10.191529 
    4990    951.64113   -7908.3187   -7802.1617   -792.78067      29686.1    10.249782 
    5000     961.7592   -7909.5882   -7802.3025   -885.49437    29708.315    10.307974 
Loop time of 1802.66 on 16 procs for 3000 steps with 864 atoms

Performance: 0.144 ns/day, 166.913 hours/ns, 1.664 timesteps/s
97.9% CPU use with 16 MPI tasks x 1 OpenMP threads

MPI task timing breakdown:
Section |  min time  |  avg time  |  max time  |%varavg| %total
---------------------------------------------------------------
Pair    | 1305.1     | 1550.5     | 1750.4     | 390.5 | 86.01
Bond    | 0.0002718  | 0.00081564 | 0.001545   |   0.0 |  0.00
Neigh   | 0.032709   | 0.035672   | 0.039032   |   0.9 |  0.00
Comm    | 16.524     | 225.67     | 476.46     |1028.5 | 12.52
Output  | 0.33359    | 0.33717    | 0.38967    |   2.3 |  0.02
Modify  | 14.239     | 26.154     | 35.578     | 146.4 |  1.45
Other   |            | 0.01485    |            |       |  0.00

Nlocal:        54.0000 ave          60 max          49 min
Histogram: 2 2 2 3 2 0 1 0 1 3
Nghost:        397.875 ave         416 max         380 min
Histogram: 1 1 0 3 3 2 4 1 0 1
Neighs:         0.00000 ave           0 max           0 min
Histogram: 16 0 0 0 0 0 0 0 0 0
FullNghs:      1531.00 ave        1787 max        1312 min
Histogram: 1 3 1 0 5 2 1 1 0 2

Total # of neighbors = 24496
Ave neighs/atom = 28.351852
Ave special neighs/atom = 0.0000000
Neighbor list builds = 300
Dangerous builds = 300
Setting up Verlet run ...
  Unit style    : metal
  Current step  : 5000
  Time step     : 0.001
Per MPI rank memory allocation (min/avg/max) = 8.897 | 8.899 | 8.901 Mbytes
Step Temp PotEng TotEng Press Volume c_msd[4] 
    5000     961.7592   -7909.5882   -7802.3025   -885.49437    29708.315    10.307974 
    5010    973.40835   -7910.9209   -7802.3357   -826.87751      29707.3    10.356708 
    5020     978.6461   -7911.6244    -7802.455   -727.33443    29704.345    10.400457 
    5030    969.89604     -7910.86   -7802.6666   -359.03989     29699.75    10.437377 
    5040     973.3005   -7911.5408   -7802.9677   -198.40223    29694.237    10.470321 
    5050    971.43731    -7911.724   -7803.3587   -200.80866    29688.202     10.50334 
    5060    958.36725   -7910.7447   -7803.8374   -72.245308    29681.714    10.536142 
    5070    947.50846   -7910.0694   -7804.3734    196.70414    29675.074    10.567194 
    5080     952.2001   -7911.1727   -7804.9533    367.76417    29668.867    10.599554 
    5090    952.16847   -7911.7986   -7805.5827    424.96124    29663.493    10.634971 
    5100    941.45433     -7911.26   -7806.2393    529.26902    29659.137    10.671478 
    5110    951.36898   -7913.0435   -7806.9169    305.24158     29655.94    10.707783 
    5120    948.08914   -7913.3694   -7807.6086   -19.460162    29653.445    10.743943 
    5130    942.42751   -7913.4238   -7808.2945    -436.2699    29650.881    10.779029 
    5140     932.0441   -7912.9198   -7808.9489    -859.4813    29647.272    10.811039 
    5150    911.74036   -7911.2311   -7809.5251   -1062.8835    29641.675    10.839114 
    5160    902.73639   -7910.6865   -7809.9849   -1138.5137    29633.588    10.862272 
    5170    906.14504   -7911.4062   -7810.3244   -1161.8295    29622.792    10.883899 
    5180    902.23062   -7911.1951   -7810.5499   -920.44887    29609.281    10.911871 
    5190    895.45397    -7910.559   -7810.6698   -552.31994    29593.589    10.946346 
    5200     895.2618   -7910.5568    -7810.689   -209.90407    29576.536     10.97696 
    5210    898.41047   -7910.8403   -7810.6213     159.1643    29558.939    10.996693 
    5220    912.37543   -7912.2646   -7810.4877    325.09762    29541.605    11.003651 
    5230    934.23799   -7914.5414   -7810.3258    276.99497    29524.907     10.99819 
    5240    941.06795   -7915.1468   -7810.1692    179.61017    29508.777    10.988712 
    5250    960.02297   -7917.1428   -7810.0508   -150.19168    29492.937    10.986916 
    5260    973.68097   -7918.6097   -7809.9941   -391.77808    29476.693     11.00082 
    5270      973.659   -7918.6352   -7810.0221   -302.41227     29459.52    11.027579 
    5280    964.59989    -7917.722   -7810.1194   -74.867154    29441.582    11.058608 
    5290    961.19638   -7917.4911   -7810.2682   -1.1310605    29423.344    11.085071 
    5300    948.26173    -7916.229    -7810.449     186.8453    29405.044    11.102816 
    5310    936.28959   -7915.0749   -7810.6304    324.90295    29387.059    11.111559 
    5320    933.46561   -7914.9308   -7810.8013    277.23881    29369.671    11.114868 
    5330      915.004    -7913.013   -7810.9429    384.71676    29352.856    11.121875 
    5340    905.38695   -7912.0305   -7811.0332    442.14524    29336.807    11.139711 
    5350    902.29243   -7911.7024   -7811.0503    567.25557    29321.711    11.169009 
    5360    905.76493   -7912.0314    -7810.992    737.83332    29307.832    11.203766 
    5370     905.7814   -7911.9051   -7810.8638    1061.5962    29295.603    11.237554 
    5380    900.68657   -7911.1405   -7810.6676    1306.3155    29285.719    11.268593 
    5390    918.19215   -7912.8337    -7810.408    1282.7292    29278.734    11.298803 
    5400    936.01423   -7914.5117   -7810.0979    1070.6492    29274.642    11.332171 
    5410    960.80565    -7916.962   -7809.7827    801.33352     29272.99    11.365829 
    5420    977.61195   -7918.5678   -7809.5137    727.32883     29273.22    11.394611 
    5430    966.85264   -7917.1834   -7809.3295    798.31438    29275.156    11.418924 
    5440    953.30936   -7915.5595   -7809.2164    821.41379    29278.946    11.441587 
    5450    951.63135   -7915.3009   -7809.1449    808.25095    29284.646    11.462674 
    5460    959.90709   -7916.1913   -7809.1122    893.44839     29292.29    11.488181 
    5470    952.77202   -7915.4156   -7809.1324    1021.3732    29302.088    11.525115 
    5480    924.54406   -7912.3146   -7809.1803    1073.1786    29314.349    11.569987 
    5490    928.44079   -7912.7873   -7809.2183    824.83205    29329.147    11.616286 
    5500    937.65213   -7913.8326   -7809.2361    639.45452    29346.039    11.663263 
    5510    941.46127   -7914.2712   -7809.2498    387.84396    29364.577    11.712661 
    5520    945.40991   -7914.7416   -7809.2797    246.54933    29384.229    11.761987 
    5530    926.82912   -7912.7105   -7809.3213    400.29363    29404.748    11.803498 
    5540    921.25288   -7912.1276   -7809.3604    273.17228    29426.362    11.833664 
    5550     901.3353    -7909.898   -7809.3527   -117.43888    29448.799    11.862006 
    5560    888.62395   -7908.3822   -7809.2548   -543.63325    29471.215    11.892615 
    5570    899.24765   -7909.3285    -7809.016   -928.87717    29492.614    11.923381 
    5580    914.13864   -7910.5886   -7808.6151   -905.86569    29512.172    11.953538 
    5590    926.93831   -7911.4613     -7808.06   -647.31326     29529.86    11.983779 
    5600    943.25646   -7912.5911   -7807.3694   -328.47503    29546.235    12.016534 
    5610    963.28339    -7914.039   -7806.5833   -42.623361    29562.013    12.052468 
    5620     952.9527   -7912.0676   -7805.7643    290.68531    29577.881    12.089043 
    5630    945.44564   -7910.4221   -7804.9562    229.11397    29594.516    12.119937 
    5640    956.00729    -7910.793   -7804.1489   -110.37738    29611.804     12.14398 
    5650    962.55869   -7910.7533   -7803.3785   -229.64155    29629.058     12.16499 
    5660    977.04221   -7911.6706   -7802.6801   -249.99745    29645.979    12.184447 
    5670    999.09754   -7913.5453   -7802.0945   -392.65556    29662.454    12.204918 
    5680    1001.8803   -7913.4222   -7801.6609   -531.43782    29678.173     12.23282 
    5690    991.90902   -7912.0449    -7801.396   -804.87647    29692.754    12.270954 
    5700    971.77137   -7909.6641   -7801.2616   -1012.0307    29705.603    12.311274 
    5710    961.46807   -7908.4684   -7801.2152   -1080.9416    29716.224    12.345922 
    5720    944.84606   -7906.6193   -7801.2203   -1060.3668     29724.42    12.374954 
    5730     940.3969   -7906.1577    -7801.255   -1212.3236    29730.126    12.396559 
    5740    943.00649   -7906.4946   -7801.3008   -1226.9684    29733.049    12.407889 
    5750    966.20549   -7909.1599   -7801.3782   -1269.5953    29733.082    12.415214 
    5760    979.01652   -7910.7415   -7801.5308   -1209.9842    29730.128    12.427998 
    5770     955.4974   -7908.3596   -7801.7724   -1003.4815      29724.3    12.452506 
    5780    950.42926   -7908.1005   -7802.0787   -1024.7877    29715.973    12.485688 
    5790    948.81622   -7908.2725   -7802.4307   -859.80718    29705.187    12.515338 
    5800    937.08579   -7907.3477   -7802.8144   -552.57149    29692.278    12.534998 
    5810    936.20494   -7907.6524   -7803.2173    -563.3104    29677.849    12.546756 
    5820    945.48985   -7909.1116   -7803.6408   -731.04993    29661.916    12.556899 
    5830    958.47812   -7911.0321   -7804.1124   -773.95931    29644.103    12.568851 
    5840    961.43738   -7911.9086   -7804.6588   -546.61373    29624.312    12.578734 
    5850    949.10667   -7911.1419   -7805.2676   -103.30379    29603.074    12.581495 
    5860    950.39491   -7911.9373   -7805.9193    19.783605    29581.305    12.576019 
    5870     956.1056   -7913.2819   -7806.6269   -80.956705    29559.332    12.568611 
    5880    938.63736   -7912.0786   -7807.3722     60.57237    29537.013     12.56543 
    5890    931.33876   -7911.9893   -7808.0971    264.62134    29514.639    12.563409 
    5900    938.50961    -7913.478   -7808.7858    172.78718    29492.615    12.561135 
    5910    934.74858   -7913.6867   -7809.4141    73.930393    29470.811    12.563137 
    5920    941.58711   -7915.0299   -7809.9944   -30.515363    29448.979    12.570375 
    5930    928.37032   -7914.0771    -7810.516   -29.188242    29426.923    12.579778 
    5940    916.50425   -7913.1987   -7810.9613   -139.48805    29404.596    12.588621 
    5950     915.4262    -7913.433   -7811.3158   -255.75315    29381.768    12.596188 
    5960    917.14309   -7913.8926   -7811.5839    -130.4123    29358.226    12.604637 
    5970     917.1773    -7914.091   -7811.7785    -23.35363    29334.185    12.613904 
    5980    904.82183   -7912.8364   -7811.9021    175.47272    29309.948    12.624763 
    5990    892.15076   -7911.4643   -7811.9435    320.62631    29285.933    12.637078 
    6000    903.72144   -7912.7087   -7811.8972    292.36343     29262.45    12.647254 
    6010     923.4238   -7914.7982   -7811.7889    277.36184    29239.479    12.652218 
    6020    928.02883   -7915.1844   -7811.6614    402.66552    29217.037    12.652727 
    6030    920.59052   -7914.2208   -7811.5275    554.47593    29195.413    12.654678 
    6040    930.20816   -7915.1528   -7811.3866    623.13712    29174.943    12.663033 
    6050    932.07502   -7915.2047   -7811.2303    694.56918      29155.8    12.681381 
    6060    914.20998   -7913.0333   -7811.0518    890.28476     29138.18    12.711396 
    6070    906.07468   -7911.9113   -7810.8373    1026.6571    29122.489    12.741966 
    6080    917.14601   -7912.8841   -7810.5751    1130.3397    29109.064    12.763366 
    6090    937.49802   -7914.8723   -7810.2929    1198.9681    29098.154    12.779821 
    6100    945.96617   -7915.5564   -7810.0324    1114.4683     29089.91    12.799491 
    6110    962.07437   -7917.1416   -7809.8208    749.50605     29084.13    12.829577 
    6120    965.47278   -7917.3818   -7809.6819    265.27595    29080.001    12.873511 
    6130    940.84279   -7914.5583   -7809.6058    208.47629    29076.563    12.923792 
    6140    921.87309   -7912.3751   -7809.5387    454.77755    29073.662    12.968306 
    6150    917.60255   -7911.7957   -7809.4358    772.67875    29071.798    13.004447 
    6160    922.98537   -7912.2509   -7809.2905    876.11347    29071.632    13.035582 
    6170    921.82536   -7911.9398   -7809.1087    950.50988    29073.446    13.067889 
    6180    921.97469   -7911.7414   -7808.8937    1133.4754    29077.457    13.108215 
    6190    950.61652   -7914.7043   -7808.6616    880.01999    29083.944    13.158377 
    6200    958.59445   -7915.3848   -7808.4522    708.79086    29092.455    13.217608 
    6210    927.64539   -7911.7651   -7808.2849    957.70662    29102.693    13.280025 
    6220    922.10753   -7910.9846   -7808.1222     940.6597    29115.054    13.343787 
    6230    916.08132   -7910.1129   -7807.9227    694.09051    29129.503    13.411092 
    6240    905.91914   -7908.7279   -7807.6712      480.274    29145.556    13.475088 
    6250    912.61516    -7909.153   -7807.3494    365.31026    29162.726    13.524999 
    6260    913.63043   -7908.8721   -7806.9552     595.6966    29180.807    13.562558 
    6270    917.41307   -7908.8301   -7806.4913    629.94829    29200.193    13.595363 
    6280    925.87676   -7909.2398   -7805.9568    604.62264    29220.999    13.628134 
    6290    945.58092   -7910.8486   -7805.3676    498.01267    29243.137     13.65838 
    6300    964.77383   -7912.3819   -7804.7599    398.95891    29266.394    13.683289 
    6310    956.75462   -7910.9076   -7804.1802    536.52989    29290.596    13.706646 
    6320    953.53415   -7910.0107   -7803.6425    611.06242     29315.98    13.731282 
    6330    956.45619    -7909.816   -7803.1218    397.72791    29342.669    13.759758 
    6340    956.88288   -7909.3665   -7802.6247    158.40031    29370.212    13.797974 
    6350    953.24626     -7908.48    -7802.144    209.70797    29398.141    13.843331 
    6360    953.07965   -7907.9939   -7801.6764    422.02754    29426.532    13.890005 
    6370    960.35459   -7908.3433   -7801.2143    900.35393    29455.907    13.938016 
    6380    984.01847   -7910.5392   -7800.7704    1189.7992    29487.287    13.987065 
    6390    1004.4923   -7912.4212   -7800.3686    930.99309    29521.261    14.032315 
    6400    999.32598   -7911.5215   -7800.0451    566.95305    29557.338    14.067046 
    6410    999.94246   -7911.3554   -7799.8103   -17.327033    29594.624    14.094247 
    6420     985.0337   -7909.5357   -7799.6537   -495.42973    29631.812    14.127647 
    6430     979.0145   -7908.7867   -7799.5761   -869.00428    29667.772      14.1732 
    6440    988.52181   -7909.8595   -7799.5884   -1437.4177    29701.549    14.229101 
    6450    982.77541   -7909.3699   -7799.7399   -1838.9364    29731.872    14.289375 
    6460     954.6702    -7906.558   -7800.0631   -1638.5827     29757.89    14.349665 
    6470    937.89497   -7905.1473   -7800.5237   -1314.3016    29779.965    14.406213 
    6480    949.31446   -7906.9916   -7801.0941   -1247.7803    29798.793    14.457661 
    6490     941.4855   -7906.7765   -7801.7524   -1283.7718    29814.572    14.506863 
    6500    928.39029   -7906.0204   -7802.4571   -1196.6189     29827.29    14.553302 
    6510    928.86644   -7906.7892   -7803.1728   -1280.7069    29837.072    14.594528 
    6520    918.94436   -7906.3788   -7803.8692   -1373.7414    29843.774    14.634282 
    6530    919.85674   -7907.1357   -7804.5243   -1540.8113    29847.147     14.67462 
    6540    909.44998   -7906.5723   -7805.1218    -1426.957     29846.91    14.711779 
    6550    907.94478   -7906.9278   -7805.6452   -1335.1297    29843.265    14.743765 
    6560    908.13797   -7907.3995   -7806.0953   -1189.3652    29836.483    14.779089 
    6570    906.46419   -7907.5865    -7806.469   -1026.1067    29826.912    14.817276 
    6580    923.45983   -7909.7951   -7806.7818     -1143.24    29814.868    14.849725 
    6590    937.92798   -7911.6966   -7807.0693   -1132.5774    29800.201    14.875093 
    6600    932.23782    -7911.347   -7807.3545   -1029.3726    29782.934    14.893513 
    6610    930.88581   -7911.4723   -7807.6306   -1122.1258    29763.257    14.901492 
    6620    952.51549   -7914.1683   -7807.9138   -1314.5441    29740.995    14.898582 
    6630    961.43688   -7915.4825   -7808.2328   -1215.0244     29715.79    14.890771 
    6640    968.13049   -7916.6121   -7808.6157   -1113.8168    29687.804    14.886457 
    6650    962.62727   -7916.4552   -7809.0727   -978.79136    29657.318    14.887718 
    6660    938.50829   -7914.2652   -7809.5732   -680.07222      29624.7    14.891199 
    6670     921.8241   -7912.8945   -7810.0637   -336.90596    29590.656    14.895424 
    6680    919.36238     -7913.07   -7810.5137   -201.00439    29555.936    14.901268 
    6690    925.88896   -7914.2069   -7810.9226   -163.56587    29520.904    14.908578 
    6700    928.82165   -7914.9174   -7811.3059    36.820577    29485.715    14.917583 
    6710    919.47958   -7914.2247   -7811.6554    357.17317    29450.845    14.928175 
    6720    929.92153   -7915.7045   -7811.9704    444.97156    29416.956    14.936552 
    6730    960.91503   -7919.4776   -7812.2861    386.33978    29384.272     14.93833 
    6740    981.73557   -7922.1842   -7812.6701    312.78596     29352.68    14.935789 
    6750    958.44879   -7920.0619   -7813.1455     402.5665    29322.039    14.938796 
    6760    922.88781   -7916.6013   -7813.6518    558.64344    29292.521    14.949468 
    6770     897.8457   -7914.2667   -7814.1106    807.07963    29264.481    14.959692 
    6780    894.80816   -7914.2962    -7814.479    1041.0571    29238.463    14.966483 
    6790    907.75585   -7916.0231   -7814.7615    1209.3071    29214.978    14.977047 
    6800    918.40918   -7917.4376   -7814.9876    1415.9338    29194.409    14.997916 
    6810    912.37982   -7916.9439   -7815.1666    1450.9896    29177.158    15.029995 
    6820    928.29391   -7918.8633   -7815.3107    1180.3162    29163.263    15.069134 
    6830    947.19917   -7921.1085    -7815.447    817.34876    29152.106    15.111771 
    6840    954.67499   -7922.1049   -7815.6095    508.86533    29142.882    15.152027 
    6850    954.99121   -7922.3546   -7815.8239    117.75835    29134.845    15.187369 
    6860    934.80994   -7920.3586   -7816.0792    100.56908     29127.21    15.226523 
    6870    927.34944   -7919.7902    -7816.343    183.81838    29119.856    15.274985 
    6880    936.04206   -7921.0283   -7816.6114    267.25695    29112.964    15.334632 
    6890    931.46803   -7920.7974   -7816.8908     326.5498    29106.723    15.405371 
    6900    925.04355   -7920.3771   -7817.1871    169.48396    29101.205    15.481067 
    6910    915.76095   -7919.6365    -7817.482    81.508883    29096.124    15.552385 
    6920    913.48236   -7919.6668   -7817.7665    228.67634    29091.315    15.610643 
    6930    920.06216   -7920.6725   -7818.0382    375.05279    29087.056    15.652331 
    6940    931.04265   -7922.1744   -7818.3152    358.23805    29083.649    15.680082 
    6950     922.9291   -7921.5623   -7818.6081      367.948    29081.081    15.703918 
    6960    914.74388   -7920.9597   -7818.9187    469.30948    29079.384    15.732505 
    6970    896.57624   -7919.2393   -7819.2249    742.82291    29078.799    15.767943 
    6980      879.877   -7917.6396    -7819.488    1020.2809    29079.888    15.806981 
    6990    880.98611   -7917.9435   -7819.6681    1160.1571    29083.253    15.849919 
    7000    885.11791   -7918.4797   -7819.7434    1139.8732    29089.191    15.897961 
    7010    888.05535   -7918.7644   -7819.7005    969.89407    29097.639    15.948099 
    7020    902.42909   -7920.2031   -7819.5358    702.38317     29108.21     15.99873 
    7030    908.59776   -7920.6072   -7819.2517     533.8114    29120.328    16.050549 
    7040     902.2828   -7919.5068   -7818.8558    491.86532    29133.601    16.102834 
    7050    902.44576   -7919.0028   -7818.3336    413.72166    29147.877     16.15539 
    7060    908.93247   -7919.0641   -7817.6714    212.28076    29162.945    16.212786 
    7070    903.97967   -7917.7267   -7816.8864    117.12725    29178.376    16.278868 
    7080    893.60481   -7915.6884   -7816.0054    289.92304    29193.989    16.351779 
    7090    896.66493   -7915.0671   -7815.0428    400.86782    29210.094    16.427439 
    7100    914.03149   -7915.9992   -7814.0376    351.79315    29226.918    16.502303 
    7110    937.37375   -7917.6207   -7813.0553    404.33523    29244.395    16.573108 
    7120    957.17411   -7918.9497   -7812.1755    669.09321    29262.653    16.638075 
    7130    977.55008   -7920.5009   -7811.4538    806.11516    29282.204    16.695652 
    7140    971.08382   -7919.2343   -7810.9085    927.43744    29303.387     16.74937 
    7150    968.78319   -7918.5961   -7810.5269    856.57313    29326.414    16.804511 
    7160     951.4408   -7916.3931   -7810.2585    632.32623    29351.095    16.864579 
    7170    923.41321   -7913.0623   -7810.0542    442.91948    29376.922    16.929536 
    7180    897.06224   -7909.9093   -7809.8406    541.72078    29403.493    16.999783 
    7190    882.42442   -7907.9985   -7809.5628    811.88881    29430.993    17.069486 
    7200    895.50036   -7909.0885   -7809.1941    887.25897    29459.952    17.132846 
    7210    912.14094   -7910.4928   -7808.7421    756.73754      29490.5    17.187186 
    7220    934.49973   -7912.4917   -7808.2469     452.3111    29522.292    17.235419 
    7230    945.31876   -7913.1991   -7807.7474    215.19414    29554.647    17.285455 
    7240    954.71976   -7913.7754    -7807.275    104.97186    29586.995    17.341622 
    7250    968.19546   -7914.8553   -7806.8516     -99.1736    29619.001    17.409245 
    7260    958.17062    -7913.377   -7806.4916   -93.448485    29650.257    17.490681 
    7270    957.22406   -7912.9769   -7806.1971   -22.851634    29680.726    17.577582 
    7280    968.60058   -7914.0053   -7805.9565   -1.9164766    29710.559     17.66091 
    7290    965.03636   -7913.4357   -7805.7844      110.431    29739.825    17.740619 
    7300    961.34296   -7912.9178   -7805.6786    43.244281    29768.736     17.82118 
    7310    964.67244   -7913.2429   -7805.6322   -495.53558    29797.034    17.904656 
    7320    935.86837   -7910.0198   -7805.6222   -946.65058    29823.587    17.989241 
    7330    918.31825   -7908.0551   -7805.6153   -1292.5262    29847.356    18.072301 
    7340    915.22493   -7907.6645   -7805.5698   -1329.2588    29867.637    18.150088 
    7350    932.19417   -7909.4771   -7805.4894    -1216.871     29884.35    18.218657 
    7360    946.78527   -7911.0109   -7805.3956   -873.07441    29897.862    18.278503 
    7370    955.65661   -7911.9298   -7805.3249    -437.9075    29909.022    18.331548 
    7380    957.00286   -7912.0452   -7805.2901   -59.427071    29918.894    18.383213 
    7390    962.70787   -7912.6991   -7805.3076    79.820941    29928.339    18.439455 
    7400    955.82718   -7911.9993   -7805.3754    212.23448    29937.773    18.499244 
    7410    960.86151   -7912.6872   -7805.5016    115.18708     29947.44    18.556882 
    7420    958.62564   -7912.6318   -7805.6957    46.165808     29957.17    18.608993 
    7430    943.37918   -7911.1904    -7805.955   -26.517792    29966.791    18.655255 
    7440    934.88238   -7910.5566   -7806.2691   -236.30057    29976.088    18.697649 
    7450     919.0954   -7909.1363   -7806.6098   -303.88124    29984.643    18.739403 
    7460    924.60201   -7910.1066   -7806.9658   -454.64008    29992.258    18.783992 
    7470    943.19487    -7912.567   -7807.3522   -861.96697    29998.552    18.837403 
    7480      944.994    -7913.219   -7807.8035   -1141.6624    30002.682    18.902757 
    7490    938.44197   -7913.0185   -7808.3339   -1349.8752    30003.994    18.968739 
    7500    929.83428   -7912.6536   -7808.9292   -1402.1355    30002.103    19.024128 
    7510    917.40976   -7911.9097   -7809.5713   -1452.6763    29996.923    19.071376 
    7520    892.28286   -7909.7443   -7810.2088   -1491.9816    29988.415    19.111043 
    7530    873.93936   -7908.2709   -7810.7816   -1452.9382    29976.592    19.139359 
    7540    866.74244   -7907.9304   -7811.2439   -1139.9452    29961.673    19.156927 
    7550    868.77706   -7908.4953   -7811.5819   -760.82559    29944.409    19.171712 
    7560    860.74039   -7907.7982   -7811.7814    -344.3365    29925.782    19.189796 
    7570    869.21343   -7908.7988   -7811.8367      -343.79      29906.7     19.20868 
    7580     888.5771   -7910.8713   -7811.7491   -640.50051    29887.206    19.231467 
    7590    910.29476   -7913.0916   -7811.5468   -680.79976     29866.74    19.258131 
    7600    914.34601    -7913.248   -7811.2513   -533.33197    29845.198    19.283832 
    7610    907.07853   -7912.0608   -7810.8748   -467.45181    29822.904    19.305835 
    7620    910.81408   -7912.0081   -7810.4054   -470.90189    29800.044    19.322485 
    7630    921.70221   -7912.6521   -7809.8348   -479.84668    29776.614    19.331417 
    7640    925.35341   -7912.4027   -7809.1782   -296.66353    29752.667     19.33415 
    7650    925.59415   -7911.7014     -7808.45   -112.34513    29728.604    19.339125 
    7660     939.9896   -7912.5262    -7807.669    35.257134    29704.834    19.354339 
    7670    947.78898   -7912.5975   -7806.8702    288.01633    29681.731     19.37977 
    7680    947.76123   -7911.8266   -7806.1024    517.99807    29659.833    19.415629 
    7690    935.60706   -7909.7553   -7805.3869    691.54789    29639.644    19.459097 
    7700    945.53862   -7910.1989   -7804.7226    678.29692    29621.505     19.50163 
    7710    971.54295   -7912.5032   -7804.1262    762.34865    29605.391     19.53856 
    7720    978.30257   -7912.7791    -7803.648    883.26287    29591.424    19.571265 
    7730    984.60566   -7913.1491   -7803.3148     909.0872    29579.818    19.599933 
    7740    988.31905   -7913.3732   -7803.1247    935.23712    29570.576    19.624418 
    7750    986.39991   -7913.1039   -7803.0695     1095.057    29563.734    19.649917 
    7760    984.24672   -7912.9274   -7803.1332    1273.8925     29559.58    19.682693 
    7770    968.51679   -7911.3276   -7803.2881    1562.6372      29558.5    19.724288 
    7780     941.0767   -7908.4621   -7803.4836     1827.165    29561.079    19.770447 
    7790    924.07584   -7906.7513   -7803.6692    1700.5629    29567.765    19.817761 
    7800    919.10772   -7906.3334   -7803.8055    1448.8556    29578.257    19.864523 
    7810    938.67896   -7908.6143   -7803.9032    1121.3977    29591.903    19.907492 
    7820    944.12948   -7909.3102   -7803.9911    895.71474    29607.941     19.94308 
    7830    941.39844   -7909.0965   -7804.0821    601.06298    29625.772    19.964591 
    7840    957.61901   -7911.0082   -7804.1844    93.605362    29644.647    19.972533 
    7850    953.89678    -7910.717   -7804.3084   -67.274028    29663.502    19.981932 
    7860    946.90455   -7910.0909   -7804.4623   -9.5675502    29681.942    20.003615 
    7870    942.97412   -7909.8153   -7804.6251    11.163925    29700.061    20.035303 
    7880    942.43595   -7909.9209   -7804.7907    60.640714    29717.931    20.073692 
    7890    958.22621    -7911.856   -7804.9644     44.93709    29735.666    20.111526 
    7900    980.83753   -7914.5957   -7805.1818   -10.550931    29753.223    20.137763 
    7910    978.17997   -7914.5996   -7805.4822    131.61426     29770.54    20.151663 
    7920    968.29736   -7913.8735   -7805.8585    50.902339     29787.86    20.160307 
    7930    965.24527   -7913.9558   -7806.2812   -204.23113    29805.022    20.174388 
    7940    950.41165    -7912.756   -7806.7361   -212.21785     29821.54    20.208003 
    7950    925.26777   -7910.3873   -7807.1722   -261.35207    29837.324     20.26274 
    7960    927.16925   -7910.9813   -7807.5542   -458.52186    29852.261    20.323047 
    7970    946.30548   -7913.4523   -7807.8905   -559.32173    29865.949    20.376006 
    7980    959.82235    -7915.294   -7808.2243   -566.24209    29878.156    20.416443 
    7990    971.00409   -7916.9002   -7808.5832   -588.76264    29888.868    20.438443 
    8000    979.15056   -7918.2163   -7808.9906   -665.27344    29898.042    20.446835 
    8010    957.45283   -7916.2343    -7809.429   -610.34139    29905.561    20.460954 
    8020    931.69719   -7913.7781   -7809.8459   -490.42538    29911.555    20.493403 
    8030    916.39254   -7912.4076   -7810.1826   -346.60204    29916.308    20.546215 
    8040    922.95418   -7913.3796   -7810.4227   -239.94871    29920.161    20.615693 
    8050    943.40713   -7915.8415   -7810.6031   -154.04589    29923.402    20.695467 
    8060    954.31372   -7917.2238   -7810.7687   -243.00886    29926.203    20.772333 
    8070    946.52049   -7916.5239   -7810.9381   -392.40678    29928.386    20.834153 
    8080    922.81968   -7914.0332   -7811.0913    -437.0533     29929.63    20.881148 
    8090     894.2517   -7910.9428   -7811.1877   -332.48362    29929.874    20.920631 
    8100    877.58985    -7909.088   -7811.1915    -470.8681    29929.256    20.962085 
    8110    876.51966   -7908.8678   -7811.0907    -605.4573    29927.527    21.010425 
    8120    880.29446   -7909.0837   -7810.8856   -707.06633    29924.391    21.066758 
    8130    887.71423   -7909.6128    -7810.587    -710.5394    29919.625    21.128336 
    8140    896.82853   -7910.2512   -7810.2087    -630.2542     29913.26    21.186298 
    8150    932.18565   -7913.7746   -7809.7879   -770.57998    29905.434    21.229415 
    8160     960.1998   -7916.4885   -7809.3768   -736.47464    29895.952    21.256731 
    8170    967.52695   -7916.9641    -7809.035   -668.94421    29884.869    21.278492 
    8180    957.20412   -7915.5607   -7808.7832   -494.33234    29872.401    21.307324 
    8190     934.2547   -7912.8014   -7808.5839   -351.08592    29858.969    21.347588 
    8200    945.04257   -7913.8291   -7808.4082    -482.3933    29844.855    21.396429 
    8210    936.98568   -7912.7613   -7808.2391   -514.54045    29829.859    21.453238 
    8220    920.21097    -7910.724   -7808.0731   -469.34467    29813.923    21.513412 
    8230    932.65469   -7911.9289   -7807.8899   -587.72212      29797.1    21.570448 
    8240    946.10882   -7913.2359   -7807.6961   -485.65627    29779.229     21.62059 
    8250    940.45744   -7912.4175   -7807.5081   -189.14661    29760.572    21.658988 
    8260    951.83913   -7913.5129   -7807.3338    12.358632    29741.786    21.683196 
    8270    962.03387   -7914.5058   -7807.1894    64.203754     29723.33    21.695801 
    8280    964.30333   -7914.6765    -7807.107    149.36546    29705.365    21.703544 
    8290    963.67432   -7914.5878   -7807.0885    46.791372    29688.032    21.713351 
    8300    976.03207   -7916.0246   -7807.1468   -48.967492    29671.114    21.733235 
    8310    965.53365   -7914.9867     -7807.28    62.790214     29654.41    21.764134 
    8320    951.16055   -7913.5828   -7807.4794    213.33775     29638.15    21.798029 
    8330    944.81445   -7913.1158   -7807.7203    302.90596     29622.66    21.835358 
    8340    947.00258   -7913.6377   -7807.9981    437.37004    29608.175    21.883145 
    8350    940.38224    -7913.227   -7808.3259     449.3651    29594.918    21.943488 
    8360    916.66503   -7910.9354   -7808.6801    638.88332    29582.985    22.005928 
    8370    914.79425   -7911.0776   -7809.0309    533.18012    29572.667    22.055353 
    8380    922.30897   -7912.2632   -7809.3783    209.88832    29563.712    22.084905 
    8390    919.66857   -7912.3226   -7809.7322     28.64566     29555.42    22.104211 
    8400    916.90122   -7912.3862   -7810.1044    58.859326    29547.363     22.12821 
    8410    911.29582   -7912.1507   -7810.4943    294.76584    29539.628    22.167079 
    8420    905.91602   -7911.9571   -7810.9008    478.47276    29532.679    22.220797 
    8430     893.1467    -7910.936   -7811.3041    632.54094    29526.944    22.280832 
    8440    900.23039   -7912.1174   -7811.6954     538.6028    29522.696     22.33783 
    8450    918.14046   -7914.5115   -7812.0915    283.74643    29519.725    22.386655 
    8460    914.21106    -7914.496   -7812.5144    162.15302    29517.489    22.423086 
    8470    896.50184    -7912.953   -7812.9469    314.44673    29515.732    22.446017 
    8480    897.42386   -7913.4671   -7813.3581    276.90802    29514.687    22.463401 
    8490    902.59741   -7914.4305   -7813.7444    210.10275    29514.298    22.486077 
    8500    883.32454   -7912.6231   -7814.0869     341.2359    29514.457    22.522261 
    8510    875.35015        -7912   -7814.3534    352.09497    29515.384    22.575469 
    8520    885.98161   -7913.3495    -7814.517    274.76725    29517.113    22.642884 
    8530    905.09538   -7915.5553   -7814.5905    173.61513    29519.466    22.717352 
    8540    910.31744   -7916.1415   -7814.5942     105.1993    29522.217    22.788387 
    8550    907.71143   -7915.7926    -7814.536    -83.87651    29525.169    22.855078 
    8560    910.40465   -7915.9663   -7814.4093   -318.21689    29527.895    22.923089 
    8570    911.03844   -7915.8335   -7814.2058   -315.15418    29529.912    22.993246 
[...]
   22890     915.9443   -7906.6262   -7804.4512    288.18786    29342.959    53.256386 
   22900    925.16648   -7907.1756   -7803.9718    93.581102    29337.168    53.268663 
   22910    942.21704   -7908.5563   -7803.4506   -43.072092    29331.605     53.30149 
   22920    949.56271   -7908.8492   -7802.9241    -108.0164    29325.943    53.347381 
   22930    943.59769   -7907.6812   -7802.4215    26.783408    29320.067     53.38782 
   22940    932.53257   -7905.9642   -7801.9388    130.61395     29314.23    53.413859 
   22950    916.98423   -7903.7413   -7801.4503     100.3615    29308.664    53.428608 
   22960    922.81287   -7903.8747   -7800.9336   -113.38028    29303.272    53.434219 
   22970    946.51812   -7905.9759   -7800.3904   -154.47333    29297.651    53.435895 
   22980    963.51566   -7907.3465   -7799.8649    103.56343    29291.728     53.43779 
   22990    979.52515   -7908.6781   -7799.4106    147.59436    29285.986    53.437293 
   23000    986.10226   -7909.0632    -7799.062   -59.610235    29280.504    53.431608 
   23010     973.0363   -7907.3727    -7798.829    76.423564    29274.953    53.423936 
   23020    981.43002   -7908.1812   -7798.7012     17.02017    29269.486     53.42198 
   23030    968.95445   -7906.7539   -7798.6656    68.092466    29264.055    53.435324 
   23040    965.65253   -7906.4315   -7798.7115    202.20522    29258.772    53.465255 
   23050    975.66531   -7907.6607   -7798.8238     325.3502    29253.928    53.502624 
   23060    976.49771   -7907.9475   -7799.0177    378.71701    29249.797    53.541285 
   23070    963.97665   -7906.8242   -7799.2912    444.56074    29246.522    53.573635 
   23080    948.68009    -7905.444   -7799.6173    628.21161    29244.286    53.592875 
   23090    939.09991   -7904.7239   -7799.9659    795.71182    29243.474    53.604102 
   23100    935.40217   -7904.6607   -7800.3152    978.24731    29244.515    53.621645 
   23110    944.64089   -7906.0498   -7800.6737     952.3054     29247.78     53.65575 
   23120     944.5524   -7906.4144   -7801.0482    950.43441    29253.276    53.705238 
   23130    950.80762   -7907.5104   -7801.4463    857.66719    29260.991    53.772842 
   23140    961.49193   -7909.1468    -7801.891    718.42557     29270.74    53.866402 
   23150    957.11353   -7909.1605    -7802.393     786.5018     29282.28    53.983236 
   23160    951.06918   -7909.0366   -7802.9434     1029.134    29295.792    54.113511 
   23170    963.76141   -7911.0629   -7803.5539    1005.9661    29311.732    54.241495 
   23180    954.24236   -7910.6759   -7804.2288     1028.565    29330.169    54.347779 
   23190    928.06833   -7908.4496   -7804.9221    1141.2706    29351.195    54.437333 
   23200    926.19213   -7908.9066   -7805.5884    1082.0364    29375.038    54.531573 
   23210    917.56065   -7908.5436   -7806.1883    914.38995    29401.631     54.63672 
   23220    923.26676   -7909.6957   -7806.7039    457.02318    29430.555    54.749597 
   23230     950.2605   -7913.1459   -7807.1429   -124.03668    29460.816    54.863754 
   23240    965.66708   -7915.2678   -7807.5462   -429.02286    29491.153     54.97154 
   23250    949.47434   -7913.8355   -7807.9202   -318.48725    29520.894    55.066819 
   23260    924.04546   -7911.3028   -7808.2241   -157.83514    29550.199     55.13835 
   23270    902.33738   -7909.0728   -7808.4157   -219.56685    29579.375    55.188192 
   23280    886.10463   -7907.3299   -7808.4836   -497.50873    29608.279    55.235162 
   23290    869.62557   -7905.4395   -7808.4315   -744.99491    29636.315    55.293378 
   23300    867.13738   -7904.9949   -7808.2644   -949.06916    29662.886     55.37501 
   23310    885.46129   -7906.7792   -7808.0046   -1039.9774    29687.499    55.481609 
   23320    892.84805    -7907.275   -7807.6764   -923.66427    29709.948    55.593561 
   23330    899.31029   -7907.6216   -7807.3022   -850.55727      29730.4    55.695333 
   23340    910.84313   -7908.4927   -7806.8868    -855.5345    29749.026    55.782742 
   23350    924.56926   -7909.5818   -7806.4447   -1021.3469    29765.769    55.850698 
   23360    925.63233   -7909.2506   -7805.9949   -1146.0308    29780.256    55.891627 
   23370    929.50589   -7909.2354   -7805.5476   -1099.8549    29792.206    55.906591 
   23380    916.87139   -7907.3764   -7805.0981   -724.54011    29801.738    55.902512 
   23390    919.60874   -7907.2154   -7804.6317   -538.02771    29809.594    55.896648 
   23400    937.62885   -7908.7366   -7804.1427   -594.47591      29816.2     55.90957 
   23410    941.22816   -7908.6528   -7803.6574   -561.32988    29821.489    55.932961 
   23420    942.07723   -7908.2854   -7803.1953   -465.21937    29825.512    55.942898 
   23430    945.72724   -7908.2521   -7802.7548   -496.37546     29828.43    55.935903 
   23440    950.89787   -7908.4119   -7802.3378   -593.72006    29830.194     55.92378 
   23450    958.39515   -7908.8617   -7801.9513   -766.07577    29830.569    55.906816 
   23460    982.38948   -7911.2109   -7801.6239   -1034.2688     29829.09    55.888496 
   23470    977.95584   -7910.4797   -7801.3872   -899.39766    29825.216    55.882616 
   23480    962.79194   -7908.6481   -7801.2473   -645.05592    29819.177    55.896656 
   23490    956.05659   -7907.8254   -7801.1758   -613.11661    29811.485    55.925519 
   23500    930.55332   -7904.9434   -7801.1388   -596.95697    29802.241    55.963789 
   23510    906.28114   -7902.1835   -7801.0865   -587.30403     29791.45    56.004642 
   23520    914.12005   -7902.9458   -7800.9743   -604.32361    29779.123    56.034949 
   23530    942.22427   -7905.9131   -7800.8065   -591.30199    29765.224    56.048906 
   23540    960.95616   -7907.8302   -7800.6341   -785.41428    29749.695    56.059002 
   23550    963.21639   -7907.9492    -7800.501   -875.99285    29732.139    56.071023 
   23560    967.00325   -7908.2911   -7800.4204   -956.35667    29712.287    56.075371 
   23570    973.90384   -7909.0541   -7800.4137   -1140.3112    29689.912    56.066425 
   23580     966.7756   -7908.3386   -7800.4933   -1070.0856    29664.638    56.049007 
   23590     957.3677   -7907.4426   -7800.6468   -679.75831    29636.617    56.022775 
   23600    940.50052   -7905.7558   -7800.8416   -118.04951    29606.721    55.983647 
   23610    933.90586   -7905.2194   -7801.0408    267.54912    29576.205    55.928527 
   23620    949.81244   -7907.2033   -7801.2503    274.65902     29545.93    55.859465 
   23630     954.5918   -7907.9811   -7801.4949    280.17409    29516.016    55.789615 
   23640    966.95173   -7909.6774   -7801.8124    211.41222    29486.454    55.731893 
   23650    975.48104   -7911.0476   -7802.2313    402.20499    29457.185    55.689437 
   23660    977.85149   -7911.8623   -7802.7815    817.47258    29428.635    55.663036 
   23670    970.49252   -7911.7188   -7803.4589    1154.3982    29401.745    55.646464 
   23680    969.73381   -7912.4349   -7804.2596    1082.4638    29377.222      55.6327 
   23690    959.18956   -7912.1423   -7805.1433    899.38254    29354.978    55.623558 
   23700    951.92973   -7912.2543   -7806.0651     775.1341    29334.632    55.617136 
   23710    938.62906   -7911.6625    -7806.957    768.04305    29315.929    55.614863 
   23720    929.87464   -7911.4945   -7807.7656    830.33388    29298.863    55.614267 
   23730    923.73807    -7911.506   -7808.4617    926.89774    29283.576    55.596862 
   23740    914.84169    -7911.086   -7809.0341    1118.1658    29270.311    55.552125 
   23750     903.2614   -7910.2278   -7809.4677     1515.301    29259.569      55.5005 
   23760    915.09322   -7911.8608   -7809.7807    1576.4449    29252.147    55.471846 
   23770    916.78341   -7912.2705    -7810.002     1417.183    29248.243    55.470502 
   23780    919.17266   -7912.6894   -7810.1543    1180.1314    29247.548    55.490435 
   23790    922.88691   -7913.2048   -7810.2554    961.27679    29249.581    55.532062 
   23800    922.40251   -7913.2089   -7810.3135    764.22433    29253.876    55.583821 
   23810    926.85306   -7913.7347   -7810.3428    373.32909    29259.933    55.639085 
   23820    910.52694   -7911.9105   -7810.3398    181.59207    29266.964    55.690838 
   23830    892.91107   -7909.8875   -7810.2819    266.06305    29274.557    55.724617 
   23840    899.08707   -7910.4379   -7810.1433     246.8366    29282.838    55.752931 
   23850    912.16754   -7911.6792   -7809.9255   -31.304272    29291.744    55.802375 
   23860    917.94438   -7912.0522   -7809.6541   -419.47858    29300.661    55.876075 
   23870    929.25935   -7913.0088   -7809.3485   -575.42579    29308.781    55.954444 
   23880    929.84469   -7912.7473   -7809.0217   -490.00835    29315.739    56.016269 
   23890     943.8234   -7913.9771   -7808.6922   -531.42272    29321.625    56.044597 
   23900    937.92084   -7912.9942   -7808.3677   -362.60681    29326.415    56.041254 
   23910    930.96989   -7911.9028   -7808.0518   -96.417893    29330.453    56.026824 
   23920    931.28214   -7911.6109    -7807.725    64.172173    29334.312    56.018028 
   23930     924.6545   -7910.5331   -7807.3865   -50.241343    29338.309    56.012458 
   23940    914.59774   -7909.0453   -7807.0205    -57.62342    29342.288    56.008254 
   23950    923.28558   -7909.6055   -7806.6116    9.6844619    29346.207    56.013768 
   23960    948.47298   -7911.9693   -7806.1658    297.33977    29350.251    56.032871 
   23970    952.50441    -7911.981   -7805.7277    865.61993    29355.114    56.057982 
   23980    958.54134   -7912.2608   -7805.3341    1075.9807    29361.981    56.071839 
   23990    961.45734   -7912.2393   -7804.9873    1042.9643    29371.427    56.075042 
   24000     960.0924   -7911.7928    -7804.693     898.9778     29383.43    56.090311 
   24010    957.51034   -7911.2614   -7804.4497    812.07869    29397.727    56.127442 
   24020    938.87977   -7908.9749   -7804.2414    820.08792    29414.176     56.17151 
   24030    930.24045   -7907.8127    -7804.043    539.53053    29432.734    56.210458 
   24040    921.27146   -7906.5779   -7803.8087    308.90962    29452.875    56.244881 
   24050    945.29037   -7908.9878   -7803.5393    44.110958    29474.046    56.278459 
   24060      968.522   -7911.2974   -7803.2573   -152.08648    29495.674    56.310757 
   24070    970.28204   -7911.2503   -7803.0139   -110.49148    29517.335     56.34649 
   24080    972.36009   -7911.2986   -7802.8304   -17.008374    29539.081    56.393854 
   24090    977.47087   -7911.7528   -7802.7145    23.166312    29561.113    56.448621 
   24100    958.72836   -7909.6124   -7802.6648    59.023705    29583.529    56.498755 
   24110    937.06552   -7907.1796   -7802.6485    75.888999     29606.41    56.540615 
   24120    938.55292   -7907.3159   -7802.6189    2.4228003    29629.769    56.573243 
   24130     963.2426   -7910.0269   -7802.5757   -54.013005     29653.44    56.600641 
   24140    979.35238   -7911.8216   -7802.5733    28.337077    29677.302    56.627585 
   24150    974.90262   -7911.4177   -7802.6658    167.03194    29701.532    56.661741 
   24160    961.45826   -7910.1189   -7802.8667    14.484237    29726.354     56.70953 
   24170    963.57303   -7910.6523   -7803.1643   -359.21023    29751.415    56.764956 
   24180     976.9644   -7912.5632   -7803.5814   -544.57097    29775.904    56.821163 
   24190    970.00484   -7912.3617   -7804.1562   -349.80721    29799.378     56.87562 
   24200     943.3968   -7910.0924    -7804.855    -89.36341    29822.217    56.934652 
   24210    928.60924   -7909.1963   -7805.6086   -135.05311    29844.912    57.007335 
   24220    907.57699   -7907.5742   -7806.3327    6.3735146    29867.492     57.08668 
   24230    904.10087   -7907.8403   -7806.9864   -87.657368     29890.15    57.157915 
   24240    897.15415   -7907.6244   -7807.5455   -245.60365    29912.713    57.222088 
   24250    902.83104   -7908.7194   -7808.0072   -500.92705    29934.762    57.282458 
   24260    913.01635   -7910.2386   -7808.3902   -616.32351    29955.751    57.341094 
   24270    917.19438   -7911.0291   -7808.7147    -744.9771    29975.341    57.410148 
   24280    931.78993    -7912.943   -7809.0004   -869.44389    29993.235    57.495759 
   24290     957.0203   -7916.0427   -7809.2856   -1084.4354    30009.072    57.590385 
   24300    954.38091   -7916.0742   -7809.6116   -1057.5808    30022.409    57.681159 
   24310    932.37091   -7913.9684    -7809.961   -975.56298    30033.249    57.757903 
   24320    936.72607   -7914.7988   -7810.3056   -1077.9341    30041.722    57.816893 
   24330    938.88505   -7915.3829   -7810.6488   -1108.5127    30047.646    57.859848 
   24340    932.51861   -7915.0187   -7810.9949   -1081.6397    30050.942    57.892024 
   24350    936.97838    -7915.867   -7811.3456   -1200.9373      30051.6     57.91946 
   24360    924.80416    -7914.856   -7811.6927   -1223.4863    30049.381    57.944382 
   24370    913.42266   -7913.9116   -7812.0179   -1100.0551     30044.23    57.962157 
   24380    908.93064   -7913.6817   -7812.2891   -854.95055    30036.437    57.968402 
   24390     921.6848   -7915.3312   -7812.5159   -608.95643    30026.545    57.963303 
   24400    910.99026   -7914.3177   -7812.6954   -153.34918    30015.219    57.956555 
   24410    911.41499   -7914.4963   -7812.8266    86.421166    30003.439    57.965364 
   24420     915.6694   -7915.0501   -7812.9058     55.78032    29991.768    57.992657 
   24430    908.15885   -7914.2403   -7812.9338    119.81719    29980.216    58.023505 
   24440    919.86422   -7915.5215   -7812.9092   -16.816749     29968.86    58.044622 
   24450    925.91319   -7916.1267   -7812.8397   -59.955218    29957.451    58.054328 
   24460    916.83136   -7915.0084   -7812.7344   -12.544062    29945.865    58.065216 
   24470    913.22401   -7914.4459   -7812.5744    -77.17028     29934.19    58.091163 
   24480     927.4734   -7915.8147   -7812.3536   -296.30604    29922.252    58.136919 
   24490    935.28434   -7916.4165   -7812.0842   -318.30774    29909.598    58.197572 
   24500    938.52858   -7916.4773    -7811.783   -165.80678    29896.162    58.259349 
   24510    951.75946   -7917.6228   -7811.4526   -137.43173    29882.228    58.315103 
   24520    958.32489   -7918.0095   -7811.1069   -240.56244    29867.869     58.35768 
   24530    948.05336   -7916.5189   -7810.7621   -303.87845    29852.893    58.382808 
   24540    959.91116   -7917.4922   -7810.4127   -689.96473    29837.051    58.392996 
   24550    977.24715   -7919.0872   -7810.0738   -1104.7801    29819.493    58.403795 
   24560    957.73848   -7916.6148   -7809.7777   -1074.8413    29799.328    58.434829 
   24570    934.81453   -7913.7838   -7809.5038   -951.35692     29776.52    58.487551 
   24580     931.6475   -7913.1312   -7809.2045   -736.44084    29751.347    58.552361 
   24590    925.67934   -7912.0987   -7808.8377   -217.27902    29724.385    58.607071 
   24600    934.63436   -7912.6548   -7808.3949    286.80825    29696.783    58.630418 
   24610    944.75344   -7913.2643   -7807.8756    661.43697    29669.739    58.623709 
   24620    958.70057   -7914.2555    -7807.311    685.18186    29644.073    58.602493 
   24630    973.07178   -7915.2867   -7806.7391    463.00795    29619.864    58.582616 
   24640    975.99824   -7915.0722   -7806.1981    236.55337    29596.652    58.575241 
   24650    969.64907    -7913.879   -7805.7132     71.78462    29573.914    58.590551 
   24660    963.02494   -7912.7026   -7805.2757    113.16423    29551.286    58.628693 
   24670    950.18566   -7910.8532   -7804.8586    409.07253    29528.873    58.670309 
   24680    939.09533   -7909.2005    -7804.443    739.01658    29507.323    58.700198 
   24690    929.54397   -7907.6926   -7804.0005    1020.6639    29487.403    58.723007 
   24700    933.32301   -7907.6257   -7803.5121    1206.8658    29469.769    58.737531 
   24710    947.18786   -7908.6384   -7802.9782    1086.4216    29454.811     58.75023 
   24720    970.28903   -7910.6732    -7802.436    811.04894    29442.292    58.773364 
   24730    983.52515   -7911.6495   -7801.9358    745.78063    29431.668    58.815955 
   24740    995.50207    -7912.572   -7801.5223    831.63679    29422.764    58.876503 
   24750    1001.8621   -7912.9826   -7801.2233    910.20064    29415.763    58.940621 
   24760    1006.7192   -7913.3696   -7801.0686    875.45376     29410.82    58.997789 
   24770    991.83322   -7911.7058   -7801.0654    994.14587    29407.922    59.049202 
   24780    976.37647   -7910.1158   -7801.1995    1260.2653    29407.366    59.097051 
   24790    974.09431   -7910.1183   -7801.4566    1348.9305    29409.708    59.154825 
   24800    958.56548   -7908.7553   -7801.8259    1220.3029    29415.172    59.242153 
   24810    954.63667   -7908.7864   -7802.2952    708.01623    29423.443    59.363728 
   24820    960.21188   -7909.9825   -7802.8694     249.4796    29433.445    59.500908 
   24830    952.95333   -7909.8681   -7803.5647    249.63027    29444.205    59.626527 
   24840    930.54738   -7908.1576   -7804.3537    403.81096    29455.668    59.732457 
   24850    916.85508   -7907.4595    -7805.183    400.04573    29468.136    59.819592 
   24860    906.98738   -7907.1735   -7805.9977     115.4562    29481.568    59.886584 
   24870    906.19437   -7907.8481   -7806.7607   -177.78278    29495.377    59.940417 
   24880    913.68218   -7909.3863   -7807.4637   -248.01903    29508.923    59.992436 
   24890    911.84045   -7909.8189   -7808.1018   -205.13892    29522.016    60.042441 
   24900    916.70462    -7910.927   -7808.6672   -159.02933    29534.734    60.088755 
   24910    937.85905   -7913.7984   -7809.1788    17.710805    29547.206    60.137841 
   24920    951.62745   -7915.8256   -7809.6702    240.39044    29559.803     60.19488 
   24930    948.46954   -7915.9594   -7810.1562     431.3055    29573.051    60.262247 
   24940    936.04114   -7915.0342   -7810.6174    484.66924    29587.369    60.339519 
   24950    934.25523   -7915.2502   -7811.0326    399.62221    29602.893    60.421034 
   24960    932.42793   -7915.4101   -7811.3963    340.39158    29619.468    60.499283 
   24970    922.77376   -7914.6351   -7811.6983    276.09886    29636.947    60.569239 
   24980    930.31927   -7915.7237   -7811.9452    20.426053    29655.126    60.624136 
   24990    931.91252   -7916.1067   -7812.1505   -183.27835    29673.473    60.661281 
   25000    916.71007   -7914.5818   -7812.3214   -185.21165    29691.529    60.693688 
Loop time of 11971 on 16 procs for 20000 steps with 864 atoms

Performance: 0.144 ns/day, 166.264 hours/ns, 1.671 timesteps/s
97.9% CPU use with 16 MPI tasks x 1 OpenMP threads

MPI task timing breakdown:
Section |  min time  |  avg time  |  max time  |%varavg| %total
---------------------------------------------------------------
Pair    | 9117.8     | 10435      | 11128      | 615.0 | 87.17
Bond    | 0.0020716  | 0.0070396  | 0.013974   |   4.1 |  0.00
Neigh   | 0.22289    | 0.23647    | 0.24766    |   1.5 |  0.00
Comm    | 410.02     | 1260.4     | 2198.5     |1470.9 | 10.53
Output  | 1.5065     | 1.5315     | 1.8965     |   7.6 |  0.01
Modify  | 57.75      | 273.34     | 680.72     |1467.8 |  2.28
Other   |            | 0.09312    |            |       |  0.00

Nlocal:        54.0000 ave          58 max          48 min
Histogram: 1 1 0 2 3 0 1 1 2 5
Nghost:        406.688 ave         430 max         383 min
Histogram: 2 0 2 2 2 3 1 1 1 2
Neighs:         0.00000 ave           0 max           0 min
Histogram: 16 0 0 0 0 0 0 0 0 0
FullNghs:      1527.62 ave        1784 max        1261 min
Histogram: 1 2 1 1 3 1 3 2 1 1

Total # of neighbors = 24442
Ave neighs/atom = 28.289352
Ave special neighs/atom = 0.0000000
Neighbor list builds = 2000
Dangerous builds = 2000
Total wall time: 4:08:50
