LAMMPS (2 Aug 2023)
OMP_NUM_THREADS environment is not set. Defaulting to 1 thread. (src/comm.cpp:98)
  using 1 OpenMP thread(s) per MPI task
Reading restart file ...
  restart file = 2 Aug 2023, LAMMPS = 2 Aug 2023
  restoring atom style full from restart
  orthogonal box = (-1.043091 -0.71039117 -9.0393714) to (23.779066 23.446366 77.247295)
  1 by 1 by 1 MPI processor grid
  pair style chgnet/gpu stores no restart info
  1536 atoms
Finding 1-2 1-3 1-4 neighbors ...
  special bond factors lj:    0        0        0       
  special bond factors coul:  0        0        0       
     0 = max # of 1-2 neighbors
     0 = max # of 1-3 neighbors
     0 = max # of 1-4 neighbors
     1 = max # of special neighbors
  special bonds CPU = 0.001 seconds
  read_restart CPU = 0.077 seconds
Resetting peratom fix info from restart file:
  fix style: STORE/ATOM, fix ID: msd_COMPUTE_STORE
All restart file peratom fix info was re-assigned
Neighbor list info ...
  update: every = 1 steps, delay = 10 steps, check = yes
  max neighbors/atom: 2000, page size: 100000
  master list distance cutoff = 6.3
  ghost atom cutoff = 6.3
  binsize = 3.15, bins = 8 8 28
  1 neighbor lists, perpetual/occasional/extra = 1 0 0
  (1) pair chgnet/gpu, perpetual
      attributes: full, newton on
      pair build: full/bin
      stencil: full/bin/3d
      bin: standard
Setting up Verlet run ...
  Unit style    : metal
  Current step  : 20000
  Time step     : 0.001
Per MPI rank memory allocation (min/avg/max) = 6.547 | 6.547 | 6.547 Mbytes
   Step          Temp          PotEng         TotEng         Press          Volume        c_msd[4]   
     20000   1497.4781     -5523.0941     -5225.973       3591.303       51739.452      56.877471    
     20010   1507.3622     -5525.0537     -5225.9715      3626.0299      51738.892      57.035414    
     20020   1515.3162     -5526.6552     -5225.9947      3460.3096      51737.549      57.189233    
     20030   1520.6985     -5527.8182     -5226.0899      3265.785       51735.531      57.322893    
     20040   1507.192      -5525.2961     -5226.2477      3290.7359      51732.687      57.418709    
     20050   1511.04       -5526.2761     -5226.4641      3197.878       51729.166      57.496705    
     20060   1512.6548     -5526.876      -5226.7436      3079.8407      51725.094      57.570133    
     20070   1488.6678     -5522.4463     -5227.0733      3141.406       51720.492      57.636306    
     20080   1482.5642     -5521.5667     -5227.4047      3070.1717      51715.397      57.695649    
     20090   1488.165      -5523.0029     -5227.7297      3072.8813      51709.815      57.751354    
     20100   1493.3691     -5524.3649     -5228.059       3220.4103      51704.002      57.798097    
     20110   1486.2826     -5523.3241     -5228.4244      3469.9268      51698.027      57.857269    
     20120   1465.4125     -5519.517      -5228.7581      3685.2942      51691.904      57.964164    
     20130   1469.5957     -5520.6537     -5229.0648      3462.9608      51685.559      58.093127    
     20140   1472.1128     -5521.4246     -5229.3363      3265.0737      51678.674      58.227818    
     20150   1480.541      -5523.3468     -5229.5863      3084.3734      51670.999      58.379291    
     20160   1477.1904     -5522.896      -5229.8003      3003.3709      51662.314      58.545474    
     20170   1492.1907     -5526.1139     -5230.0419      2863.1691      51652.183      58.706758    
     20180   1480.3063     -5524.0045     -5230.2905      3215.4985      51640.511      58.841843    
     20190   1481.9269     -5524.6124     -5230.5769      3537.2401      51627.654      58.941786    
     20200   1509.2587     -5530.3202     -5230.8616      3447.4256      51614.066      59.011174    
     20210   1504.7593     -5529.8199     -5231.2541      3559.4829      51599.896      59.08091     
     20220   1509.4657     -5531.2764     -5231.7768      3440.2297      51585.193      59.165263    
     20230   1515.3879     -5533.1309     -5232.4562      3226.3245      51569.67       59.253923    
     20240   1512.3309     -5533.4055     -5233.3374      3100.1536      51552.942      59.333311    
     20250   1498.2317     -5531.6499     -5234.3793      3290.5852      51535.125      59.393425    
     20260   1467.5077     -5526.6595     -5235.485       3851.5257      51516.819      59.420893    
     20270   1476.9067     -5529.6442     -5236.6047      4070.3922      51498.846      59.423988    
     20280   1471.1998     -5529.5918     -5237.6847      4488.4134      51481.67       59.427303    
     20290   1475.6808     -5531.5631     -5238.7669      4690.2126      51465.571      59.426916    
     20300   1453.5402     -5528.187      -5239.7838      4805.8849      51450.582      59.412081    
     20310   1453.7846     -5529.1626     -5240.7109      4406.2707      51436.269      59.395613    
     20320   1441.8548     -5527.585      -5241.5003      4071.4044      51421.976      59.389853    
     20330   1466.7847     -5533.2056     -5242.1745      3817.1624      51407.465      59.38734     
     20340   1477.942      -5536.021      -5242.7761      3799.6716      51392.946      59.380517    
     20350   1488.5483     -5538.717      -5243.3677      3639.4332      51378.829      59.377911    
     20360   1492.752      -5540.1412     -5243.9579      3491.8902      51365.378      59.39536     
     20370   1474.7611     -5537.1885     -5244.5747      3605.642       51352.764      59.424894    
     20380   1487.9951     -5540.4529     -5245.2133      3383.0444      51341.299      59.455638    
     20390   1487.3921     -5540.9539     -5245.834       3192.1569      51331.174      59.477192    
     20400   1480.3333     -5540.2163     -5246.497       3244.272       51322.202      59.487109    
     20410   1458.6784     -5536.585      -5247.1623      3729.1468      51313.8        59.494962    
     20420   1464.984      -5538.4336     -5247.7598      3882.5183      51305.846      59.51379     
     20430   1469.3206     -5539.8505     -5248.3162      3687.3101      51298.521      59.553945    
     20440   1471.2041     -5540.7605     -5248.8525      3272.087       51291.79       59.625434    
     20450   1470.6719     -5541.1919     -5249.3895      2966.8924      51285.275      59.730856    
     20460   1470.2928     -5541.6306     -5249.9035      2841.8511      51278.471      59.84928     
     20470   1488.5006     -5545.7944     -5250.4546      2622.1801      51271.015      59.967739    
     20480   1446.6204     -5538.041      -5251.0108      3163.6119      51262.696      60.076261    
     20490   1412.2415     -5531.6785     -5251.4695      3462.6507      51253.869      60.169153    
     20500   1429.1734     -5535.3501     -5251.7816      3221.9535      51244.6        60.25579     
     20510   1401.1997     -5529.9276     -5251.9095      3394.2913      51234.143      60.356574    
     20520   1385.0134     -5526.6226     -5251.8161      3620.3605      51222.312      60.473781    
     20530   1387.7985     -5526.7291     -5251.37        3548.8956      51209.352      60.586619    
     20540   1412.244      -5530.7673     -5250.5579      3441.2703      51195.625      60.683758    
     20550   1442.3749     -5535.5698     -5249.382       3539.0412      51181.515      60.773264    
     20560   1431.3633     -5531.8564     -5247.8535      3949.4218      51167.455      60.854344    
     20570   1453.1959     -5534.376      -5246.0411      3786.7922      51153.693      60.917619    
     20580   1472.1126     -5536.1396     -5244.0514      3451.5463      51139.822      60.957023    
     20590   1461.2512     -5531.9612     -5242.028       3559.8867      51125.514      60.982888    
     20600   1488.9455     -5535.5684     -5240.1403      3363.2096      51110.804      61.008116    
     20610   1475.5778     -5531.2533     -5238.4775      3624.7858      51095.925      61.033607    
     20620   1462.979      -5527.3887     -5237.1127      4112.1913      51081.277      61.043318    
     20630   1495.0505     -5532.6174     -5235.978       4324.0798      51067.04       61.051927    
     20640   1505.443      -5533.7992     -5235.0977      4600.5376      51053.034      61.08139     
     20650   1544.769      -5541.0146     -5234.5103      4416.5373      51039.333      61.106501    
     20660   1539.6676     -5539.7483     -5234.2562      4337.0336      51025.781      61.128861    
     20670   1504.9186     -5532.8551     -5234.2577      4260.4646      51012.062      61.173468    
     20680   1492.253      -5530.4908     -5234.4065      4005.7544      50998.038      61.234066    
     20690   1462.3133     -5524.7384     -5234.5945      4271.5504      50983.837      61.282528    
     20700   1451.445      -5522.7239     -5234.7364      4390.8196      50969.9        61.317163    
     20710   1464.6499     -5525.4521     -5234.8446      4515.8356      50956.474      61.351523    
     20720   1476.0942     -5527.7878     -5234.9096      4853.314       50943.737      61.413167    
     20730   1505.3229     -5533.7025     -5235.0249      4990.8694      50932.041      61.510549    
     20740   1490.3626     -5530.9351     -5235.2258      4962.5435      50921.393      61.617504    
     20750   1473.7942     -5527.9453     -5235.5234      5110.8777      50911.634      61.707749    
     20760   1488.8908     -5531.291      -5235.8738      4940.2428      50902.776      61.775198    
     20770   1488.2023     -5531.5675     -5236.2868      4685.9514      50894.826      61.830723    
     20780   1469.5927     -5528.3595     -5236.7713      4457.6664      50887.522      61.8906      
     20790   1461.6913     -5527.3103     -5237.2898      4477.319       50880.357      61.952235    
     20800   1474.3181     -5530.3466     -5237.8207      4488.6532      50872.98       62.025765    
     20810   1481.2221     -5532.2798     -5238.3841      4607.1818      50865.204      62.106915    
     20820   1488.8161     -5534.4448     -5239.0424      4839.4234      50857.162      62.17036     
     20830   1499.1076     -5537.2709     -5239.8265      4940.6974      50849.421      62.225547    
     20840   1471.9696     -5532.7906     -5240.7308      5352.9532      50842.557      62.288186    
     20850   1442.2748     -5527.8527     -5241.6847      5764.1269      50837.053      62.354956    
     20860   1434.9801     -5527.3        -5242.5794      5927.0102      50833.388      62.430389    
     20870   1447.7672     -5530.6637     -5243.406       5536.772       50831.811      62.545213    
     20880   1478.9304     -5537.6678     -5244.2269      4844.0208      50832.289      62.704148    
     20890   1459.2311     -5534.6349     -5245.1025      4532.6351      50834.768      62.870386    
     20900   1420.7023     -5527.8256     -5245.9379      4544.6698      50839.336      63.032709    
     20910   1425.0543     -5529.4321     -5246.681       4197.6033      50845.786      63.210497    
     20920   1462.7576     -5537.5686     -5247.3365      3623.5783      50853.252      63.402515    
     20930   1461.6545     -5538.0073     -5247.9941      3437.7018      50860.873      63.593969    
     20940   1437.9765     -5533.9816     -5248.6664      3748.4736      50868.459      63.755724    
     20950   1410.3307     -5529.0959     -5249.2661      4177.5062      50876.475      63.881435    
     20960   1417.5102     -5530.9874     -5249.7331      4052.4815      50885.125      63.988241    
     20970   1459.0238     -5539.5817     -5250.0904      3713.8618      50894.138      64.105578    
     20980   1468.1697     -5541.7852     -5250.4793      3783.166       50903.207      64.242266    
     20990   1462.7705     -5541.1608     -5250.9262      3908.5743      50912.273      64.385099    
     21000   1454.5012     -5540.0266     -5251.4327      3844.4386      50921.301      64.52027     
     21010   1431.818      -5536.051      -5251.9578      3630.5893      50930.183      64.651252    
     21020   1441.5043     -5538.5134     -5252.4983      3152.5609      50938.737      64.79146     
     21030   1438.1295     -5538.4061     -5253.0606      2987.2233      50946.788      64.923184    
     21040   1421.2957     -5535.6522     -5253.6468      3106.1412      50954.326      65.029609    
     21050   1430.8498     -5538.1685     -5254.2674      3328.0006      50961.36       65.117386    
     21060   1439.5343     -5540.5968     -5254.9726      3742.3858      50968.198      65.190361    
     21070   1415.4459     -5536.5908     -5255.7461      4329.2784      50975.137      65.275622    
     21080   1429.5383     -5540.2573     -5256.6164      4379.4068      50982.281      65.387199    
     21090   1452.6963     -5545.842      -5257.6063      3983.6542      50989.627      65.505762    
     21100   1466.0641     -5549.7382     -5258.85        3593.5414      50996.857      65.608054    
     21110   1457.4795     -5549.5203     -5260.3355      3465.935       51003.798      65.691285    
     21120   1430.0434     -5545.7505     -5262.0094      3693.6824      51010.703      65.770464    
     21130   1410.1394     -5543.4961     -5263.7042      3755.9653      51018.036      65.857034    
     21140   1412.0918     -5545.4952     -5265.316       3638.0428      51025.984      65.945457    
     21150   1383.6374     -5541.2388     -5266.7053      3982.3155      51034.227      66.037149    
     21160   1399.2578     -5545.4956     -5267.8628      4000.9776      51042.577      66.129239    
     21170   1406.662      -5547.8943     -5268.7924      4021.0019      51050.625      66.226044    
     21180   1395.6466     -5546.4503     -5269.534       4003.7798      51058.252      66.352637    
     21190   1377.2915     -5543.3071     -5270.0328      3832.6927      51065.692      66.520853    
     21200   1338.3577     -5535.824      -5270.2746      3943.6816      51073.327      66.696526    
     21210   1345.0724     -5537.0955     -5270.2138      3910.4358      51081.513      66.87554     
     21220   1338.8863     -5535.4552     -5269.801       4071.9193      51090.297      67.07565     
     21230   1366.251      -5540.1526     -5269.0688      3735.7344      51099.659      67.290441    
     21240   1397.1136     -5545.2748     -5268.0674      3145.2473      51109.094      67.504772    
     21250   1396.6137     -5544.0264     -5266.9182      2945.1168      51117.967      67.708628    
     21260   1381.3966     -5539.76       -5265.6711      3119.9068      51126.132      67.883632    
     21270   1389.3021     -5539.9596     -5264.3022      2935.7897      51133.91       68.044127    
     21280   1381.2989     -5536.9296     -5262.8601      2988.6958      51141.395      68.233748    
     21290   1373.8387     -5534.0098     -5261.4205      3181.5964      51148.8        68.474853    
     21300   1367.6431     -5531.3342     -5259.9742      3435.2203      51156.302      68.739187    
     21310   1367.9523     -5529.9532     -5258.5319      3562.4292      51163.692      68.982371    
     21320   1387.295      -5532.4109     -5257.1517      3406.1893      51170.697      69.202648    
     21330   1386.6014     -5530.9885     -5255.867       3452.7163      51177.134      69.399736    
     21340   1390.2353     -5530.5275     -5254.6849      3539.7933      51182.856      69.575883    
     21350   1411.0067     -5533.5117     -5253.5478      3486.1563      51187.813      69.74624     
     21360   1444.9192     -5539.1997     -5252.507       3317.4352      51191.999      69.916143    
     21370   1461.4473     -5541.6053     -5251.6333      3344.9782      51195.058      70.084131    
     21380   1452.6175     -5539.1492     -5250.9291      3516.1215      51196.815      70.236974    
     21390   1470.566      -5542.1385     -5250.3572      3181.4107      51197.9        70.357929    
     21400   1456.0585     -5538.8057     -5249.9028      3053.0048      51198.558      70.448076    
     21410   1455.2906     -5538.3431     -5249.5926      2701.2381      51198.803      70.540122    
     21420   1423.8725     -5531.8286     -5249.3119      2665.7487      51198.666      70.640742    
     21430   1426.2452     -5532.0198     -5249.0323      2488.1461      51198.06       70.739661    
     21440   1449.1405     -5536.2719     -5248.7416      2538.9265      51196.583      70.834085    
     21450   1444.9369     -5535.171      -5248.4748      3039.3264      51194.366      70.92571     
     21460   1441.5641     -5534.2665     -5248.2395      3508.1194      51192.109      71.041552    
     21470   1463.9415     -5538.5164     -5248.0494      3206.7448      51190.183      71.19278     
     21480   1484.1036     -5542.4301     -5247.9626      2660.5488      51188.208      71.379063    
     21490   1467.5915     -5539.2283     -5248.0371      2629.3439      51185.679      71.574618    
     21500   1450.161      -5535.969      -5248.2363      2773.7074      51182.36       71.764876    
     21510   1441.3213     -5534.4683     -5248.4895      2839.6546      51178.19       71.955159    
     21520   1439.2018     -5534.373      -5248.8148      2917.0662      51173.018      72.135054    
     21530   1434.1607     -5533.7219     -5249.1639      3152.0066      51167.072      72.27657     
     21540   1450.7316     -5537.4045     -5249.5586      3297.7709      51160.913      72.362716    
     21550   1483.7294     -5544.4574     -5250.0642      3099.2436      51154.931      72.433047    
     21560   1481.8393     -5544.8112     -5250.793       3345.8397      51149.142      72.519459    
     21570   1476.7755     -5544.7489     -5251.7355      3774.6006      51143.932      72.619412    
     21580   1483.3889     -5547.2183     -5252.8927      3994.5905      51139.473      72.713243    
     21590   1463.429      -5544.6324     -5254.2672      4295.5923      51135.356      72.776236    
     21600   1455.5625     -5544.5574     -5255.7529      4143.5703      51131.794      72.822501    
     21610   1460.6128     -5547.1161     -5257.3096      3508.3515      51129.06       72.883034    
     21620   1434.6045     -5543.4965     -5258.8504      3223.0864      51126.721      72.9919      
     21630   1415.7992     -5541.1868     -5260.2719      3096.3488      51124.48       73.148937    
     21640   1425.8123     -5544.4266     -5261.5251      2932.4548      51122.132      73.320549    
     21650   1434.1149     -5547.1736     -5262.6247      2890.7645      51119.338      73.472624    
     21660   1442.0725     -5549.7495     -5263.6217      2762.317       51115.759      73.586671    
     21670   1451.0167     -5552.4712     -5264.5687      2547.1296      51111.347      73.672027    
     21680   1434.6138     -5550.1249     -5265.477       2718.4994      51106.325      73.760144    
     21690   1404.2716     -5544.8925     -5266.2649      3014.7932      51100.765      73.872708    
     21700   1409.9307     -5546.6803     -5266.9299      3016.4503      51094.53       74.006109    
     21710   1381.0907     -5541.4739     -5267.4457      3498.0067      51087.561      74.135345    
     21720   1349.3271     -5535.4757     -5267.7499      4118.4509      51080.369      74.233624    
     21730   1357.6883     -5537.2156     -5267.8308      3975.4551      51073.559      74.307964    
     21740   1382.7199     -5542.0422     -5267.6908      3367.6307      51067.249      74.386895    
     21750   1400.8772     -5545.3905     -5267.4364      2814.1644      51061.075      74.479497    
     21760   1396.3999     -5544.174      -5267.1082      2864.7796      51054.551      74.571944    
     21770   1418.5709     -5548.1858     -5266.721       3202.0248      51047.561      74.644942    
     21780   1436.7968     -5551.4077     -5266.3266      3722.8583      51040.33       74.70767     
     21790   1448.6034     -5553.4061     -5265.9825      4265.3261      51033.293      74.778519    
     21800   1463.2422     -5556.0773     -5265.7491      4298.311       51026.946      74.874002    
     21810   1461.6738     -5555.7015     -5265.6845      4315.9065      51021.326      74.997157    
     21820   1416.6483     -5546.8081     -5265.7248      4588.9459      51016.481      75.137793    
     21830   1414.8843     -5546.5503     -5265.817       4207.4608      51012.426      75.291768    
     21840   1400.3272     -5543.725      -5265.88        4016.6208      51008.54       75.438535    
     21850   1394.5255     -5542.5828     -5265.8889      3939.197       51004.465      75.541974    
     21860   1401.701      -5543.9385     -5265.8209      3824.7251      51000.202      75.58785     
     21870   1397.2175     -5542.916      -5265.6881      3734.1042      50995.876      75.589742    
     21880   1413.3724     -5545.9325     -5265.4992      3653.0635      50991.485      75.56596     
     21890   1416.4278     -5546.2994     -5265.2599      3744.2736      50987.058      75.516971    
     21900   1420.0022     -5546.7631     -5265.0143      3812.5663      50982.671      75.452534    
     21910   1402.6129     -5543.0424     -5264.7439      4009.4148      50978.344      75.412091    
     21920   1407.5921     -5543.6942     -5264.4078      3778.8857      50974.482      75.416435    
     21930   1422.9769     -5546.3254     -5263.9864      3425.5624      50971.127      75.44956     
     21940   1422.7633     -5545.8325     -5263.5359      3145.1228      50967.813      75.495863    
     21950   1431.0979     -5546.9791     -5263.0288      2973.3746      50964.353      75.555253    
     21960   1458.1543     -5551.8398     -5262.5211      2720.1831      50960.766      75.639263    
     21970   1460.9699     -5551.9413     -5262.0639      3100.7127      50956.893      75.762713    
     21980   1457.6546     -5550.9496     -5261.73        3552.1497      50952.992      75.923511    
     21990   1458.5508     -5550.9371     -5261.5398      3840.7729      50949.614      76.096618    
     22000   1448.6891     -5548.9197     -5261.479       3857.2256      50946.805      76.240474    
     22010   1446.5183     -5548.5861     -5261.5761      3671.8443      50944.133      76.358656    
     22020   1419.0344     -5543.3705     -5261.8137      3572.9178      50941.353      76.482671    
     22030   1417.1914     -5543.3397     -5262.1487      3279.5779      50938.571      76.630422    
     22040   1413.0783     -5542.9292     -5262.5542      3095.5338      50935.563      76.793711    
     22050   1392.6567     -5539.3231     -5263.0001      3319.1427      50931.983      76.918664    
     22060   1401.5986     -5541.5837     -5263.4865      3512.8144      50927.88       76.977082    
     22070   1398.8608     -5541.5171     -5263.9631      3721.4792      50923.108      77.017972    
     22080   1445.1094     -5551.2557     -5264.5253      3422.2356      50917.42       77.042186    
     22090   1441.6062     -5551.2697     -5265.2343      3605.0606      50910.516      77.03471     
     22100   1427.3748     -5549.3423     -5266.1307      3821.8284      50902.644      77.01527     
     22110   1447.5901     -5554.4216     -5267.199       3516.273       50894.181      77.004749    
     22120   1429.0168     -5551.9746     -5268.4372      3703.0527      50885.184      77.01306     
     22130   1404.8669     -5548.5007     -5269.755       3953.1908      50875.854      77.037577    
     22140   1389.8809     -5546.8286     -5271.0563      4188.8928      50866.543      77.062658    
     22150   1369.5152     -5544.0007     -5272.2693      4484.7768      50857.55       77.082536    
     22160   1357.3277     -5542.6099     -5273.2966      4751.5606      50849.131      77.096518    
     22170   1363.7663     -5544.7405     -5274.1497      4606.6738      50841.399      77.114215    
     22180   1336.6298     -5540.0035     -5274.797       4685.4219      50834.359      77.148664    
     22190   1340.1501     -5541.108      -5275.2031      4489.4227      50828.185      77.188275    
     22200   1380.4721     -5549.339      -5275.4336      4124.0991      50822.812      77.209609    
     22210   1394.8047     -5552.3309     -5275.5817      4046.2952      50817.814      77.214379    
     22220   1387.1577     -5550.9137     -5275.6817      4057.1902      50813.103      77.222113    
     22230   1387.2884     -5551.0173     -5275.7594      3915.7605      50808.716      77.248045    
     22240   1380.804      -5549.7671     -5275.7958      3732.3429      50804.576      77.299065    
     22250   1379.3034     -5549.4324     -5275.7588      3523.8526      50800.518      77.366989    
     22260   1377.9206     -5549.0757     -5275.6765      3442.9596      50796.247      77.4426      
     22270   1383.7942     -5550.0729     -5275.5083      3243.4301      50791.764      77.52213     
     22280   1396.2291     -5552.3013     -5275.2694      2904.9423      50787.136      77.620996    
     22290   1408.1164     -5554.4099     -5275.0195      2673.8208      50782.224      77.730648    
     22300   1405.0313     -5553.572      -5274.7937      2612.7223      50776.495      77.828823    
     22310   1390.4233     -5550.4534     -5274.5735      2684.2619      50769.58       77.907945    
     22320   1375.7828     -5547.3105     -5274.3355      2726.7264      50761.314      77.970209    
     22330   1373.5788     -5546.5298     -5273.9921      2895.9054      50751.803      78.026828    
     22340   1401.0946     -5551.537      -5273.5397      3034.3213      50741.537      78.075512    
     22350   1405.1389     -5551.8018     -5273.0021      3194.3922      50731.001      78.118365    
     22360   1434.921      -5557.1854     -5272.4765      3106.1417      50720.554      78.161734    
     22370   1421.6212     -5554.0312     -5271.9613      3426.3638      50710.348      78.200483    
     22380   1437.63       -5556.7749     -5271.5285      3455.3047      50700.602      78.238154    
     22390   1424.76       -5553.8265     -5271.1337      3475.088       50691.621      78.285117    
     22400   1421.3808     -5552.8689     -5270.8466      3344.4758      50683.796      78.349435    
     22410   1422.3515     -5552.8198     -5270.6049      3382.2313      50677.164      78.449623    
     22420   1427.2087     -5553.6288     -5270.4501      3451.3634      50671.459      78.58605     
     22430   1434.3716     -5555.0101     -5270.4103      3232.2771      50666.512      78.733474    
     22440   1432.655      -5554.7981     -5270.5388      3282.4303      50662.104      78.873643    
     22450   1416.8708     -5551.9611     -5270.8336      3846.9769      50657.882      79.001297    
     22460   1411.9078     -5551.4465     -5271.3038      4512.9672      50653.775      79.118353    
     22470   1401.4132     -5549.959      -5271.8985      4871.0166      50650.031      79.229985    
     22480   1438.6883     -5558.1299     -5272.6735      4369.9382      50646.94       79.356616    
     22490   1434.4568     -5558.3265     -5273.7098      4012.023       50644.562      79.504105    
     22500   1403.4125     -5553.4373     -5274.9801      3885.2463      50642.919      79.661777    
     22510   1378.1972     -5549.8055     -5276.3515      3730.1091      50641.875      79.818405    
     22520   1353.9182     -5546.3459     -5277.7092      3781.8797      50641.305      79.971486    
     22530   1331.0169     -5542.9926     -5278.8997      4055.7258      50641.251      80.125866    
     22540   1351.4535     -5548.0562     -5279.9084      3943.7511      50641.818      80.291051    
     22550   1386.8891     -5555.9956     -5280.8169      3552.515       50642.719      80.45485     
     22560   1374.8931     -5554.4674     -5281.6689      3556.0306      50643.831      80.597499    
     22570   1379.4223     -5556.1729     -5282.4757      3488.7336      50645.503      80.735871    
     22580   1375.7351     -5556.1897     -5283.2241      3506.0478      50647.634      80.890238    
     22590   1383.1167     -5558.3599     -5283.9297      3527.945       50649.815      81.064102    
     22600   1383.8264     -5559.1692     -5284.5982      3459.6081      50651.819      81.239066    
     22610   1368.8684     -5556.8364     -5285.2333      3656.6566      50653.771      81.40284     
     22620   1381.1212     -5559.8533     -5285.819       3461.2232      50655.874      81.561384    
     22630   1406.148      -5565.4226     -5286.4227      3222.7767      50658.067      81.727637    
     22640   1360.8337     -5557.0481     -5287.0392      3718.4283      50660.375      81.909588    
     22650   1323.2987     -5550.1392     -5287.5778      4019.3873      50663.476      82.105041    
     22660   1325.2986     -5550.8756     -5287.9174      3971.5831      50668.164      82.294483    
     22670   1329.743      -5551.9135     -5288.0734      3986.1983      50674.851      82.465915    
     22680   1339.6823     -5553.8811     -5288.0689      4048.6251      50683.543      82.627478    
     22690   1355.0909     -5556.8027     -5287.9333      4060.2655      50693.731      82.799647    
     22700   1339.8455     -5553.531      -5287.6865      4233.2465      50705.007      82.991766    
     22710   1329.7312     -5551.1484     -5287.3107      4237.0697      50717.223      83.196483    
     22720   1324.9686     -5549.6583     -5286.7656      4235.349       50730.09       83.412339    
     22730   1305.6335     -5545.0488     -5285.9924      4393.5267      50743.596      83.641335    
     22740   1317.3807     -5546.3613     -5284.9741      4435.6242      50758.047      83.884036    
     22750   1343.8306     -5550.3237     -5283.6885      4370.0767      50773.32       84.142238    
     22760   1361.9663     -5552.4613     -5282.2277      4325.0425      50788.97       84.408896    
     22770   1372.9837     -5553.1626     -5280.743       4243.0483      50804.785      84.66381     
     22780   1379.9797     -5553.1161     -5279.3084      3864.0013      50820.851      84.894707    
     22790   1386.2379     -5553.0648     -5278.0154      3457.6397      50837.477      85.122729    
     22800   1384.9747     -5551.7146     -5276.9158      3469.9008      50854.787      85.367537    
     22810   1388.2451     -5551.4568     -5276.0091      3729.0237      50872.637      85.621348    
     22820   1388.9898     -5550.906      -5275.3105      4126.3606      50891.057      85.867308    
     22830   1381.1728     -5548.8234     -5274.7789      4563.3682      50910.413      86.077227    
     22840   1385.1913     -5549.2306     -5274.3888      4706.3542      50931.01       86.249906    
     22850   1388.5626     -5549.6082     -5274.0975      4385.7832      50952.827      86.422483    
     22860   1404.6947     -5552.6235     -5273.912       3773.2756      50975.323      86.607914    
     22870   1384.7254     -5548.5872     -5273.8378      3510.5483      50997.973      86.78869     
     22880   1371.6808     -5545.9735     -5273.8124      3449.3388      51020.392      86.966953    
     22890   1397.8151     -5551.1682     -5273.8217      3070.5393      51042.466      87.167663    
     22900   1415.9181     -5554.8589     -5273.9205      2964.6863      51064.02       87.388017    
     22910   1410.6355     -5554.0419     -5274.1516      3121.217       51084.916      87.601348    
     22920   1399.1294     -5552.1006     -5274.4933      3044.6394      51105.358      87.791888    
     22930   1391.5558     -5551.0349     -5274.9303      2708.1247      51125.47       87.98241     
     22940   1402.5336     -5553.7269     -5275.4442      2319.5706      51145.194      88.187101    
     22950   1379.8007     -5549.7957     -5276.0234      2501.9354      51164.452      88.389986    
     22960   1342.337      -5542.9497     -5276.6108      2959.1694      51183.485      88.574115    
     22970   1337.9446     -5542.571      -5277.1037      3051.7717      51202.755      88.735295    
     22980   1358.7638     -5547.1055     -5277.5073      3098.2631      51222.375      88.893399    
     22990   1337.7259     -5543.2412     -5277.8172      3523.3619      51242.006      89.061228    
     23000   1352.7963     -5546.4822     -5278.068       3438.4682      51261.585      89.246717    
     23010   1372.4965     -5550.5889     -5278.2659      3211.8344      51280.83       89.456206    
     23020   1373.4916     -5551.0137     -5278.4933      3022.8521      51299.26       89.701827    
     23030   1378.8855     -5552.3247     -5278.7341      2488.3138      51316.74       89.981296    
     23040   1403.7399     -5557.5828     -5279.0607      1673.4587      51333.064      90.29032     
     23050   1374.8362     -5552.2888     -5279.5016      1700.7489      51347.661      90.612642    
     23060   1355.1314     -5548.9017     -5280.0243      2114.173       51360.419      90.906538    
     23070   1343.9059     -5547.1959     -5280.5458      2572.1959      51371.734      91.161409    
     23080   1337.4252     -5546.3928     -5281.0285      2796.1077      51382.047      91.393927    
     23090   1341.1582     -5547.5574     -5281.4524      2650.2329      51391.67       91.606109    
     23100   1337.906      -5547.2864     -5281.8267      2380.6801      51400.651      91.800787    
     23110   1342.8595     -5548.6245     -5282.1819      2126.847       51408.735      91.997534    
     23120   1320.7043     -5544.5149     -5282.4682      2157.1673      51415.711      92.208193    
     23130   1332.0381     -5546.9872     -5282.6917      1959.9313      51421.6        92.410294    
     23140   1331.9287     -5547.0938     -5282.82        1920.7636      51426.232      92.583537    
     23150   1343.307      -5549.4236     -5282.8922      1874.8422      51429.498      92.744524    
     23160   1332.8525     -5547.3666     -5282.9096      2023.5923      51431.308      92.906933    
     23170   1320.1252     -5544.7646     -5282.8329      2175.1471      51431.759      93.053324    
     23180   1316.5972     -5543.8396     -5282.6078      2078.4198      51431.04       93.178069    
     23190   1326.1369     -5545.3396     -5282.215       1758.0459      51429.3        93.264125    
     23200   1311.9775     -5541.9188     -5281.6037      1734.5681      51426.543      93.29804     
     23210   1295.3228     -5537.6909     -5280.6803      1801.6772      51422.804      93.326058    
     23220   1352.4885     -5547.7863     -5279.4332      1255.9937      51418.35       93.377598    
     23230   1375.4035     -5550.809      -5277.9092      1231.3995      51412.876      93.442799    
     23240   1383.1303     -5550.7742     -5276.3413      1579.777       51405.851      93.520403    
     23250   1407.2581     -5554.0375     -5274.8173      1606.3376      51396.93       93.604749    
     23260   1429.7175     -5557.1528     -5273.4764      1668.5251      51386.029      93.692006    
     23270   1417.9843     -5553.7522     -5272.4038      2020.2819      51373.487      93.787847    
     23280   1419.661      -5553.3259     -5271.6449      2123.0602      51359.85       93.884865    
     23290   1400.3081     -5548.9812     -5271.14        2204.1955      51345.284      93.971325    
     23300   1382.0955     -5545.0664     -5270.8389      2292.3216      51329.821      94.046249    
     23310   1388.9338     -5546.2441     -5270.6598      2115.5513      51313.535      94.102708    
     23320   1407.7098     -5549.9392     -5270.6294      1889.827       51296.412      94.132328    
     23330   1400.7583     -5548.7238     -5270.7932      1866.0745      51278.47       94.146583    
     23340   1372.7409     -5543.4913     -5271.1199      2073.2274      51259.972      94.165453    
     23350   1375.0809     -5544.382      -5271.5462      2102.767       51241.003      94.183198    
     23360   1385.544      -5547.0088     -5272.097       2383.827       51221.422      94.195867    
     23370   1367.3923     -5544.0776     -5272.7674      2844.9706      51201.314      94.20887     
     23380   1366.82       -5544.7401     -5273.5435      2986.1842      51180.705      94.212609    
     23390   1355.4121     -5543.3049     -5274.3718      3138.9096      51159.47       94.181412    
     23400   1364.9339     -5546.1075     -5275.2851      3155.3386      51137.573      94.139435    
     23410   1373.6194     -5548.8171     -5276.2714      3377.4937      51115.208      94.117382    
     23420   1377.9038     -5550.7657     -5277.3699      3616.8512      51092.823      94.13049     
     23430   1367.3055     -5549.8429     -5278.5499      3880.0936      51070.892      94.179558    
     23440   1368.8485     -5551.3865     -5279.7873      3781.7243      51049.656      94.267554    
     23450   1354.9904     -5549.8909     -5281.0414      3520.6247      51028.912      94.379485    
     23460   1347.6747     -5549.644      -5282.2461      3265.204       51008.318      94.502017    
     23470   1341.9708     -5549.6158     -5283.3496      3154.6652      50987.497      94.609983    
     23480   1341.6013     -5550.5123     -5284.3194      3096.305       50966.468      94.685194    
     23490   1344.388      -5551.8962     -5285.1504      3001.4938      50945.522      94.726198    
     23500   1348.3749     -5553.4039     -5285.867       2924.5873      50924.755      94.743457    
     23510   1363.2442     -5556.9972     -5286.51        2955.4047      50903.902      94.739623    
     23520   1388.6939     -5562.6885     -5287.1517      2947.2359      50882.612      94.707772    
     23530   1382.4862     -5562.1564     -5287.8513      3086.0729      50860.619      94.665431    
     23540   1364.8835     -5559.3589     -5288.5464      3348.9417      50837.92       94.643753    
     23550   1363.4504     -5559.7621     -5289.234       3456.4832      50814.76       94.651629    
     23560   1348.7754     -5557.4897     -5289.8734      3637.8229      50791.386      94.674204    
     23570   1337.4251     -5555.8026     -5290.4383      3762.1081      50768.378      94.703658    
     23580   1330.7315     -5554.9431     -5290.9069      3789.4438      50746.276      94.712951    
     23590   1362.0467     -5561.5789     -5291.3293      3321.4426      50724.94       94.685488    
     23600   1380.4228     -5565.6903     -5291.7947      3045.5409      50703.822      94.645918    
     23610   1368.9954     -5563.9827     -5292.3544      3101.9867      50682.754      94.604707    
     23620   1358.8446     -5562.5933     -5292.979       3006.1778      50661.683      94.585858    
     23630   1355.2134     -5562.5343     -5293.6405      2982.6415      50640.486      94.594929    
     23640   1355.9824     -5563.3667     -5294.3204      2914.857       50619.131      94.6173      
     23650   1344.4496     -5561.7795     -5295.0215      2850.0295      50597.542      94.613696    
     23660   1346.9071     -5562.9796     -5295.734       2651.4555      50575.511      94.560441    
     23670   1349.0586     -5564.1134     -5296.4409      2611.632       50552.947      94.4772      
     23680   1352.7741     -5565.5713     -5297.1615      2617.7822      50529.86       94.377049    
     23690   1351.2368     -5566.0144     -5297.9097      2900.0214      50506.34       94.262285    
     23700   1333.5857     -5563.2689     -5298.6664      3243.4915      50482.676      94.143898    
     23710   1325.3186     -5562.3563     -5299.3941      3402.1435      50458.925      94.037017    
     23720   1314.1033     -5560.7966     -5300.0597      3367.6559      50434.728      93.944784    
     23730   1307.0533     -5559.9653     -5300.6272      3228.4385      50409.943      93.886961    
     23740   1301.0484     -5559.2318     -5301.0852      3182.2013      50384.756      93.865585    
     23750   1288.0127     -5556.9587     -5301.3986      3221.4131      50359.414      93.862789    
     23760   1298.9455     -5559.3065     -5301.5771      3347.4787      50334.139      93.872683    
     23770   1318.4405     -5563.24       -5301.6425      3599.5507      50309.215      93.902891    
     23780   1320.3749     -5563.6263     -5301.645       3848.0687      50284.858      93.918505    
     23790   1316.5673     -5562.8558     -5301.63        3953.0066      50261.286      93.906269    
     23800   1313.2819     -5562.1443     -5301.5703      4079.4516      50238.423      93.852479    
     23810   1311.0322     -5561.5723     -5301.4447      4015.197       50216.035      93.769868    
     23820   1336.5836     -5566.4865     -5301.2891      3566.7732      50194.029      93.686052    
     23830   1344.2309     -5567.8275     -5301.1129      3346.9476      50172.647      93.627736    
     23840   1352.314      -5569.3323     -5301.0138      3254.0853      50152.054      93.602439    
     23850   1329.2812     -5564.7261     -5300.9777      3565.2383      50132.187      93.594802    
     23860   1307.3748     -5560.3374     -5300.9355      3703.9248      50113.194      93.608146    
     23870   1300.649      -5558.8843     -5300.8169      3832.8349      50095.37       93.651221    
     23880   1315.3777     -5561.6177     -5300.6279      3960.8386      50078.807      93.691694    
     23890   1325.0758     -5563.2561     -5300.3421      4416.9408      50063.387      93.686396    
     23900   1323.1731     -5562.5347     -5299.9982      4864.8092      50049.219      93.653279    
     23910   1317.7843     -5561.0577     -5299.5905      4986.9659      50036.407      93.639204    
     23920   1320.2278     -5561.0255     -5299.0734      4670.453       50024.753      93.647637    
     23930   1315.6846     -5559.4501     -5298.3994      4283.1021      50013.833      93.664013    
     23940   1351.7213     -5565.7972     -5297.5964      3722.6913      50003.237      93.656641    
     23950   1351.2458     -5564.7891     -5296.6825      3784.2958      49992.657      93.631607    
     23960   1375.3812     -5568.6313     -5295.736       3845.4876      49982.346      93.60624     
     23970   1405.4645     -5573.6759     -5294.8116      3979.6308      49972.476      93.606371    
     23980   1412.9535     -5574.4446     -5294.0944      4472.0946      49963.072      93.639608    
     23990   1398.2382     -5571.067      -5293.6365      5201.081       49954.571      93.691094    
     24000   1377.8535     -5566.8289     -5293.443       5558.9865      49947.542      93.759479    
     24010   1362.3946     -5563.7637     -5293.4451      5236.4245      49942.179      93.83042     
     24020   1379.9238     -5567.436      -5293.6394      4410.7446      49938.331      93.873649    
     24030   1361.6464     -5564.2211     -5294.0509      4108.7326      49935.615      93.921732    
     24040   1355.5034     -5563.6505     -5294.6992      4137.4911      49933.854      94.000419    
     24050   1329.8142     -5559.3538     -5295.4996      4860.1684      49932.802      94.088315    
     24060   1333.5305     -5560.9958     -5296.4043      5292.6552      49932.641      94.178183    
     24070   1346.9923     -5564.6953     -5297.4328      5473.5745      49933.679      94.277045    
     24080   1325.6326     -5561.6056     -5298.5811      5646.0077      49936.252      94.403303    
     24090   1314.2712     -5560.5546     -5299.7843      5489.1271      49940.594      94.544867    
     24100   1304.7679     -5559.8408     -5300.9562      5055.532       49946.705      94.656165    
     24110   1295.5695     -5559.1348     -5302.0752      4740.3938      49954.413      94.746261    
     24120   1299.7049     -5560.9563     -5303.0762      4583.1636      49963.537      94.858585    
     24130   1319.4381     -5565.7925     -5303.9971      4460.1842      49974.146      94.982595    
     24140   1332.0669     -5569.1986     -5304.8975      4260.1981      49986.404      95.090224    
     24150   1329.9708     -5569.6948     -5305.8096      4123.5882      50000.157      95.181543    
     24160   1320.961      -5568.7976     -5306.7         3964.0464      50015.233      95.277736    
     24170   1320.6333     -5569.6058     -5307.5733      3787.7355      50031.535      95.391306    
     24180   1312.0367     -5568.7119     -5308.385       3730.1024      50048.95       95.496942    
     24190   1305.1449     -5568.0959     -5309.1365      3690.2447      50067.27       95.572119    
     24200   1290.4596     -5565.8335     -5309.7878      3596.8072      50086.241      95.622169    
     24210   1294.0773     -5567.0797     -5310.3162      3159.7773      50105.535      95.674641    
     24220   1303.9695     -5569.4795     -5310.7533      3032.6113      50124.41       95.761984    
     24230   1312.5558     -5571.5687     -5311.1389      3334.0675      50142.549      95.878854    
     24240   1317.2934     -5572.8853     -5311.5154      3792.8795      50160.215      95.992411    
     24250   1329.7131     -5575.7457     -5311.9116      4120.5666      50177.744      96.086129    
     24260   1325.3888     -5575.3411     -5312.3649      4435.1095      50195.363      96.179493    
     24270   1314.3379     -5573.6155     -5312.832       4407.9149      50213.184      96.283305    
     24280   1315.654      -5574.3578     -5313.3132      3960.3981      50231.1        96.38075     
     24290   1293.8421     -5570.4917     -5313.7749      3513.8722      50249.189      96.468504    
     24300   1296.4935     -5571.4376     -5314.1947      2881.3632      50267.401      96.578326    
     24310   1309.0584     -5574.2977     -5314.5618      2423.6159      50285.133      96.716916    
     24320   1284.0039     -5569.6747     -5314.9099      2605.2558      50301.942      96.867593    
     24330   1269.0665     -5566.9739     -5315.1729      2804.3247      50318.088      97.025684    
     24340   1262.9957     -5565.9243     -5315.3279      2861.9569      50333.814      97.17698     
     24350   1255.4009     -5564.4155     -5315.326       2845.8905      50348.965      97.312036    
     24360   1258.0112     -5564.7722     -5315.1648      2664.1709      50363.334      97.457987    
     24370   1265.65       -5565.9818     -5314.8587      2570.8115      50376.701      97.630962    
     24380   1267.5491     -5565.9001     -5314.4002      2701.6924      50388.942      97.800094    
     24390   1275.3129     -5566.868      -5313.8277      2866.9242      50400.376      97.934649    
     24400   1262.9472     -5563.7065     -5313.1197      3000.5823      50411.451      98.039886    
     24410   1270.6255     -5564.395      -5312.2847      2887.057       50422.494      98.126404    
     24420   1280.7796     -5565.4263     -5311.3013      2761.0558      50433.604      98.217029    
     24430   1285.7505     -5565.3179     -5310.2066      3088.3953      50444.767      98.326712    
     24440   1300.3184     -5567.0479     -5309.0461      3539.117       50456.027      98.437152    
     24450   1315.8355     -5568.9554     -5307.8748      3979.6748      50467.613      98.561234    
     24460   1311.1734     -5566.9504     -5306.7949      4399.7304      50480.027      98.725053    
     24470   1312.6032     -5566.2422     -5305.8029      4494.5315      50493.637      98.913138    
     24480   1345.8918     -5571.9968     -5304.9526      3942.5173      50508.401      99.099489    
     24490   1334.8426     -5569.1367     -5304.2848      3443.0399      50523.864      99.279592    
     24500   1309.6961     -5563.6893     -5303.8269      3188.8445      50539.585      99.455006    
     24510   1319.332      -5565.2856     -5303.5113      2759.0134      50555.523      99.636766    
     24520   1317.0051     -5564.6071     -5303.2944      2580.612       50571.444      99.837326    
     24530   1293.0321     -5559.7288     -5303.1727      3011.0828      50587.087      100.06119    
     24540   1276.8422     -5556.4094     -5303.0656      3391.941       50602.615      100.29276    
     24550   1315.1326     -5563.9109     -5302.9697      3068.08        50618.218      100.49208    
     24560   1333.2042     -5567.4448     -5302.918       2903.0194      50633.783      100.65287    
     24570   1325.1566     -5565.9199     -5302.9899      2948.8582      50649.177      100.7881     
     24580   1330.2516     -5567.1233     -5303.1823      2904.6313      50664.682      100.90389    
     24590   1314.0004     -5564.1431     -5303.4266      3031.4916      50680.493      101.02369    
     24600   1303.918      -5562.4255     -5303.7095      3123.839       50696.407      101.15992    
     24610   1291.9502     -5560.3162     -5303.9747      2987.0068      50711.912      101.28918    
     24620   1282.278      -5558.6257     -5304.2034      2646.9352      50726.786      101.38099    
     24630   1266.7802     -5555.7162     -5304.3689      2631.6708      50741.317      101.42795    
     24640   1278.8983     -5558.228      -5304.4763      2671.384       50755.942      101.45619    
     24650   1285.4261     -5559.5658     -5304.5188      2972.2986      50770.697      101.52615    
     24660   1305.3285     -5563.5568     -5304.5609      2896.9152      50785.437      101.66194    
     24670   1314.1686     -5565.3867     -5304.6368      3031.4323      50799.997      101.8376     
     24680   1283.1695     -5559.3702     -5304.771       3423.1793      50814.364      102.04027    
     24690   1276.4104     -5558.1716     -5304.9135      3456.0443      50828.67       102.22619    
     24700   1271.7144     -5557.3341     -5305.0078      3274.1899      50843.029      102.36486    
     24710   1267.8851     -5556.605      -5305.0384      2921.2044      50857.319      102.46369    
     24720   1253.8431     -5553.7833     -5305.0029      2687.4953      50871.177      102.55464    
     24730   1236.8165     -5550.2329     -5304.8308      2456.1487      50884.306      102.62538    
     24740   1256.9786     -5553.924      -5304.5214      1951.5125      50896.858      102.65773    
     24750   1274.8751     -5557.0126     -5304.0591      1814.1352      50908.813      102.68926    
     24760   1316.0128     -5564.6602     -5303.5444      1814.7267      50920.043      102.76742    
     24770   1350.5269     -5571.0626     -5303.0988      1902.659       50930.565      102.91094    
     24780   1337.0128     -5568.1062     -5302.8237      2211.4032      50940.491      103.09242    
     24790   1357.4943     -5572.1232     -5302.7769      1963.2694      50949.851      103.27923    
     24800   1366.1718     -5574.0472     -5302.9792      1762.7805      50958.413      103.46633    
     24810   1355.1968     -5572.4073     -5303.5169      1803.8945      50965.893      103.6324     
     24820   1327.3902     -5567.7378     -5304.3646      1961.8782      50972.18       103.75348    
     24830   1301.1801     -5563.6124     -5305.4397      1938.1441      50977.23       103.84052    
     24840   1286.7974     -5561.9623     -5306.6432      1825.71        50980.852      103.93708    
     24850   1277.1916     -5561.3225     -5307.9094      1783.5384      50982.688      104.04546    
     24860   1269.7697     -5561.1218     -5309.1813      1772.1175      50982.542      104.14318    
     24870   1279.5817     -5564.3016     -5310.4143      1603.8429      50980.319      104.19752    
     24880   1294.3048     -5568.4427     -5311.6341      1406.5795      50976.129      104.20904    
     24890   1295.0206     -5569.7952     -5312.8445      1437.6703      50970.136      104.21177    
     24900   1281.7039     -5568.3007     -5313.9922      1460.9513      50962.457      104.24216    
     24910   1290.935      -5571.1926     -5315.0526      1299.8012      50953.149      104.29483    
     24920   1263.884      -5566.7545     -5315.9818      1516.0505      50942.11       104.34262    
     24930   1248.5991     -5564.4752     -5316.7353      1630.624       50929.282      104.36751    
     24940   1250.7975     -5565.4966     -5317.3204      1720.6379      50914.464      104.3636     
     24950   1241.7897     -5564.0918     -5317.7029      1870.904       50897.548      104.34206    
     24960   1240.1057     -5563.9951     -5317.9404      1924.7373      50878.655      104.31456    
     24970   1230.1282     -5562.1014     -5318.0264      2087.5204      50858.062      104.29758    
     24980   1246.7069     -5565.3545     -5317.99        1968.1597      50836.015      104.2933     
     24990   1261.6401     -5568.1791     -5317.8516      1538.1985      50812.707      104.31176    
     25000   1258.446      -5567.3708     -5317.6771      1455.0534      50788.359      104.34584    
     25010   1240.2818     -5563.5612     -5317.4715      1792.5921      50763.228      104.3803     
     25020   1221.3027     -5559.4819     -5317.158       2275.3965      50737.623      104.42656    
     25030   1246.0135     -5563.9567     -5316.7297      2402.6909      50711.822      104.50479    
     25040   1255.1718     -5565.2662     -5316.2222      2702.7048      50685.771      104.60775    
     25050   1260.2144     -5565.7357     -5315.6911      3052.52        50659.525      104.70345    
     25060   1251.7619     -5563.4773     -5315.1098      3454.0066      50633.496      104.78618    
     25070   1265.4444     -5565.5984     -5314.5161      3378.3199      50608.274      104.85865    
     25080   1282.633      -5568.4043     -5313.9115      3087.3739      50584.148      104.91659    
     25090   1301.3652     -5571.6021     -5313.3926      2699.8707      50561.047      104.97162    
     25100   1294.3442     -5569.7996     -5312.9831      2870.6129      50538.403      105.02406    
     25110   1308.7667     -5572.3949     -5312.7168      3096.5864      50515.804      105.07416    
     25120   1295.3528     -5569.5861     -5312.5695      3559.649       50493.012      105.11304    
     25130   1264.8107     -5563.4509     -5312.4944      3828.5144      50470.113      105.13676    
     25140   1253.1465     -5561.0801     -5312.4379      3751.3235      50447.412      105.17237    
     25150   1245.406      -5559.4208     -5312.3144      3807.1436      50425.137      105.23022    
     25160   1257.3661     -5561.6034     -5312.1239      3992.5502      50403.621      105.31989    
     25170   1252.7049     -5560.4205     -5311.8659      4484.7128      50383.436      105.43403    
     25180   1243.5868     -5558.2954     -5311.55        4729.5726      50365.287      105.52687    
     25190   1267.4547     -5562.6541     -5311.1729      4339.3277      50349.386      105.57165    
     25200   1297.1217     -5568.1505     -5310.783       3744.8717      50335.403      105.58923    
     25210   1313.0936     -5571.0154     -5310.4788      3524.4296      50322.96       105.62199    
     25220   1292.5741     -5566.79       -5310.3248      3707.3639      50311.659      105.67801    
     25230   1280.5011     -5564.3309     -5310.2612      3778.4542      50301.233      105.74639    
     25240   1299.5354     -5568.1143     -5310.2678      3558.6072      50291.745      105.80015    
     25250   1293.9135     -5567.1204     -5310.3894      3356.1173      50283.186      105.83714    
     25260   1295.0431     -5567.6202     -5310.6651      3105.5156      50275.446      105.86468    
     25270   1311.5512     -5571.3549     -5311.1243      2908.1338      50268.118      105.88453    
     25280   1321.1142     -5573.9978     -5311.8698      2984.277       50260.908      105.92127    
     25290   1323.4114     -5575.6058     -5313.022       3035.6735      50254.006      105.97576    
     25300   1285.9776     -5569.7582     -5314.6018      3410.495       50247.742      106.05289    
     25310   1274.6355     -5569.4227     -5316.5168      3865.6647      50242.412      106.15279    
     25320   1253.6452     -5567.2998     -5318.5587      4580.7234      50238.189      106.2714     
     25330   1248.5551     -5568.2794     -5320.5482      4808.1981      50235.357      106.41452    
     25340   1251.4195     -5570.606      -5322.3064      4575.3653      50234.119      106.56403    
     25350   1250.5864     -5571.8848     -5323.7505      4385.9623      50234.361      106.69436    
     25360   1243.5012     -5571.5955     -5324.867       4121.6702      50235.883      106.78836    
     25370   1261.2126     -5575.9929     -5325.7503      3676.0606      50238.305      106.84005    
     25380   1254.7328     -5575.4026     -5326.4456      3452.1796      50240.946      106.88265    
     25390   1247.3214     -5574.4885     -5327.0021      3279.8534      50243.388      106.93216    
     25400   1258.5021     -5577.1677     -5327.4629      2980.4309      50245.337      106.992      
     25410   1251.755      -5576.2152     -5327.8491      2961.0802      50246.482      107.05666    
     25420   1240.9919     -5574.4025     -5328.1719      3023.0446      50246.748      107.11564    
     25430   1257.6736     -5577.9858     -5328.4454      2737.7066      50246.164      107.15025    
     25440   1253.1077     -5577.3369     -5328.7024      2659.4767      50244.53       107.1522     
     25450   1211.0509     -5569.2056     -5328.9157      3004.3252      50241.724      107.12865    
     25460   1194.9814     -5566.0891     -5328.9877      3129.0602      50237.969      107.08153    
     25470   1223.3904     -5571.6248     -5328.8866      3060.7299      50233.633      107.03601    
     25480   1239.4551     -5574.5801     -5328.6544      2911.4855      50228.741      106.99139    
     25490   1244.8996     -5575.3949     -5328.389       2803.4428      50223.159      106.92284    
     25500   1243.198      -5574.7434     -5328.0751      2787.8912      50216.88       106.82878    
     25510   1242.479      -5574.2772     -5327.7516      2841.6232      50209.801      106.72384    
     25520   1225.3216     -5570.4847     -5327.3634      2858.3086      50202.059      106.6272     
     25530   1244.8804     -5573.9092     -5326.9071      2430.307       50193.751      106.55194    
     25540   1275.7232     -5579.521      -5326.3992      2088.8387      50184.551      106.49279    
     25550   1264.366      -5576.803      -5325.9347      2333.2017      50174.458      106.45421    
     25560   1243.3247     -5572.2173     -5325.5239      2747.1876      50163.816      106.42439    
     25570   1234.8567     -5570.0848     -5325.0716      2797.1147      50152.888      106.38467    
     25580   1242.4108     -5571.0696     -5324.5575      2717.6042      50141.787      106.35017    
     25590   1244.7966     -5570.9894     -5324.0039      2836.672       50130.415      106.33364    
     25600   1247.3081     -5570.889      -5323.4052      3132.9985      50118.522      106.34885    
     25610   1242.0814     -5569.2191     -5322.7724      3654.1961      50106.163      106.41622    
     25620   1248.0018     -5569.7271     -5322.1056      3977.9303      50093.843      106.52684    
     25630   1257.1078     -5570.8162     -5321.388       3973.2569      50081.89       106.64072    
     25640   1280.0051     -5574.6636     -5320.6922      3775.6962      50070.492      106.74299    
     25650   1304.4057     -5578.882      -5320.0692      3453.5621      50059.771      106.84417    
     25660   1330.7872     -5583.6903     -5319.6431      3137.0516      50049.741      106.95584    
     25670   1334.621      -5584.3136     -5319.5057      3114.455       50040.072      107.08503    
     25680   1320.3434     -5581.6747     -5319.6996      3269.3737      50030.64       107.19435    
     25690   1298.2596     -5577.7698     -5320.1765      3587.4673      50021.659      107.25939    
     25700   1293.5456     -5577.5684     -5320.9104      3819.3974      50013.277      107.28766    
     25710   1264.8354     -5572.8058     -5321.8443      4279.8912      50005.291      107.31777    
     25720   1267.4831     -5574.4215     -5322.9347      4320.0171      49997.717      107.34844    
     25730   1295.7162     -5581.3059     -5324.2173      3851.4429      49990.699      107.36831    
     25740   1293.2943     -5582.3218     -5325.7137      3752.6429      49984.411      107.384      
     25750   1288.4558     -5583.0234     -5327.3753      3737.1689      49979.171      107.40552    
     25760   1273.6246     -5581.7831     -5329.0777      3658.2256      49974.928      107.43843    
     25770   1254.2008     -5579.4902     -5330.6388      3721.6174      49971.497      107.48768    
     25780   1247.4628     -5579.4727     -5331.9582      3791.3452      49968.802      107.54828    
     25790   1235.3755     -5578.1173     -5333.0011      3720.4505      49966.888      107.61761    
     25800   1241.1058     -5580.0626     -5333.8095      3450.5813      49965.69       107.68922    
     25810   1253.208      -5583.0897     -5334.4353      3081.6328      49964.819      107.75073    
     25820   1262.8145     -5585.5466     -5334.9861      2792.7664      49964.06       107.78576    
     25830   1270.8224     -5587.6758     -5335.5264      2453.0874      49963.222      107.78423    
     25840   1267.6407     -5587.6187     -5336.1006      2409.6215      49962.122      107.76321    
     25850   1242.6381     -5583.2289     -5336.6717      2701.0834      49960.754      107.75136    
     25860   1230.1242     -5581.2847     -5337.2104      2841.1969      49959.299      107.75357    
     25870   1232.8478     -5582.3064     -5337.6917      2590.5773      49957.758      107.77904    
     25880   1242.6733     -5584.693      -5338.1288      2561.4055      49955.782      107.83878    
     25890   1242.2008     -5585.0464     -5338.576       2954.8209      49953.303      107.92236    
     25900   1229.0751     -5582.8817     -5339.0156      3337.0839      49950.638      108.01934    
     25910   1231.5456     -5583.7983     -5339.4421      3363.9141      49948.111      108.11857    
     25920   1215.1363     -5580.9357     -5339.8352      3705.9888      49945.82       108.23733    
     25930   1205.2568     -5579.2936     -5340.1534      4071.5954      49943.954      108.38478    
     25940   1229.0087     -5584.2524     -5340.3995      3854.4119      49942.613      108.54247    
     25950   1247.6753     -5588.1892     -5340.6326      3371.8851      49941.582      108.68752    
     25960   1255.7549     -5590.0935     -5340.9337      3189.2565      49940.558      108.79261    
     25970   1223.1557     -5583.9869     -5341.2953      3490.5922      49939.419      108.86173    
     25980   1200.813      -5579.8945     -5341.636       3593.5975      49938.117      108.91948    
     25990   1190.931      -5578.192      -5341.8942      3400.4449      49936.563      108.9578     
     26000   1187.8405     -5577.7061     -5342.0215      3298.8116      49934.828      108.97414    
     26010   1193.4394     -5578.8208     -5342.0253      3148.9822      49933.122      108.99196    
     26020   1189.5846     -5577.9166     -5341.886       3084.4561      49931.25       109.04164    
     26030   1215.4412     -5582.7942     -5341.6333      2997.4663      49928.699      109.12253    
     26040   1206.3409     -5580.6445     -5341.2892      3274.839       49925.032      109.21114    
     26050   1214.028      -5581.7421     -5340.8615      3282.3566      49920.307      109.30288    
     26060   1228.067      -5584.0261     -5340.36        3128.6409      49914.634      109.40779    
     26070   1225.6489     -5582.9905     -5339.8042      3036.4395      49907.965      109.51997    
     26080   1246.4674     -5586.553      -5339.236       2604.3906      49900.273      109.6124     
     26090   1248.8274     -5586.4512     -5338.6659      2551.7196      49891.277      109.65603    
     26100   1241.0718     -5584.4        -5338.1536      3050.3177      49880.901      109.6498     
     26110   1235.9129     -5582.885      -5337.6622      3714.4085      49869.839      109.61953    
     26120   1233.4761     -5581.9014     -5337.162       4207.3058      49858.862      109.61138    
     26130   1248.3502     -5584.3557     -5336.6651      4470.9432      49848.425      109.6611     
     26140   1265.7261     -5587.3451     -5336.2069      4456.1559      49838.924      109.75237    
     26150   1264.8695     -5586.8221     -5335.8539      4455.5337      49830.349      109.86462    
     26160   1252.617      -5584.1656     -5335.6285      4433.1876      49822.563      109.99401    
     26170   1231.4189     -5579.8088     -5335.4777      4049.863       49815.484      110.12586    
     26180   1228.8529     -5579.1918     -5335.3698      3381.3016      49808.942      110.22297    
     26190   1220.5657     -5577.446      -5335.2683      3007.1868      49802.693      110.25249    
     26200   1226.8708     -5578.5853     -5335.1566      2772.685       49796.48       110.23727    
     26210   1237.4524     -5580.5746     -5335.0463      2686.9864      49790.176      110.21254    
     26220   1258.5523     -5584.7084     -5334.9936      2624.9972      49783.933      110.20104    
     26230   1266.1158     -5586.2816     -5335.0661      2653.4451      49777.86       110.20655    
     26240   1273.0448     -5587.9175     -5335.3272      2671.7779      49771.716      110.22797    
     26250   1281.7541     -5590.1726     -5335.8542      2714.7202      49764.968      110.25354    
     26260   1254.1525     -5585.5173     -5336.6755      3118.9497      49757.353      110.28202    
     26270   1235.9024     -5582.952      -5337.7313      3405.1565      49749.472      110.31865    
     26280   1252.7548     -5587.5597     -5338.9952      3343.757       49742.14       110.34894    
     26290   1242.6729     -5587.0137     -5340.4496      3653.3249      49735.775      110.36152    
     26300   1229.3756     -5585.9403     -5342.0146      4092.9184      49730.693      110.37575    
     26310   1217.0349     -5585.0273     -5343.5502      4318.3154      49726.793      110.42117    
     26320   1221.8114     -5587.4055     -5344.9806      4258.0599      49723.783      110.5254     
     26330   1231.3873     -5590.6135     -5346.2887      4061.5142      49721.518      110.67107    
     26340   1229.5538     -5591.4408     -5347.4797      4250.6668      49719.909      110.82021    
     26350   1213.6897     -5589.3647     -5348.5513      4746.5287      49719.169      110.97565    
     26360   1195.9736     -5586.7167     -5349.4184      4936.5754      49719.765      111.12733    
     26370   1204.1765     -5589.0355     -5350.1097      4518.5886      49721.936      111.26119    
     26380   1218.0618     -5592.3728     -5350.6919      4133.5864      49725.264      111.38623    
     26390   1226.8869     -5594.6624     -5351.2304      4131.4133      49729.338      111.48531    
     26400   1226.0607     -5595.0168     -5351.7489      4184.0042      49734.299      111.54498    
     26410   1218.9945     -5594.1482     -5352.2822      4222.1209      49740.328      111.59616    
     26420   1190.0027     -5588.8945     -5352.7809      4239.8442      49747.526      111.65576    
     26430   1156.0877     -5582.5415     -5353.1571      4147.5704      49755.986      111.7286     
     26440   1152.7589     -5582.0837     -5353.3599      3816.3965      49765.644      111.82319    
     26450   1148.6921     -5581.2667     -5353.3498      3589.6299      49776.108      111.9399     
     26460   1165.3492     -5584.3784     -5353.1564      3402.7694      49787.058      112.06367    
     26470   1183.0065     -5587.5425     -5352.817       3521.4786      49798.318      112.201      
     26480   1196.9044     -5589.8738     -5352.3908      3706.4378      49809.949      112.3364     
     26490   1211.1391     -5592.2285     -5351.9212      3774.0523      49821.991      112.46674    
     26500   1213.5977     -5592.2494     -5351.4542      3772.4148      49834.467      112.61279    
     26510   1189.8776     -5587.0825     -5350.9938      3888.7014      49847.51       112.77552    
     26520   1183.9281     -5585.3969     -5350.4886      3587.7302      49861.316      112.91883    
     26530   1183.1899     -5584.6729     -5349.911       3232.8461      49875.836      113.04288    
     26540   1179.649      -5583.3051     -5349.2458      2863.936       49891.043      113.16421    
     26550   1187.0622     -5584.0067     -5348.4766      2682.956       49906.8        113.25365    
     26560   1180.1367     -5581.7963     -5347.6402      2873.9942      49923.122      113.31736    
     26570   1197.9399     -5584.4257     -5346.7372      2943.5112      49940.074      113.41582    
     26580   1214.3832     -5586.7775     -5345.8264      3238.2926      49957.8        113.56667    
     26590   1180.1527     -5579.1174     -5344.9582      4057.7567      49976.556      113.7535     
     26600   1174.6124     -5577.1604     -5344.1005      4263.1705      49996.705      113.94407    
     26610   1176.5647     -5576.6492     -5343.2019      4244.9983      50018.239      114.13496    
     26620   1186.9346     -5577.783      -5342.2781      4054.9491      50040.88       114.34228    
     26630   1183.6098     -5576.2072     -5341.362       4052.5842      50064.525      114.57692    
     26640   1180.781      -5574.7822     -5340.4984      4076.5908      50089.181      114.84124    
     26650   1204.8923     -5578.7574     -5339.6896      3959.2648      50114.935      115.12647    
     26660   1216.1535     -5580.2845     -5338.9823      3953.6545      50141.914      115.43089    
     26670   1223.4433     -5581.1689     -5338.4203      3664.6611      50170.242      115.74579    
     26680   1231.0479     -5582.257      -5337.9994      3133.4015      50199.487      116.04676    
     26690   1221.9471     -5580.1732     -5337.7214      2837.6409      50228.824      116.33529    
     26700   1219.3883     -5579.4946     -5337.5505      2616.1818      50257.68       116.61498    
     26710   1214.9206     -5578.5231     -5337.4654      2397.5636      50285.917      116.91006    
     26720   1206.7151     -5576.8777     -5337.4481      2360.6295      50313.616      117.22517    
     26730   1206.3581     -5576.8158     -5337.4571      2430.4415      50340.996      117.51604    
     26740   1230.8674     -5581.7314     -5337.5097      2266.3596      50368.052      117.77523    
     26750   1223.7637     -5580.449      -5337.6367      2208.432       50394.451      118.00185    
     26760   1207.036      -5577.3365     -5337.8433      2242.5721      50419.946      118.17076    
     26770   1217.1873     -5579.6027     -5338.0953      1891.7607      50444.553      118.32519    
     26780   1213.2293     -5579.1174     -5338.3954      1664.6179      50467.98       118.50959    
     26790   1200.8774     -5576.9919     -5338.7207      1703.7842      50489.646      118.69782    
     26800   1210.0667     -5579.1775     -5339.0829      1797.2379      50509.065      118.87048    
     26810   1194.9041     -5576.5459     -5339.4598      2193.7014      50526.081      119.0452     
     26820   1174.6481     -5572.9156     -5339.8486      2699.3208      50540.954      119.23475    
     26830   1173.8408     -5573.0885     -5340.1817      2696.3592      50554.167      119.4438     
     26840   1173.4691     -5573.272      -5340.4389      2648.4805      50565.907      119.67113    
     26850   1174.2965     -5573.6265     -5340.6292      2483.1288      50576.246      119.9108     
     26860   1177.6509     -5574.4285     -5340.7657      2243.2373      50585.223      120.1398     
     26870   1180.4006     -5575.0558     -5340.8474      2051.6441      50592.801      120.32157    
     26880   1205.1838     -5580.059      -5340.9332      1771.3601      50598.961      120.42852    
     26890   1207.7988     -5580.6899     -5341.0454      1712.9813      50603.792      120.49469    
     26900   1199.8031     -5579.2896     -5341.2314      1937.5544      50607.49       120.56513    
     26910   1202.9986     -5580.1729     -5341.4807      2099.7782      50609.914      120.63435    
     26920   1201.768      -5580.2461     -5341.7981      2150.8974      50610.733      120.68035    
     26930   1200.0229     -5580.3091     -5342.2073      2157.7271      50610.153      120.70602    
     26940   1185.1465     -5577.8181     -5342.6681      2163.3796      50608.455      120.7399     
     26950   1191.4894     -5579.6309     -5343.2223      1847.8928      50605.711      120.79458    
     26960   1204.137      -5582.8041     -5343.8861      1404.3858      50601.955      120.85268    
     26970   1205.5795     -5583.9254     -5344.7212      1233.4902      50597.255      120.89495    
     26980   1198.7137     -5583.6281     -5345.7861      1302.7668      50591.717      120.93718    
     26990   1170.5812     -5579.2885     -5347.0284      1639.8167      50585.356      121.0042     
     27000   1165.2353     -5579.5891     -5348.3897      1721.9189      50578.06       121.09821    
     27010   1170.5021     -5582.0724     -5349.828       1497.4791      50569.718      121.21338    
     27020   1159.233      -5581.2872     -5351.2788      1470.6386      50560.27       121.34613    
     27030   1150.4552     -5580.876      -5352.6092      1616.0952      50549.635      121.49075    
     27040   1175.0404     -5586.9727     -5353.8278      1482.9549      50537.652      121.61347    
     27050   1181.1346     -5589.2791     -5354.925       1609.2624      50524.134      121.67693    
     27060   1190.8857     -5592.2073     -5355.9185      1759.8991      50509.011      121.69715    
     27070   1183.3625     -5591.6169     -5356.8209      1746.8804      50492.474      121.72415    
     27080   1155.8985     -5586.921      -5357.5742      1804.3799      50474.88       121.75796    
     27090   1144.7198     -5585.2566     -5358.1278      1815.5596      50456.546      121.76884    
     27100   1126.1228     -5581.8955     -5358.4566      1833.5401      50437.766      121.73695    
     27110   1146.1553     -5586.0297     -5358.616       1477.6226      50418.434      121.67324    
     27120   1159.4026     -5588.6829     -5358.6408      1367.4455      50398.096      121.59214    
     27130   1156.0821     -5587.9911     -5358.6078      1438.8739      50376.624      121.51529    
     27140   1158.5804     -5588.3804     -5358.5014      1440.1693      50354.17       121.45669    
     27150   1173.0578     -5591.1075     -5358.3561      1267.5868      50330.858      121.4087     
     27160   1168.2409     -5590.0078     -5358.2121      1431.1801      50306.537      121.37849    
     27170   1145.7969     -5585.3921     -5358.0496      1914.7625      50280.995      121.37462    
     27180   1146.4877     -5585.2917     -5357.8122      2099.4785      50254.191      121.36809    
     27190   1158.4104     -5587.3352     -5357.49        1888.3416      50226.318      121.32855    
     27200   1151.7677     -5585.6638     -5357.1366      1708.3725      50197.412      121.25051    
     27210   1143.0981     -5583.5281     -5356.721       1700.151       50167.407      121.12937    
     27220   1146.6441     -5583.7515     -5356.2409      1726.7961      50136.241      120.98435    
     27230   1153.7102     -5584.5974     -5355.6848      2003.7185      50103.879      120.8749     
     27240   1170.8598     -5587.3964     -5355.081       2305.7621      50070.443      120.803      
     27250   1174.8051     -5587.5597     -5354.4615      2781.1322      50036.344      120.76816    
     27260   1174.2081     -5586.8485     -5353.8688      3002.6262      50002.19       120.78369    
     27270   1174.2228     -5586.3021     -5353.3195      2816.9784      49968.189      120.79798    
     27280   1176.0626     -5586.1531     -5352.8054      2335.8707      49934.165      120.76924    
     27290   1186.7335     -5587.8142     -5352.3493      1955.4703      49899.763      120.70603    
     27300   1181.9708     -5586.4651     -5351.9451      2195.9148      49864.942      120.61406    
     27310   1200.4355     -5589.8027     -5351.6191      2909.7031      49830.09       120.50325    
     27320   1183.8143     -5586.2307     -5351.345       3903.5375      49795.865      120.40568    
     27330   1188.0973     -5586.8829     -5351.1474      4175.8852      49763.084      120.3399     
     27340   1199.9281     -5589.0743     -5350.9914      3892.3428      49732.021      120.29212    
     27350   1235.9783     -5596.2224     -5350.9866      3502.5242      49702.405      120.25898    
     27360   1225.1537     -5594.2932     -5351.2052      3944.1765      49673.792      120.23521    
     27370   1200.3341     -5589.7522     -5351.5887      4620.9204      49646.401      120.20071    
     27380   1206.6601     -5591.5118     -5352.0932      4734.4746      49620.878      120.17407    
     27390   1197.7953     -5590.3557     -5352.696       4655.9443      49597.63       120.1766     
     27400   1189.0248     -5589.3164     -5353.3969      4293.1837      49576.856      120.19765    
     27410   1188.5315     -5589.9976     -5354.1759      4114.512       49558.357      120.2239     
     27420   1190.239      -5591.1654     -5355.0049      4052.4081      49541.795      120.26026    
     27430   1194.743      -5592.9507     -5355.8966      3939.0323      49526.825      120.29297    
     27440   1178.2861     -5590.5952     -5356.8064      3992.8838      49513.164      120.31003    
     27450   1180.9446     -5592.0084     -5357.6921      3796.8071      49500.525      120.32466    
     27460   1180.7979     -5592.8167     -5358.5294      3523.1662      49488.239      120.36552    
     27470   1180.2747     -5593.4813     -5359.2979      3247.5221      49475.702      120.42834    
     27480   1186.3626     -5595.3896     -5359.9983      3304.8619      49462.725      120.48083    
     27490   1185.7543     -5595.8771     -5360.6064      3703.1166      49449.477      120.53109    
     27500   1208.4866     -5600.9817     -5361.2006      3736.8559      49436.538      120.57854    
     27510   1194.0139     -5598.676      -5361.7666      3841.4119      49424.387      120.61994    
     27520   1179.7296     -5596.3986     -5362.3233      3865.4824      49413.131      120.66891    
     27530   1158.1419     -5592.5826     -5362.7907      3779.7814      49402.851      120.70562    
     27540   1157.7416     -5592.8958     -5363.1832      3483.2266      49393.388      120.73843    
     27550   1146.3981     -5590.9442     -5363.4824      3222.3265      49384.506      120.79916    
     27560   1158.0349     -5593.4854     -5363.7146      2974.7299      49375.922      120.88201    
     27570   1180.1068     -5598.0824     -5363.9323      2960.3402      49367.34       120.97288    
     27580   1199.3736     -5602.1726     -5364.1997      3142.795       49358.724      121.0586     
     27590   1185.6821     -5599.8417     -5364.5854      3676.558       49350.314      121.13134    
     27600   1156.9778     -5594.5653     -5365.0043      4078.404       49342.504      121.18138    
     27610   1167.5189     -5597.0889     -5365.4364      3782.234       49335.504      121.19981    
     27620   1170.9613     -5598.2216     -5365.8861      3485.0869      49329.025      121.20798    
     27630   1152.4553     -5595.0114     -5366.3477      3499.2761      49322.732      121.23646    
     27640   1160.2917     -5597.0262     -5366.8077      3475.9813      49316.438      121.31232    
     27650   1185.9979     -5602.6223     -5367.3033      3232.1303      49310.125      121.44958    
     27660   1181.9796     -5602.4095     -5367.8879      3278.7001      49303.884      121.64153    
     27670   1163.6893     -5599.4388     -5368.5462      3449.0937      49297.78       121.8402     
[...]
     48200   1043.4122     -5562.5105     -5355.4826     -962.82669      57446.394      350.53787    
     48210   1037.8381     -5561.168      -5355.246      -911.5687       57459.122      350.63977    
     48220   1036.6917     -5560.6626     -5354.9681     -896.1483       57467.98       350.73024    
     48230   1053.4404     -5563.6761     -5354.6585     -998.02786      57472.967      350.84631    
     48240   1066.7476     -5566.0188     -5354.3608     -1005.5528      57473.597      350.98533    
     48250   1062.2184     -5564.8923     -5354.133      -704.47997      57469.864      351.12191    
     48260   1047.0204     -5561.6938     -5353.95       -316.64319      57462.955      351.22926    
     48270   1037.0327     -5559.5237     -5353.7615     -15.76744       57454.497      351.30006    
     48280   1047.7666     -5561.4247     -5353.5328      43.628093      57445.768      351.34172    
     48290   1047.4193     -5561.0977     -5353.2747      76.042078      57437.065      351.3472     
     48300   1035.8842     -5558.5309     -5352.9966      191.51012      57428.604      351.32158    
     48310   1022.5338     -5555.5371     -5352.6518      296.29699      57420.891      351.30676    
     48320   1018.5725     -5554.2806     -5352.1813      326.90052      57414.375      351.33543    
     48330   1021.3948     -5554.2012     -5351.5418      420.65644      57409.287      351.40288    
     48340   1026.9113     -5554.4685     -5350.7146      518.9257       57405.985      351.48734    
     48350   1048.5718     -5557.745      -5349.6933      505.00537      57404.888      351.58013    
     48360   1080.6318     -5562.9426     -5348.5298      443.10797      57406.013      351.70032    
     48370   1086.9412     -5562.9987     -5347.3339      403.41515      57409.181      351.86118    
     48380   1084.6673     -5561.384      -5346.1705      323.13637      57414.199      352.05774    
     48390   1080.4557     -5559.4171     -5345.0392      205.83158      57420.77       352.28013    
     48400   1083.4069     -5558.9194     -5343.956       76.584532      57428.393      352.50801    
     48410   1087.245      -5558.6455     -5342.9205      60.935189      57436.507      352.72315    
     48420   1087.8642     -5557.8047     -5341.9569      144.11935      57445.049      352.93572    
     48430   1095.6395     -5558.4767     -5341.0861      74.681896      57454.325      353.16176    
     48440   1088.2445     -5556.2373     -5340.314      -46.8116        57464.077      353.3903     
     48450   1085.72       -5555.0533     -5339.631      -274.49975      57473.771      353.61586    
     48460   1087.8073     -5554.8446     -5339.0081     -528.26597      57482.388      353.84138    
     48470   1080.0489     -5552.7319     -5338.4348     -515.24602      57488.851      354.0553     
     48480   1084.1833     -5553.0143     -5337.8968     -417.38173      57493.091      354.2498     
     48490   1089.2579     -5553.5149     -5337.3905     -171.36298      57495.584      354.43363    
     48500   1090.4132     -5553.282      -5336.9284      176.21179      57497.449      354.60608    
     48510   1096.6951     -5554.1257     -5336.5257      385.56979      57500.085      354.77273    
     48520   1087.7443     -5552.031      -5336.207       637.63062      57504.543      354.959      
     48530   1088.5774     -5551.983      -5335.9937      760.94776      57511.875      355.17022    
     48540   1088.757      -5551.9146     -5335.8896      876.44131      57522.741      355.39278    
     48550   1105.2617     -5555.2522     -5335.9524      941.45958      57537.73       355.60229    
     48560   1121.5419     -5558.8077     -5336.2778      905.67882      57557.185      355.81249    
     48570   1116.9847     -5558.5997     -5336.974       795.29487      57580.982      356.07666    
     48580   1101.9911     -5556.6936     -5338.0428      599.14856      57608.701      356.4047     
     48590   1084.4679     -5554.5784     -5339.4044      313.30034      57639.522      356.76729    
     48600   1072.1409     -5553.6566     -5340.9285     -35.147318      57672.174      357.14564    
     48610   1066.2634     -5554.0488     -5342.4869     -332.76528      57705.15       357.52174    
     48620   1069.7665     -5556.2684     -5344.0114     -501.37801      57737.166      357.86911    
     48630   1078.5214     -5559.4988     -5345.5047     -606.88944      57767.376      358.19753    
     48640   1068.7183     -5558.9773     -5346.9283     -483.31681      57795.338      358.52697    
     48650   1050.2644     -5556.62       -5348.2325     -292.37644      57821.521      358.86902    
     48660   1034.2574     -5554.5656     -5349.3541     -296.60509      57846.662      359.23304    
     48670   1037.2242     -5556.0894     -5350.2892     -529.12506      57870.666      359.62094    
     48680   1027.5496     -5554.9427     -5351.0622     -673.53215      57892.601      360.01176    
     48690   1027.5505     -5555.5657     -5351.6849     -904.62674      57911.666      360.35233    
     48700   1040.8524     -5558.7107     -5352.1907     -1016.2005      57926.9        360.58975    
     48710   1042.9011     -5559.5537     -5352.6272     -886.59155      57937.752      360.73681    
     48720   1043.426      -5560.0492     -5353.0185     -583.33683      57944.77       360.83253    
     48730   1046.0505     -5560.9211     -5353.3697     -319.21178      57949.216      360.92435    
     48740   1053.6221     -5562.7661     -5353.7124     -201.4206       57952.211      361.04375    
     48750   1043.4999     -5561.0991     -5354.0538      57.674993      57954.404      361.19079    
     48760   1037.3016     -5560.1803     -5354.3648      251.70921      57956.841      361.35726    
     48770   1053.4497     -5563.6593     -5354.6398      67.1815        57960.256      361.50289    
     48780   1058.7102     -5564.9894     -5354.9261     -137.92688      57964.019      361.60554    
     48790   1064.0745     -5566.3927     -5355.2651     -405.36518      57967.169      361.68405    
     48800   1055.66       -5565.115      -5355.6569     -486.08653      57968.602      361.76658    
     48810   1035.5901     -5561.5444     -5356.0685     -322.22167      57967.932      361.86741    
     48820   1027.5852     -5560.3235     -5356.4359     -196.84608      57965.751      361.98462    
     48830   1028.3695     -5560.7626     -5356.7193     -122.7457       57962.633      362.10845    
     48840   1044.5364     -5564.1962     -5356.9452     -183.57531      57958.934      362.24806    
     48850   1043.8362     -5564.2614     -5357.1493     -276.91292      57954.389      362.38383    
     48860   1023.1978     -5560.3477     -5357.3305     -276.62297      57948.591      362.48964    
     48870   1015.2346     -5558.8597     -5357.4227     -378.61216      57941.45       362.57048    
     48880   1027.0015     -5561.1724     -5357.4006     -590.16516      57932.524      362.6345     
     48890   1035.5439     -5562.7452     -5357.2785     -743.02671      57920.903      362.69378    
     48900   1044.4793     -5564.3287     -5357.0891     -825.60326      57905.859      362.75502    
     48910   1044.1074     -5564.0376     -5356.8717     -739.46434      57887.026      362.81303    
     48920   1028.7098     -5560.7018     -5356.591      -455.32797      57864.815      362.88905    
     48930   1047.8192     -5564.1379     -5356.2356     -448.70239      57840.259      363.00737    
     48940   1058.076      -5565.7668     -5355.8294     -449.52631      57813.516      363.13494    
     48950   1055.1444     -5564.7722     -5355.4165     -224.10885      57784.668      363.22169    
     48960   1049.3979     -5563.2158     -5355.0002      28.4648        57754.619      363.22808    
     48970   1022.2449     -5557.3462     -5354.5182      179.60643      57724.475      363.15225    
     48980   1027.9254     -5557.8724     -5353.9173     -142.29043      57694.753      363.03255    
     48990   1044.9659     -5560.5114     -5353.1751     -503.20269      57664.214      362.90021    
     49000   1049.7686     -5560.6315     -5352.3424     -712.85322      57631.287      362.76359    
     49010   1056.8997     -5561.1632     -5351.4592     -716.502        57595.082      362.64604    
     49020   1055.8174     -5560.0408     -5350.5515     -615.00103      57555.512      362.5512     
     49030   1055.4896     -5559.0597     -5349.6354     -425.99778      57513.042      362.44468    
     49040   1055.5476     -5558.1541     -5348.7183     -270.08864      57468.432      362.30973    
     49050   1057.3101     -5557.5934     -5347.8079     -80.094004      57422.491      362.15981    
     49060   1068.6072     -5558.9553     -5346.9283      114.08838      57375.994      362.0085     
     49070   1065.1832     -5557.4487     -5346.1011      443.45933      57329.82       361.85013    
     49080   1068.4936     -5557.3564     -5345.352       845.82304      57285.452      361.68891    
     49090   1078.2757     -5558.6327     -5344.6874      1097.2951      57244.603      361.56843    
     49100   1081.8624     -5558.8041     -5344.1471      1231.8403      57208.424      361.51587    
     49110   1078.44       -5557.7281     -5343.7502      1329.3895      57177.544      361.52045    
     49120   1073.2005     -5556.42       -5343.4817      1397.9105      57152.457      361.58461    
     49130   1076.3461     -5556.8818     -5343.3194      1265.2699      57133.402      361.68701    
     49140   1095.1117     -5560.5743     -5343.2885      868.71778      57119.785      361.78387    
     49150   1114.5663     -5564.6023     -5343.4564      437.19205      57109.941      361.8457     
     49160   1114.0979     -5564.9451     -5343.8921      276.15571      57102.115      361.87858    
     49170   1116.9162     -5566.2217     -5344.6095      175.19504      57095.501      361.91363    
     49180   1116.3301     -5567.1251     -5345.6292      138.58567      57089.627      361.98756    
     49190   1092.266      -5563.6293     -5346.908       378.00543      57084.41       362.12678    
     49200   1075.4878     -5561.7092     -5348.317       612.46186      57080.806      362.32118    
     49210   1065.4832     -5561.1299     -5349.7228      806.14132      57079.898      362.55509    
     49220   1079.0503     -5565.1469     -5351.0478      556.77266      57082.339      362.80752    
     49230   1087.5052     -5568.0505     -5352.2739      245.24892      57087.22       363.02324    
     49240   1077.6866     -5567.2141     -5353.3857      293.10469      57093.343      363.17804    
     49250   1061.2787     -5564.8737     -5354.3008      462.99207      57100.842      363.28229    
     49260   1059.994      -5565.3519     -5355.0339      492.8184       57110.315      363.36534    
     49270   1050.4493     -5564.0215     -5355.5973      612.96685      57122.026      363.48212    
     49280   1048.0059     -5563.9805     -5356.0411      562.53536      57136.357      363.67081    
     49290   1047.1404     -5564.1544     -5356.3868      469.87128      57153.14       363.92053    
     49300   1043.8997     -5563.7805     -5356.6559      480.92149      57172.026      364.22322    
     49310   1047.346      -5564.6843     -5356.8759      443.74084      57192.946      364.5726     
     49320   1052.2126     -5565.835      -5357.0609      332.45425      57215.759      364.93735    
     49330   1060.2176     -5567.6136     -5357.2513      169.33073      57239.985      365.28845    
     49340   1046.9736     -5565.1952     -5357.4606      289.1258       57265.077      365.62023    
     49350   1031.6802     -5562.3574     -5357.6573      356.43848      57291.369      365.93863    
     49360   1043.9447     -5564.9341     -5357.8005      172.31987      57319.09       366.24101    
     49370   1046.4148     -5565.5295     -5357.9059      197.62791      57347.633      366.51161    
     49380   1034.8706     -5563.3202     -5357.987       309.82912      57377.055      366.73512    
     49390   1037.979      -5563.9691     -5CHGNet v0.3.0 initialized with 412,525 parameters
CHGNet will run on cuda:0
CHGNet will run on cuda:0
358.0192      161.44641      57407.723      366.93861    
     49400   1041.7857     -5564.6997     -5357.9945     -119.24054      57439.007      367.18899    
     49410   1051.0796     -5566.4956     -5357.9464     -461.33748      57469.634      367.50913    
     49420   1044.7622     -5565.1875     -5357.8917     -487.28284      57498.297      367.84639    
     49430   1028.0135     -5561.7799     -5357.8073     -430.64042      57524.767      368.14901    
     49440   1032.9881     -5562.6061     -5357.6464     -511.01359      57549.215      368.41106    
     49450   1046.396      -5565.0216     -5357.4016     -710.89874      57571.282      368.65559    
     49460   1056.3886     -5566.7267     -5357.124      -977.5498       57590.061      368.87572    
     49470   1053.5222     -5565.8829     -5356.8491     -1072.8827      57604.528      369.04247    
     49480   1054.6576     -5565.8459     -5356.5868     -1058.5849      57614.247      369.16445    
     49490   1058.0423     -5566.2671     -5356.3364     -891.42824      57619.317      369.27843    
     49500   1060.2293     -5566.4648     -5356.1002     -706.97025      57620.395      369.41169    
     49510   1067.7922     -5567.7704     -5355.9051     -481.21123      57618.331      369.55581    
     49520   1061.8067     -5566.4337     -5355.7561     -246.2461       57614.147      369.67928    
     49530   1063.5934     -5566.6901     -5355.6579     -306.18927      57608.76       369.77667    
     49540   1056.4624     -5565.2223     -5355.605      -464.54486      57601.987      369.85647    
     49550   1040.2779     -5561.9762     -5355.5702     -566.47661      57593.145      369.921      
     49560   1031.2175     -5560.1023     -5355.494      -573.44697      57581.793      369.95743    
     49570   1040.1303     -5561.7209     -5355.3442     -558.03665      57567.901      369.95226    
     49580   1051.0511     -5563.678      -5355.1344     -512.25685      57551.574      369.89275    
     49590   1051.1426     -5563.4619     -5354.9002     -417.64104      57532.994      369.8055     
     49600   1057.9708     -5564.5748     -5354.6583     -369.19064      57512.555      369.71895    
     49610   1059.3778     -5564.599      -5354.4033     -308.13131      57490.484      369.60356    
     49620   1063.5178     -5565.1835     -5354.1663     -266.68697      57467.015      369.43412    
     49630   1060.3854     -5564.3328     -5353.9371     -160.83991      57442.405      369.26514    
     49640   1069.1409     -5565.8774     -5353.7446     -220.21328      57417.02       369.15125    
     49650   1067.8991     -5565.4783     -5353.5918     -313.52499      57390.689      369.08529    
     49660   1074.5194     -5566.7139     -5353.5138     -528.72686      57362.885      369.03098    
     49670   1070.5192     -5565.9298     -5353.5235     -569.15915      57332.823      368.96455    
     49680   1068.1315     -5565.5552     -5353.6226     -614.93737      57300.198      368.86691    
     49690   1076.9384     -5567.5067     -5353.8267     -692.81087      57264.825      368.74078    
     49700   1085.7943     -5569.6132     -5354.176      -614.64264      57226.467      368.6052     
     49710   1083.699      -5569.7351     -5354.7137     -290.35151      57185.53       368.48217    
     49720   1079.096      -5569.5571     -5355.449       51.207973      57143.381      368.37814    
     49730   1070.8405     -5568.8416     -5356.3715      226.11187      57101.424      368.30161    
     49740   1054.2932     -5566.5861     -5357.3992      337.96955      57060.509      368.26181    
     49750   1062.0165     -5569.2455     -5358.5262      107.71953      57020.933      368.24746    
     49760   1057.0851     -5569.4685     -5359.7277      50.665221      56981.971      368.25061    
     49770   1047.6198     -5568.8141     -5360.9513      71.773885      56943.309      368.25816    
     49780   1025.4682     -5565.5742     -5362.1066      294.14015      56905.096      368.25958    
     49790   1010.745      -5563.6333     -5363.087       555.73185      56868.262      368.25409    
     49800   1014.5224     -5565.1567     -5363.861       661.62773      56833.827      368.25727    
     49810   1004.7921     -5563.79       -5364.4249      937.99913      56802.451      368.27945    
     49820   1002.089      -5563.6161     -5364.7873      1074.851       56775.201      368.2962     
     49830   998.53311     -5563.0613     -5364.938       1095.5502      56752.684      368.27853    
     49840   1003.3257     -5563.9797     -5364.9056      928.02788      56734.942      368.23598    
     49850   1013.1084     -5565.7266     -5364.7114      714.0359       56721.315      368.21269    
     49860   1024.3107     -5567.625      -5364.3871      465.64395      56710.799      368.24085    
     49870   1031.3848     -5568.6112     -5363.9697      471.20034      56702.43       368.32436    
     49880   1028.6075     -5567.5869     -5363.4965      813.97933      56696.255      368.44811    
     49890   1021.6532     -5565.6497     -5362.939       1129.1322      56693.659      368.59303    
     49900   1048.8355     -5570.4155     -5362.3116      1034.3631      56695.783      368.74058    
     49910   1050.5811     -5570.0944     -5361.644       965.09818      56702.393      368.8691     
     49920   1045.304      -5568.4014     -5360.9981      784.34001      56713.064      368.97936    
     49930   1040.6589     -5566.8329     -5360.3513      647.70447      56727.099      369.07891    
     49940   1051.8338     -5568.3977     -5359.6988      491.16319      56743.851      369.16826    
     49950   1064.4492     -5570.2625     -5359.0605      322.423        56762.653      369.28782    
     49960   1068.3463     -5570.4792     -5358.504       402.24602      56782.879      369.47301    
     49970   1055.5034     -5567.4628     -5358.0358      742.50222      56804.895      369.6809     
     49980   1052.5481     -5566.4707     -5357.6301      896.45532      56829.956      369.84837    
     49990   1075.5434     -5570.6719     -5357.2687      873.84314      56858.759      369.96825    
     50000   1090.5607     -5573.3928     -5357.01        845.08205      56891.243      370.08306    
Loop time of 6385.4 on 1 procs for 20000 steps with 1536 atoms

Performance: 0.271 ns/day, 88.686 hours/ns, 3.132 timesteps/s, 4.811 katom-step/s
128.8% CPU use with 1 MPI tasks x 1 OpenMP threads

MPI task timing breakdown:
Section |  min time  |  avg time  |  max time  |%varavg| %total
---------------------------------------------------------------
Pair    | 6243.3     | 6243.3     | 6243.3     |   0.0 | 97.77
Bond    | 0.0074967  | 0.0074967  | 0.0074967  |   0.0 |  0.00
Neigh   | 5.4438     | 5.4438     | 5.4438     |   0.0 |  0.09
Comm    | 0.67236    | 0.67236    | 0.67236    |   0.0 |  0.01
Output  | 134.36     | 134.36     | 134.36     |   0.0 |  2.10
Modify  | 1.5054     | 1.5054     | 1.5054     |   0.0 |  0.02
Other   |            | 0.1415     |            |       |  0.00

Nlocal:           1536 ave        1536 max        1536 min
Histogram: 1 0 0 0 0 0 0 0 0 0
Nghost:           2362 ave        2362 max        2362 min
Histogram: 1 0 0 0 0 0 0 0 0 0
Neighs:              0 ave           0 max           0 min
Histogram: 1 0 0 0 0 0 0 0 0 0
FullNghs:        41818 ave       41818 max       41818 min
Histogram: 1 0 0 0 0 0 0 0 0 0

Total # of neighbors = 41818
Ave neighs/atom = 27.22526
Ave special neighs/atom = 0
Neighbor list builds = 2000
Dangerous builds = 2000
System init for write_data ...
System init for write_restart ...
Total wall time: 2:48:22
