LAMMPS data file via write_data, version 2 Aug 2023, timestep = 50000, units = metal

1536 atoms
3 atom types

-2.6609659872907496 25.396940543498264 xlo xhi
-0.902792440793041 23.638766997000907 ylo yhi
-7.2063053804697645 75.41422904909388 zlo zhi

Masses

1 35.45
2 39.0983
3 6.94

Atoms # full

865 0 3 1 2.096918057849483 -0.5035895906600486 -7.024277032583463 0 1 0
792 0 1 -1 5.245467339160679 -0.11049540669390501 -6.0876074904199475 0 0 0
413 0 1 -1 9.280157804610454 1.3932710148580725 -6.412815177492213 0 0 0
1164 0 3 1 8.341688362226993 1.812362049107723 -4.064127707129245 0 0 0
1359 0 1 -1 13.632657863095298 -0.5467694903597571 -5.803925075482213 0 0 0
465 0 3 1 14.259146865305004 1.9986145643439173 -5.6512763519724745 0 0 1
956 0 2 1 19.48815794234769 1.8773198053162319 -5.859248275546456 0 0 1
1162 0 3 1 25.302291149534526 2.524808257157312 -7.191497010788169 0 0 0
205 0 1 -1 24.49036147556128 1.1990276426681805 -5.3716394433559085 -1 0 0
128 0 1 -1 -0.9248842617269342 4.002564363553171 -4.174556479913466 0 0 0
489 0 2 1 1.7143061826833135 5.281854095964102 -5.627549915455679 0 0 0
1249 0 2 1 6.790437933519867 3.3416132433383874 -7.124616188201432 0 0 0
1362 0 2 1 11.083613119899047 3.8531669521172516 -5.703975274933037 0 0 0
870 0 1 -1 7.992829763272878 4.213311677644653 -4.294564515018922 0 0 0
885 0 1 -1 14.793581154231644 3.754171246096253 -6.358457602696872 0 0 0
1264 0 1 -1 17.788179439607887 5.749034495985511 -4.693990041885675 0 0 0
1351 0 1 -1 21.506070022253013 4.375604086267789 -5.2130625158931485 0 0 0
98 0 3 1 22.731602691359782 5.716536055964973 -6.0612912494306554 -1 0 0
976 0 1 -1 -1.0760226939032267 6.637743930005042 -6.583555647419856 0 0 0
585 0 3 1 -1.721946603750623 6.31324227706406 -4.331112158599243 0 0 0
485 0 1 -1 3.160508590855284 9.394124010015494 -4.849512085095419 0 0 0
1176 0 1 -1 6.870367732324727 8.058701051627372 -6.083817309541588 0 0 0
770 0 3 1 4.373397461278456 8.058805499541464 -6.2062684457739685 0 0 0
195 0 3 1 12.289160001591098 9.116022104900058 -6.20371124172056 -1 0 0
973 0 1 -1 12.402472173194104 6.969289944247964 -5.289317117429057 0 0 0
1349 0 1 -1 15.536586985605558 8.997962050722789 -6.228076226471671 0 0 0
1073 0 3 1 16.58320571330303 7.379861857442961 -5.033944116278322 -1 0 0
1347 0 3 1 20.566721787528778 6.7186616561688455 -4.162833185649472 0 0 0
295 0 1 -1 22.326754348512857 7.872897757950387 -5.787572874589685 -1 0 0
1356 0 2 1 9.131183595589322 9.724329437016785 -5.734031445026581 0 0 0
197 0 1 -1 8.516057596431356 12.408758127658166 -5.15275554618367 -1 0 0
1352 0 1 -1 12.124141050298185 10.305096656459336 -4.234984152872629 0 0 0
200 0 1 -1 18.404007910663353 12.65986932094384 -6.056968868427667 -1 0 0
289 0 2 1 25.000120518066048 9.717590755582211 -4.396138549933173 -1 0 0
861 0 1 -1 22.600093713376353 12.262244911611276 -4.290372092949451 -1 -1 1
483 0 3 1 0.18521699206996667 14.885943686870013 -6.778645761510081 0 -1 0
685 0 1 -1 -2.445238006084626 16.384757656434928 -6.160556026329662 0 0 0
15 0 1 -1 1.1053676501018082 13.161934688019034 -5.460722523142368 0 -1 0
490 0 3 1 8.284828804049774 15.476687788150906 -5.530135033050483 0 0 0
1072 0 1 -1 11.5275108274239 14.019410213494234 -6.4911276706516485 0 0 0
774 0 1 -1 16.910665654080915 15.702560811915005 -4.631931726692326 0 -1 0
196 0 2 1 20.69222422266415 14.28708131234605 -6.999494431100158 -1 0 0
1255 0 1 -1 -2.647908727575874 19.55750470879503 -4.475744857850537 1 -1 0
10 0 3 1 -1.6358957359338064 18.44504175272884 -6.374248788951411 0 -1 0
16 0 1 -1 7.931330720143164 16.89357942861549 -7.125238155311854 0 -1 0
1456 0 1 -1 13.17832374678979 19.9446832211448 -5.990998135134616 0 0 0
1260 0 2 1 15.471826341302615 18.344719784036776 -4.5785071984715975 0 -1 0
304 0 1 -1 18.165789860429882 19.465044284435493 -5.480653680600652 -1 0 0
851 0 3 1 18.736835565671676 16.86974496788833 -5.368390794186458 -1 0 1
299 0 3 1 20.625970693218576 19.929376454369653 -6.069516044452708 -1 0 0
1233 0 3 1 23.363257931173216 19.216549568923995 -5.303337004895765 0 -1 1
388 0 2 1 -0.8989344292949097 23.373563819907083 -4.618285486620486 0 -1 0
781 0 1 -1 1.4965363077011977 22.217866314014806 -5.685245125100786 0 -1 0
1071 0 1 -1 8.497959096921798 21.182917413103986 -4.376233462320891 0 0 0
1259 0 3 1 14.330340630198949 21.97974281975784 -5.021591059663755 0 -1 0
783 0 1 -1 16.345980413322124 22.526107359545648 -6.137175282282609 0 -1 0
397 0 1 -1 19.41251816614082 23.58599581242615 -6.656437414258119 -1 -1 0
113 0 3 1 -0.6539987911224756 0.6939187472096706 -1.6957075522066214 0 0 0
394 0 2 1 4.168842483129042 -0.1838888951986717 -2.717877130672014 0 0 0
655 0 1 -1 1.4092277364097185 1.445339575144438 -2.7819961100306445 -1 0 1
390 0 1 -1 8.850826848624143 0.33125445958178834 -2.0633107129840464 0 0 0
881 0 2 1 11.581920799426415 -0.6777820442514407 -3.5008234841186456 0 0 0
775 0 1 -1 12.520174361981315 2.1981547553736234 -3.508869722188454 0 0 0
1357 0 1 -1 17.726571409255662 2.115576695157297 -3.2625743366732487 0 0 0
788 0 2 1 14.98787968464537 1.4499406395693715 -1.3652900844469027 0 0 0
1361 0 3 1 -0.17625609143557286 5.094927747007646 -2.051364050579643 0 0 0
1065 0 3 1 3.0463451542494804 2.955730535080897 -2.005056188933958 0 0 0
879 0 1 -1 1.91295764825054 5.2752757141320945 -2.5051745140994077 0 0 0
966 0 1 -1 5.242804664988285 2.7894606250438123 -2.741410151254854 0 0 0
179 0 3 1 5.6772893962794715 4.779796314717288 -3.6880438567889278 -1 0 1
871 0 1 -1 6.279153400389944 6.099927752212786 -1.5447300096446517 0 0 0
875 0 2 1 10.939529614959877 3.7922733383034313 -1.4444875966871225 0 0 0
103 0 1 -1 14.787032025401357 5.129340298159374 -1.6973602828779288 -1 0 0
971 0 3 1 16.231083302164507 4.2298767132830175 -3.7662438146475807 0 0 0
204 0 2 1 19.942560702342 3.941751175067976 -1.1283753349938026 -1 0 0
1258 0 3 1 25.20628060131512 2.9492582156868936 -3.8761378022305344 0 0 0
118 0 1 -1 24.90759513263135 3.278720681416429 -1.560354017918952 -1 0 0
587 0 3 1 25.388155898280154 5.484528335089982 -1.0238900953415202 -1 0 0
583 0 1 -1 -2.657074909254448 7.417718637460563 -2.85649918957522 0 0 0
1330 0 3 1 13.47637084439023 6.542941837954919 -3.4162338544013826 0 -1 1
1364 0 2 1 12.233617522274288 9.118052634371182 -1.5698145168799824 0 0 0
296 0 1 -1 14.99890174951116 8.181397734542392 -2.7823130843041426 -1 0 0
199 0 1 -1 20.674097056873457 7.872795697679944 -2.2617066388463343 -1 0 0
858 0 3 1 21.292790515246644 9.558882322398446 -1.1146751979909073 0 -1 1
297 0 3 1 23.439479181219532 7.34496881484163 -1.5561804094863234 -1 0 0
1446 0 1 -1 23.744276551663525 9.601632394395494 -1.1444285399176453 0 0 0
389 0 1 -1 0.5366904764256031 11.844728087366358 -2.12678944604758 0 -1 0
975 0 1 -1 4.336974402138087 12.679236953225958 -2.340568250195661 0 0 0
577 0 2 1 5.638655620250269 10.859371873240656 -3.962799033407151 0 0 0
590 0 1 -1 7.667374832218924 12.480152658297307 -1.1005851903514081 0 0 0
1452 0 2 1 18.293455159819146 10.39626269150249 -4.021951996655279 0 0 0
1448 0 1 -1 15.12928842266811 12.257749153664994 -1.2818459390225705 0 0 0
1461 0 1 -1 18.913714586495423 13.071896297002331 -2.082940660743189 0 0 0
208 0 1 -1 -1.1844453280328406 14.361158624002494 -1.8563738300112407 0 0 0
683 0 3 1 1.5752531851206575 13.945320506971756 -3.281710404473501 0 0 0
678 0 1 -1 2.758139141664844 16.07305248829715 -4.017739216678227 0 0 0
589 0 1 -1 5.966359044085612 16.315034635008608 -3.3482321520159704 0 0 0
482 0 3 1 4.485287440884302 14.683115804846372 -3.7312260306248395 0 0 0
1066 0 3 1 4.450766018128514 16.09852525496769 -1.556632023886765 0 0 0
950 0 1 -1 9.64931738461792 15.3816282310012 -3.5982587439686116 0 0 1
690 0 3 1 8.783594358387877 14.201953310968808 -1.7715618638112058 0 0 0
94 0 1 -1 13.441548644815649 16.532369509787408 -3.6752689054746686 0 -1 1
492 0 3 1 11.47522423726579 15.96705812082857 -3.1078650109351518 0 0 0
778 0 3 1 18.261865961548907 13.982430597741516 -3.90297561789524 0 -1 0
92 0 2 1 15.223314497221347 15.275259054194434 -1.6301594468717413 -1 -1 1
198 0 1 -1 20.6818617672863 16.072286536558764 -3.4316096845510837 -1 0 0
857 0 3 1 21.030866199475128 13.556214034978915 -2.8025570412211573 -1 0 1
1339 0 2 1 24.396655164307504 14.813014169273048 -3.4511676221174414 0 -1 1
22 0 1 -1 -0.2857620371088583 17.490112402528702 -2.03375960741516 0 -1 0
12 0 3 1 1.7026766144803638 18.126697759193526 -2.501483476052326 0 -1 0
21 0 1 -1 3.539215002793104 18.78527784177448 -1.5098183935386924 0 -1 0
866 0 2 1 7.553686059128051 18.046074758162348 -2.4170298850787333 0 0 0
1261 0 1 -1 -1.9956539395649266 22.998002999209127 -2.045732759319683 1 -1 0
580 0 3 1 8.568828190387697 22.540554217419732 -2.770148859769759 0 0 0
1063 0 1 -1 12.01396692768084 21.138317352824963 -1.8351762877953686 0 0 0
1168 0 1 -1 21.415467177697103 20.51156822403191 -3.9898451594698185 0 -1 0
1169 0 2 1 18.705273514878755 21.633692320926485 -3.7637392227993485 0 -1 0
124 0 2 1 24.276672130933882 20.634717818615172 -1.7722614502174032 -1 -1 0
646 0 1 -1 -0.2636704006903736 0.9932981363879116 0.5611330853346717 0 0 1
508 0 2 1 2.6756829657082015 0.799179019885619 1.4928733863399906 0 0 0
785 0 2 1 6.781943479054842 1.1732019136711718 -0.017074820769829024 0 0 0
1460 0 2 1 18.344240332008816 -0.687389865664116 -0.23479316085748625 0 1 0
1350 0 1 -1 15.890637568692464 0.6135531063884292 2.0550662678107408 0 0 0
117 0 1 -1 20.8033752641309 1.341976350442351 -0.1542186647373871 -1 0 0
1267 0 2 1 22.662216060763548 2.210953648770025 1.8308009352678205 0 0 0
3 0 2 1 -0.9420171033197151 3.5974458631570148 1.8557420186481757 0 0 0
878 0 1 -1 4.6914900402560615 2.958530912227241 0.4944860608943191 0 0 0
107 0 3 1 4.551337307797255 5.132237010822352 -0.5781532264321196 0 0 0
955 0 3 1 7.336592707059605 5.542898933848719 0.2790613288417587 0 -1 1
408 0 1 -1 9.063806443004589 4.490373542533338 1.6127986169723627 0 0 0
1272 0 1 -1 12.42225321757252 3.337143049060497 1.114866732904467 0 0 0
1170 0 3 1 14.314729716485667 2.656780390792553 2.23332805484376 0 0 0
1269 0 1 -1 18.732313251171526 6.07718728136663 1.2632709944391713 0 0 0
599 0 1 -1 23.288648957150187 5.3115131285300485 -0.12988098583811603 -1 0 0
110 0 1 -1 -1.0164007986048467 6.117847195426493 0.24025976186576514 0 0 0
984 0 1 -1 5.465235416853044 6.499424903937438 2.141348463705974 0 0 0
1077 0 1 -1 9.947070898532985 8.113175326414197 0.30217506154811336 0 0 0
1074 0 3 1 10.56708094648554 6.368675640129065 1.831644302459761 0 0 0
596 0 3 1 11.832145649750995 9.088711247600559 1.56622014359945 0 0 0
207 0 1 -1 14.169627428514827 9.057278191425558 1.965598071352714 -1 0 0
1268 0 2 1 16.35430316906563 7.028963872288545 -0.218883547587434 0 0 0
1154 0 3 1 21.28826832914347 6.875273763094507 0.9302298799143962 0 0 0
686 0 1 -1 0.7071817492202395 12.613398330471082 1.8067028690731721 0 0 0
972 0 2 1 -1.9053097222449318 12.413413985567235 0.24111320815267767 0 0 0
491 0 2 1 2.998641931143543 10.72616237220068 -0.6322605893780393 0 0 0
405 0 1 -1 4.415081322344637 12.344942771787169 1.8481295070573083 0 -1 0
362 0 3 1 5.5072718841728605 13.041431178882982 0.055727437798203106 -1 0 1
888 0 1 -1 12.13037452214211 11.390514294785916 2.0370904093151214 0 0 0
884 0 3 1 14.29648698182316 11.643283402556314 1.360612925866322 0 0 0
1256 0 1 -1 16.85308720461424 12.518600356879874 1.4281011404404076 0 0 0
1449 0 3 1 17.55363119928166 11.09128061191279 -0.8072692401486083 0 0 0
1173 0 1 -1 19.291055291666503 9.834466689751403 0.5130812158627185 0 -1 0
836 0 3 1 0.7139858697026042 13.865922887653262 -0.45972153852621744 0 0 1
194 0 3 1 -1.6811307271560767 16.47527966417453 -0.7727635648464748 0 0 0
597 0 1 -1 2.915597485511457 15.283282718091938 0.20120016678626573 0 0 0
970 0 3 1 4.345290947456507 14.991400362874261 2.011014995659723 0 0 0
694 0 1 -1 6.305195855867268 15.414541259869024 0.5521917827356955 0 0 0
1354 0 2 1 9.302207092971823 13.18997927046807 1.3265987655472813 0 0 0
974 0 1 -1 10.288699773767107 15.305631794005995 -0.3347244889178347 0 0 0
20 0 3 1 10.286020466721572 16.529705454271898 1.8604323501547526 0 -1 0
202 0 2 1 19.977570279029514 13.255872068336048 1.0246812364504745 -1 0 0
303 0 1 -1 23.995868430106036 14.037962456628604 1.2976652541012825 -1 0 0
28 0 2 1 1.4586680081787122 17.59830583492584 0.647522673491582 0 -1 0
395 0 2 1 6.0718355720656465 19.37985457423754 1.3372176383750194 0 -1 0
1080 0 1 -1 10.362138606950149 19.49415271321358 1.7735462755143043 0 0 0
1067 0 2 1 12.808782634505308 18.37306018057636 -0.25084255135650224 0 0 0
789 0 1 -1 15.764289660643085 17.804889182269726 -0.4392185355562255 0 -1 0
1458 0 3 1 17.21210493545216 19.18645007571314 0.47277994748574326 0 0 0
385 0 2 1 21.515475970571345 18.359597711828243 -0.8123842284166027 -1 -1 0
1174 0 1 -1 19.675431564262823 16.998639525869145 0.7273364612131825 0 -1 0
1167 0 1 -1 24.626763432897867 18.079169022438073 -0.663104769002997 0 -1 0
486 0 1 -1 0.7568549311134638 21.26373138587966 -0.7027417643866629 0 -1 0
105 0 2 1 -1.4597779863393874 22.67467928313623 0.9769344405317764 0 -1 0
121 0 3 1 3.0669638481593777 20.946643847521784 -0.7268426387286029 0 -1 0
396 0 3 1 5.39256200767827 22.98816660826668 2.304621179934818 0 -1 0
13 0 1 -1 4.548057708236747 22.876095996697636 0.2500258106005733 0 -1 0
687 0 1 -1 7.971884876334638 20.73723069496824 -0.8157280237472486 0 0 0
674 0 3 1 9.134049038809898 21.305156841811858 1.1172801166609148 0 0 0
1084 0 3 1 13.962476044881425 21.305293344040557 -0.694960377859358 0 0 0
1455 0 1 -1 13.902904407166824 20.351929878056687 1.4889116906427784 0 0 0
398 0 1 -1 16.331751469894456 21.740996489230575 -0.5010119532140616 0 -1 0
1265 0 3 1 15.359498874288962 22.93026683587012 1.4312840950923338 0 -1 0
782 0 1 -1 19.072975638497503 20.224033741129077 0.07886766924080302 0 -1 0
498 0 3 1 -0.49226494506442675 2.3859207946221495 5.386425187724809 0 0 0
300 0 2 1 -2.520673864111647 -0.7150948795187213 5.12293611367854 0 1 0
495 0 1 -1 4.772734831218044 0.6626605368157144 3.770854711282489 0 0 0
883 0 3 1 5.873601297226427 -0.8942090715309448 5.0293018501125015 0 0 0
1086 0 1 -1 12.76679967316068 1.9991951239702428 4.044741139406803 0 1 0
1370 0 2 1 18.01424201777013 2.4623296776206383 3.50546234987214 0 0 0
126 0 1 -1 20.555511159051974 0.7006317107733551 3.1001650164277486 -1 0 0
216 0 1 -1 25.126355309073524 2.5410577423303082 4.35899072698578 -1 1 0
32 0 1 -1 -0.9712471526039905 5.801687250893121 3.8793723984081154 0 0 0
608 0 1 -1 1.313303886376223 3.1290794797038037 3.748528079957696 0 0 0
316 0 3 1 0.8839122889201403 4.793432771595273 4.969795862310198 0 1 0
497 0 2 1 6.27784995105241 4.236050770013667 4.070275882262772 0 0 0
402 0 3 1 10.355055718498038 3.227123381947627 3.3334330616570735 0 0 0
502 0 1 -1 9.691029766534228 3.676639328594624 5.339550013599677 0 0 0
1271 0 1 -1 15.527409906992178 4.209363467702946 3.2345389812801404 0 0 0
593 0 2 1 2.410885898878731 6.980448508611196 2.6576823571769204 0 0 0
613 0 1 -1 5.027192274009947 8.788858612647841 4.65214081195967 0 0 0
696 0 1 -1 11.006799726223786 7.801677814095994 3.826103394335396 0 0 0
780 0 2 1 14.088041682589386 6.840295627535522 4.607247293593494 0 0 0
1360 0 1 -1 17.35872715833289 7.65281266719186 4.513348214180901 0 0 0
1355 0 2 1 19.822995823035015 6.411470543091009 4.372718473344559 0 0 0
120 0 1 -1 21.7457110078646 7.677644265102927 3.062823723597411 -1 0 0
681 0 2 1 24.92908147287954 7.139121723233989 2.480039607763315 -1 0 0
693 0 1 -1 6.880255494124205 11.748323983098683 4.895207768242745 0 0 0
1059 0 3 1 18.30102044983778 10.021982671215925 2.9811227430683545 0 0 0
1369 0 2 1 15.49877572744064 11.801841717995352 4.59002830667953 0 0 0
308 0 3 1 20.010186542666908 13.096805461825976 5.3649064237586455 -1 0 0
1367 0 1 -1 19.65661351959445 10.846424599551408 4.731568983339473 0 0 0
591 0 1 -1 25.198644492494154 10.213546561613072 4.5770982801100875 -1 0 0
675 0 2 1 -1.843024164320731 13.310663114273927 3.304646782064287 0 0 0
313 0 3 1 0.5340727954314732 16.205888894621545 4.123765733107618 0 0 0
496 0 1 -1 3.225055216825102 15.612138364878605 4.06292147750446 0 0 0
980 0 2 1 6.185347270803085 14.410808385316942 4.661957115706077 0 0 0
414 0 1 -1 10.917378034598267 16.13967826913281 4.370003619516957 0 -1 0
312 0 1 -1 21.770102556888865 13.825390187205924 4.036463841203821 -1 0 0
1068 0 2 1 23.806970226472906 16.24581856167734 3.8344016388328406 0 0 0
1358 0 1 -1 -1.7403426849449435 16.642339229540305 2.3479175803079606 1 0 0
305 0 3 1 -1.598848890759155 18.722294236512873 2.8335070121255264 0 0 0
301 0 1 -1 0.4779995609762753 18.49853543909409 4.000118955296401 0 0 0
598 0 1 -1 7.388808001390286 17.28062921344786 3.9060247732985722 0 0 0
115 0 3 1 15.531343740761303 19.82716944093857 3.5847352960005203 0 -1 0
298 0 3 1 19.689702049870355 18.663252983915356 2.733632647178908 -1 0 0
1159 0 1 -1 21.941805809066793 19.72801071760435 3.2293795588207743 0 -1 0
206 0 1 -1 24.825895158647775 19.15527751813692 4.682065727778387 -1 0 0
400 0 1 -1 0.7807748674864525 23.039715463023228 3.0755769336117496 0 -1 0
116 0 2 1 2.237290348680278 21.205868932922527 4.637591690608781 0 -1 0
688 0 1 -1 5.143929597030688 21.448790274077446 4.198045837398 0 0 0
503 0 1 -1 7.743416195853667 22.81837611827948 2.364217730281883 0 -1 0
404 0 2 1 8.201226876157495 21.103976957682853 5.008377214283769 0 -1 0
1464 0 1 -1 17.864330477077473 20.261668014740792 3.578288702218231 0 0 0
1484 0 2 1 21.217157365897997 22.19808039343431 4.923210726222139 0 0 0
1172 0 3 1 24.06859726505293 20.83133710451034 3.37765834909481 0 -1 0
24 0 1 -1 23.60805697128032 23.045495463423734 2.8391521888903153 -1 -1 0
512 0 1 -1 0.0463374176493363 0.4945609217530045 5.983400007357975 0 0 0
212 0 2 1 3.065661684154078 2.060233465758513 6.854228778224703 0 1 0
1266 0 2 1 9.416169035860857 2.5786784453571268 8.059131279132941 0 0 0
793 0 3 1 12.282295417571225 1.8339027653625855 6.209330879879584 0 0 0
887 0 1 -1 11.610545888183967 0.5477115963719719 7.976670008323961 0 0 0
119 0 1 -1 15.952055697767259 0.9074498102702986 8.022844824462895 -1 0 0
318 0 1 -1 20.69555564913677 0.28458707908800496 6.95594760808765 -1 1 0
1273 0 3 1 22.322101257706315 -0.7557020796720232 8.358848682026458 0 0 0
133 0 1 -1 0.4521126585524957 4.2626402429102805 7.213839726636653 0 0 0
125 0 1 -1 6.182832054044372 2.9267232912382575 6.897953895592845 0 0 0
601 0 3 1 6.1925806351577855 4.412727867490348 8.547337857833833 0 0 0
977 0 2 1 10.482842379776557 5.92072373953209 7.052305251587226 0 0 0
509 0 1 -1 12.349785758961014 3.8503050040388276 7.593352032104965 0 0 0
106 0 3 1 18.015753984647816 5.7806452376122595 7.415186047846401 -1 0 0
18 0 2 1 15.340590847099952 2.997551088040194 6.1154706231818 -1 0 0
328 0 1 -1 15.980657070779761 4.743761163732142 8.312256065198644 -1 1 0
209 0 3 1 20.764881820032947 2.7310601595310877 6.211843740303399 -1 0 0
1184 0 1 -1 18.510056396549444 3.8556122615040707 6.120486616919653 0 0 0
213 0 1 -1 21.910946750178468 4.346213978753668 7.086174743831661 -1 0 0
211 0 2 1 24.880468822395585 4.979604141075221 6.615938425097244 -1 0 0
588 0 2 1 -0.22691314004151808 6.968614154630882 7.7577837018840246 0 0 0
605 0 1 -1 1.7724110902865524 7.144871221925769 5.565126615875233 0 0 0
506 0 3 1 3.773866025810417 8.147882457870606 6.540464877645718 0 0 0
609 0 2 1 6.572371079796431 9.464688997257223 7.155546361551556 0 0 0
896 0 1 -1 5.593824075253785 6.547837153552363 7.658177358256195 0 0 0
500 0 3 1 11.108657673142837 9.474425132121658 5.523647908595809 0 0 0
510 0 1 -1 9.531251710243758 8.681281936617552 6.886012790627369 0 0 0
981 0 1 -1 12.90176784757194 7.9154497060808815 7.697725387169729 0 0 0
603 0 3 1 13.885875735789847 9.540199069355053 7.121588450339747 0 0 0
203 0 3 1 17.7550725201897 9.324392460998567 5.622007060902062 -1 0 0
1365 0 1 -1 19.096010127741856 7.522128977597383 7.951988329975659 0 0 0
114 0 2 1 22.297805373120802 9.592331477576678 5.607227341445462 -1 0 0
501 0 1 -1 25.023036304052688 7.967048213723011 7.326560303472954 -1 0 0
594 0 2 1 22.864599783630325 6.6684653131775855 8.58787496228232 -1 0 0
876 0 2 1 -1.816863906611931 11.311320850838097 8.057281674305637 0 0 0
1251 0 2 1 4.236743845915802 11.963247767511367 5.86224604182431 1 -1 0
302 0 1 -1 1.364349543400377 11.24231979687835 7.5378680522239705 0 0 0
1368 0 1 -1 12.123471808490082 11.343548866031796 6.115105074896055 0 0 0
1263 0 1 -1 16.175645676025788 10.02728120407039 6.964891995056089 0 0 0
989 0 1 -1 21.61661559666274 12.765695160096769 7.761287749780127 0 0 0
14 0 1 -1 -0.2585764097025556 15.087536582554582 6.2049376904435025 0 -1 0
401 0 2 1 3.0986009191191526 16.543354196065323 7.482412953693363 0 -1 0
701 0 1 -1 8.146079785591937 15.506112948298268 7.296429648546102 0 0 0
1076 0 2 1 11.526786943089832 13.858170936194181 7.377798736191105 0 0 0
1069 0 1 -1 13.252329086036106 16.402432574507117 7.699215039426562 0 0 0
987 0 3 1 20.420097709011934 14.692171032268543 8.309428119721803 0 0 0
307 0 2 1 -0.7814286302772528 17.585843698572475 8.150453787982167 0 0 0
399 0 1 -1 3.0298504027284148 19.32001651984872 8.258316118520558 0 -1 0
784 0 1 -1 6.6649620998230645 20.069468124430095 7.414527775751589 0 -1 0
1058 0 3 1 8.861922503179663 16.921657653007593 5.567041968659929 0 0 0
985 0 3 1 8.597386142984515 19.8306370654279 8.496621512989135 0 0 0
1088 0 1 -1 10.552345262848348 18.76706226844864 6.615595861207037 0 0 0
412 0 3 1 12.631356742805924 17.39705854314792 5.8765688383576915 0 -1 0
692 0 2 1 13.658792450686073 19.382102423564014 8.679119901741016 0 0 0
406 0 1 -1 15.034033518645751 18.918799359992846 5.6902910324891 0 -1 0
983 0 1 -1 20.475530221025245 17.162655178043792 7.125379184496282 0 0 0
978 0 2 1 22.897366558715447 19.18946448325859 7.186835606502486 0 0 0
505 0 2 1 0.9178832729618098 23.571741865412484 8.500300150003227 0 -1 0
800 0 1 -1 5.335323766015006 23.41071160122565 6.98167372176014 0 -1 0
963 0 3 1 7.125470501010303 22.271830171525195 7.624570751774259 0 -1 0
586 0 3 1 4.402040147383153 21.148294645180137 8.071910236582358 0 0 0
29 0 1 -1 9.247425056590279 21.82535807539739 7.674740011176564 0 -1 0
964 0 3 1 11.907527559651578 22.98935452668406 6.78089758743738 0 -1 0
1070 0 1 -1 14.227856862344206 22.670111477010927 6.596941669521717 0 0 0
786 0 3 1 14.778630385603508 23.416221629182374 8.658158192798972 0 -1 0
796 0 2 1 17.037364766155463 21.621131598333918 6.299366269138972 0 -1 0
1079 0 1 -1 20.758510010605086 20.522888877270802 7.760692811247827 0 0 0
1454 0 1 -1 23.656463744064446 22.600160996894395 6.750998773309101 0 0 0
309 0 1 -1 2.574459454557519 1.2154439902874703 9.72003547896627 0 1 0
897 0 2 1 5.292720323971031 0.39386524263532485 10.650900210405016 0 0 0
799 0 1 -1 8.136738071653348 0.5092440890643382 10.773398547392308 0 0 0
1450 0 2 1 13.674636883887134 1.9184796476859196 10.049227427989685 0 1 0
224 0 1 -1 21.56681091248892 2.000018382293924 10.028562286920472 -1 0 0
691 0 2 1 18.521404346552238 0.09736438032872163 9.13314404644407 0 1 0
123 0 2 1 1.823837205762051 3.9837651089728796 11.16902351126376 0 0 0
221 0 1 -1 6.256736514022132 3.334592162413382 10.57518802802554 0 0 0
513 0 2 1 6.01211320267244 5.867374342567612 11.823998007055899 0 0 0
893 0 1 -1 9.987212775072559 5.451147949624572 11.011187068993596 0 0 0
499 0 2 1 13.334116921360428 5.764728468625831 9.983643011434093 0 0 0
1075 0 3 1 20.689149919422327 4.087595903440146 10.335241233217815 0 1 0
1182 0 1 -1 20.521355162532082 5.801244727727407 11.347695656953814 0 0 0
135 0 1 -1 -1.4642750440492358 8.31225459348176 10.147708395749714 0 0 0
986 0 2 1 1.8219296840030053 9.348369695395474 9.540353632332451 0 0 0
695 0 1 -1 3.373595087100597 7.085742257923018 10.992477308844748 0 0 0
993 0 3 1 5.303894984942142 8.243538961110273 9.901542080541109 0 0 0
607 0 1 -1 7.022836167669446 8.745201747512306 11.598477280057683 0 0 0
215 0 1 -1 17.639648999252003 8.551601641565025 11.18970074648875 -1 0 0
306 0 3 1 19.736939866776936 7.9150402501145365 10.16285204102465 -1 1 0
1277 0 1 -1 22.14967724665982 9.200663692466227 10.032260776375704 0 0 0
11 0 3 1 3.643374909814547 12.519143523625667 10.20158217080268 0 -1 0
317 0 1 -1 2.0748316572301695 11.778908149203222 11.450135685336633 0 0 0
415 0 1 -1 4.764363552760223 10.671395358254285 9.672009727804209 0 -1 0
595 0 2 1 10.936270422209725 10.062388261745204 9.12251695356018 0 0 0
602 0 2 1 8.00346942062519 11.646595412218618 11.595410017326987 0 0 0
991 0 1 -1 13.211363179266195 12.422418558334268 9.778736984690287 0 0 0
220 0 2 1 17.982073327573282 10.59931124511305 9.644122179858972 -1 0 0
1469 0 1 -1 25.146473437013036 11.50417741145179 11.17542462494806 0 0 0
892 0 3 1 24.65250781411715 9.66909300534101 9.871656416482608 0 0 0
600 0 1 -1 1.3629941647579482 16.599946527130456 9.830060997503082 0 0 0
1451 0 3 1 5.40712874443572 15.022159925531058 10.422146727116356 1 0 0
1366 0 1 -1 4.515883359120918 13.895496833524431 8.840547031799435 1 0 0
992 0 1 -1 10.189681316759192 14.662169309438692 11.287227671327337 0 0 0
979 0 2 1 15.448292666910197 15.142816833846547 9.529995201018608 0 0 0
232 0 1 -1 18.832376098075002 13.621481962700187 10.073255699312885 -1 0 0
1378 0 2 1 24.161463939825047 14.145039156788862 9.126287509280541 0 0 0
1376 0 1 -1 -2.3186984319902755 18.53992276966364 11.628447442849492 1 0 0
419 0 3 1 3.3375607820407573 17.986570495410277 10.70666086472852 0 -1 0
624 0 1 -1 5.595275241518781 17.72914233773566 11.38411914644584 0 0 0
809 0 3 1 6.8897120612798535 19.57799972166434 11.607611267782495 0 -1 0
604 0 2 1 9.8257770077625 16.955295749301506 9.243337340506535 0 0 0
416 0 1 -1 9.043639498915487 19.218514797541253 10.916984389513665 0 -1 0
990 0 1 -1 15.550685802844905 17.948294354033784 10.031891365296786 0 0 0
1372 0 2 1 18.50604060266648 18.699501812401913 8.696615916308518 0 0 0
1381 0 1 -1 24.36736439252214 16.97667049781588 8.874171909696546 0 0 0
1187 0 3 1 23.835723400974217 17.53101896468558 11.1942115310565 0 -1 0
27 0 3 1 -2.160282301247067 20.448973869398507 9.9878340127616 0 -1 0
797 0 1 -1 -0.38396390723794394 22.29749004829084 10.624935119719861 1 -1 0
30 0 1 -1 5.2869511665252515 22.186836668391734 10.144502496943073 0 -1 0
403 0 2 1 10.306049222669227 22.579104530521967 10.644161379147608 0 -1 0
1078 0 1 -1 12.90382452759233 22.345278197044017 9.693441330393991 0 0 0
982 0 1 -1 16.516960142074844 21.45797366326125 9.542026100350615 0 0 0
33 0 3 1 21.25654186863379 20.909767979903364 10.146456692728417 -1 -1 0
1270 0 1 -1 20.25420614613671 23.01091984976648 11.13100187405648 0 -1 0
23 0 1 -1 23.42524742584972 20.94288734044774 10.12675535749203 -1 -1 0
25 0 2 1 0.49283904739718887 -0.12565736134862304 13.199857564376813 0 0 0
422 0 1 -1 -1.2855463308329675 2.3489204989228867 12.313177303598376 0 0 0
520 0 1 -1 3.548839240535157 -0.6707697941354138 13.882629852851341 0 0 0
1280 0 1 -1 12.029577537953932 2.1928423916386213 12.579451410711897 0 0 0
1457 0 3 1 20.395469219374974 1.1910358020950955 12.119322936269779 0 1 0
1194 0 3 1 24.823103446717553 1.809840126208727 13.32101995993207 0 0 0
1374 0 1 -1 22.58209863915218 0.9644307953987987 13.066039327829355 0 0 0
129 0 3 1 -0.6512557587513852 3.5315292365860023 14.256105692245686 0 0 0
141 0 1 -1 -0.6689835090090694 6.073440191096896 14.622852741950293 0 0 0
794 0 3 1 1.7402530750224487 5.808668416791874 14.938705279798448 0 0 0
904 0 1 -1 3.2306014161118757 4.535521564876243 13.69741565899367 0 0 0
1472 0 1 -1 7.821272351459779 4.807832960091398 15.026136130896415 0 1 0
507 0 2 1 8.581054107009491 2.985624560339931 12.697764082915867 0 0 0
700 0 2 1 11.703650048009823 4.98812211392478 14.104765706914854 0 1 0
798 0 1 -1 14.783306921270503 3.375675302183966 14.06841612334599 0 0 0
19 0 3 1 20.401507891617406 3.8717731458605646 13.075114765081175 -1 0 0
1181 0 1 -1 18.850420260540652 2.891640400456845 11.993764289986917 0 0 0
210 0 2 1 -1.1042416246154412 9.038661179261004 13.90574170582903 0 0 0
882 0 2 1 9.289663876391614 7.724689537360213 13.306534950154873 0 0 0
1190 0 1 -1 13.825778022105995 7.905198400722478 11.881763759859613 0 0 0
17 0 2 1 16.77079044674538 6.13828031098936 12.485092505309474 -1 0 0
1279 0 1 -1 17.151737455718575 7.877617540059871 14.906478336326497 0 0 0
122 0 2 1 20.898079780167762 8.28030292017413 14.348952979898616 -1 0 0
311 0 1 -1 -0.6099710069382058 11.948691900373834 14.458162812262618 0 0 0
1459 0 2 1 3.5295588091084804 9.652643695347885 13.158254258687439 1 0 0
617 0 3 1 5.960255346461572 12.3847609786824 14.103094613492122 0 0 0
606 0 1 -1 11.189267981312355 10.691647203012126 12.758440001818059 0 0 0
890 0 3 1 10.863776411985107 13.017836844683194 12.510667360943302 0 0 0
886 0 1 -1 13.370364573553298 11.081520042160832 14.83907908146302 0 0 0
1178 0 3 1 13.277936143571456 9.646061851176881 13.099629222909485 0 0 0
1284 0 2 1 17.59356305457782 10.488455327820832 14.131594020789468 0 0 0
223 0 1 -1 20.25787167588379 11.593425476005196 13.151232150310037 -1 0 0
1276 0 2 1 24.086057968317448 12.627826920766404 13.996392779097256 0 0 0
715 0 2 1 -0.8908955956070725 16.085009711923725 12.13856322174518 1 0 0
1171 0 3 1 1.3720137743152856 13.280413893794647 14.32546120820641 1 -1 0
1462 0 1 -1 2.0621489635587524 16.222980176119975 13.555171366913864 1 0 0
518 0 1 -1 5.825891204220246 13.783951587059313 12.3711719973018 0 0 0
697 0 2 1 5.279463788226406 16.084295637693053 14.166501108236776 0 0 0
237 0 1 -1 8.595567179655763 13.78844146818326 14.719457423860067 0 0 0
698 0 2 1 15.674006619548257 16.530664677264404 13.249626938270382 0 0 0
1373 0 1 -1 15.822219198010588 13.760619629622793 12.538873661920107 0 0 0
988 0 3 1 19.42022937282306 13.591690214823426 12.378485089321828 0 0 0
1463 0 1 -1 20.079847388946597 15.49293577989919 13.542544774757655 0 0 0
1471 0 1 -1 24.076647890871747 15.223008569902388 12.380009865370763 0 0 0
310 0 1 -1 7.075341269986463 19.837447953636243 13.838353772018237 0 0 0
417 0 3 1 10.83803108114517 20.017422301783505 14.679530989135422 0 -1 0