LAMMPS (2 Aug 2023)
OMP_NUM_THREADS environment is not set. Defaulting to 1 thread. (src/comm.cpp:98)
  using 1 OpenMP thread(s) per MPI task
Reading restart file ...
  restart file = 2 Aug 2023, LAMMPS = 2 Aug 2023
  restoring atom style full from restart
  orthogonal box = (-0.38706367 -0.34859865 -23.970409) to (20.724042 20.685577 84.981345)
  1 by 1 by 1 MPI processor grid
  pair style chgnet/gpu stores no restart info
  1536 atoms
Finding 1-2 1-3 1-4 neighbors ...
  special bond factors lj:    0        0        0       
  special bond factors coul:  0        0        0       
     0 = max # of 1-2 neighbors
     0 = max # of 1-3 neighbors
     0 = max # of 1-4 neighbors
     1 = max # of special neighbors
  special bonds CPU = 0.003 seconds
  read_restart CPU = 0.089 seconds
Resetting peratom fix info from restart file:
  fix style: STORE/ATOM, fix ID: msd_COMPUTE_STORE
All restart file peratom fix info was re-assigned
Neighbor list info ...
  update: every = 1 steps, delay = 10 steps, check = yes
  max neighbors/atom: 2000, page size: 100000
  master list distance cutoff = 6.3
  ghost atom cutoff = 6.3
  binsize = 3.15, bins = 7 7 35
  1 neighbor lists, perpetual/occasional/extra = 1 0 0
  (1) pair chgnet/gpu, perpetual
      attributes: full, newton on
      pair build: full/bin
      stencil: full/bin/3d
      bin: standard
Setting up Verlet run ...
  Unit style    : metal
  Current step  : 20000
  Time step     : 0.001
Per MPI rank memory allocation (min/avg/max) = 6.575 | 6.575 | 6.575 Mbytes
   Step          Temp          PotEng         TotEng         Press          Volume        c_msd[4]   
     20000   1521.5156     -5661.2355     -5359.345      -7767.3952      48380.541      223.43501    
     20010   1539.1854     -5664.8119     -5359.4155     -7909.2321      48380.82       223.68597    
     20020   1530.7907     -5663.3331     -5359.6023     -7978.4167      48381.535      223.94994    
     20030   1522.3955     -5661.973      -5359.9079     -7872.8653      48382.571      224.22608    
     20040   1502.6865     -5658.4515     -5360.297      -7567.3088      48384.128      224.51769    
     20050   1477.5169     -5653.89       -5360.7295     -7576.4906      48386.605      224.83228    
     20060   1493.9391     -5657.5737     -5361.1548     -8288.2669      48390.144      225.1736     
     20070   1490.928      -5657.4148     -5361.5933     -8567.7753      48394.176      225.55302    
     20080   1467.9946     -5653.3041     -5362.0329     -7976.0361      48398.393      225.93087    
     20090   1484.0925     -5656.9186     -5362.4534     -7689.8842      48403.199      226.28178    
     20100   1508.1342     -5662.1451     -5362.9097     -8117.6239      48408.744      226.60258    
     20110   1505.7118     -5662.2275     -5363.4728     -8561.4446      48414.901      226.92106    
     20120   1530.3155     -5667.8459     -5364.2094     -8777.567       48421.509      227.25308    
     20130   1525.5412     -5667.887      -5365.1977     -8417.2319      48428.64       227.61086    
     20140   1506.3768     -5665.366      -5366.4792     -7957.0553      48436.597      228.00593    
     20150   1498.7933     -5665.3733     -5367.9912     -7629.4735      48445.419      228.43227    
     20160   1481.9227     -5663.74       -5369.7053     -7484.9838      48454.846      228.87713    
     20170   1479.8554     -5665.1481     -5371.5236     -7798.3032      48464.737      229.31806    
     20180   1498.8643     -5670.8134     -5373.4172     -8571.7026      48475.146      229.73283    
     20190   1488.7615     -5670.7255     -5375.3339     -8766.3784      48485.978      230.1296     
     20200   1491.5561     -5673.1113     -5377.1652     -8770.6253      48497.179      230.54113    
     20210   1465.069      -5669.4547     -5378.764      -8401.0435      48508.522      230.95942    
     20220   1445.7238     -5666.8993     -5380.047      -8217.9342      48519.651      231.4119     
     20230   1467.9792     -5672.3383     -5381.0702     -8469.018       48530.36       231.89836    
     20240   1454.0818     -5670.3563     -5381.8457     -8859.5344      48540.946      232.35139    
     20250   1441.5387     -5668.4491     -5382.4272     -9363.9416      48551.668      232.73914    
     20260   1458.3534     -5672.1885     -5382.8303     -10022.478      48562.244      233.10227    
     20270   1442.0763     -5669.2207     -5383.0921     -10081.248      48572.201      233.44521    
     20280   1429.1548     -5666.8264     -5383.2616     -9669.8558      48581.469      233.75899    
     20290   1418.2012     -5664.6713     -5383.2798     -9237.3666      48590.118      234.07823    
     20300   1421.8503     -5665.2759     -5383.1604     -8919.3439      48598.059      234.39282    
     20310   1448.8233     -5670.3655     -5382.8982     -8770.3081      48605.38       234.70199    
     20320   1448.5051     -5670.0015     -5382.5973     -8162.2608      48612.148      235.03511    
     20330   1439.2635     -5667.839      -5382.2685     -7908.684       48618.707      235.37897    
     20340   1443.2227     -5668.2327     -5381.8766     -8170.4133      48625.571      235.71834    
     20350   1437.4685     -5666.6667     -5381.4524     -8259.3777      48633.27       236.05505    
     20360   1455.4708     -5669.7568     -5380.9706     -8827.1528      48641.994      236.4146     
     20370   1473.3125     -5672.8074     -5380.4811     -9268.0187      48651.113      236.80832    
     20380   1451.0441     -5667.9412     -5380.0332     -8997.1333      48659.974      237.21171    
     20390   1448.7598     -5667.0454     -5379.5907     -8842.7946      48668.684      237.60194    
     20400   1438.8188     -5664.6031     -5379.1209     -8667.4964      48677.448      237.96842    
     20410   1440.0477     -5664.3384     -5378.6123     -8747.8641      48686.457      238.31433    
     20420   1442.3094     -5664.2179     -5378.043      -8895.3361      48695.832      238.64093    
     20430   1459.1222     -5666.9714     -5377.4607     -9300.5091      48705.59       238.95403    
     20440   1445.3832     -5663.6459     -5376.8611     -8997.6749      48715.673      239.23656    
     20450   1462.59       -5666.4749     -5376.276      -8740.1902      48726.132      239.48144    
     20460   1443.9819     -5662.1829     -5375.6762     -8282.0566      48736.979      239.74923    
     20470   1454.1271     -5663.6298     -5375.1101     -8643.996       48748.434      240.07123    
     20480   1457.5719     -5663.7323     -5374.5292     -9025.9889      48760.151      240.41518    
     20490   1466.4735     -5664.9485     -5373.9791     -9244.2305      48771.858      240.78279    
     20500   1449.1027     -5660.9971     -5373.4743     -9131.9565      48783.6        241.19551    
     20510   1471.6316     -5665.021      -5373.0282     -9593.4644      48795.805      241.64023    
     20520   1427.0172     -5655.6958     -5372.5552     -9726.4621      48807.992      242.08179    
     20530   1419.034      -5653.6417     -5372.085      -10220.977      48819.474      242.50636    
     20540   1445.5599     -5658.2966     -5371.4768     -10408.006      48830.12       242.91547    
     20550   1448.3674     -5658.223      -5370.8462     -9774.4624      48840.292      243.32224    
     20560   1429.2611     -5653.7552     -5370.1694     -8405.6622      48850.798      243.75815    
     20570   1430.7888     -5653.2872     -5369.3982     -7406.4246      48862.476      244.21845    
     20580   1480.4684     -5662.2953     -5368.5492     -7466.6231      48875.642      244.71082    
     20590   1463.9476     -5658.1381     -5367.6699     -7316.6604      48890.053      245.22715    
     20600   1452.7044     -5655.0469     -5366.8095     -7604.2395      48905.753      245.73707    
     20610   1497.4256     -5663.0746     -5365.9639     -8364.8342      48922.389      246.22323    
     20620   1502.5531     -5663.328      -5365.1999     -8246.1074      48939.343      246.67077    
     20630   1465.3491     -5655.3457     -5364.5995     -7695.3216      48956.942      247.1089     
     20640   1503.0385     -5662.4026     -5364.1782     -8347.796       48975.716      247.59666    
     20650   1499.5701     -5661.4838     -5363.9476     -8612.2878      48995.391      248.11384    
     20660   1470.9089     -5655.8159     -5363.9665     -8420.759       49015.638      248.65334    
     20670   1491.6005     -5660.1962     -5364.2413     -8803.7623      49035.987      249.21762    
     20680   1497.6557     -5661.988      -5364.8317     -9193.5841      49055.9        249.7723     
     20690   1485.5083     -5660.5726     -5365.8265     -9290.1174      49075.26       250.29915    
     20700   1465.332      -5657.9645     -5367.2216     -8994.9528      49094.039      250.81533    
     20710   1450.0253     -5656.5948     -5368.8891     -9053.3289      49112.06       251.30338    
     20720   1440.1707     -5656.511      -5370.7605     -9180.0177      49128.993      251.73309    
     20730   1423.8454     -5655.219      -5372.7077     -8932.4542      49145.253      252.13194    
     20740   1416.8999     -5655.6987     -5374.5655     -8637.051       49161.466      252.546      
     20750   1414.2284     -5656.8523     -5376.2491     -8613.4145      49177.858      252.97537    
     20760   1409.8712     -5657.4382     -5377.6996     -8673.7599      49194.429      253.42024    
     20770   1415.353      -5659.7911     -5378.9648     -8713.1317      49211.304      253.89074    
     20780   1404.894      -5658.8101     -5380.059      -8537.9065      49228.903      254.38616    
     20790   1383.9962     -5655.5676     -5380.963      -8486.8542      49247.309      254.93607    
     20800   1393.3342     -5658.1476     -5381.6901     -9022.4666      49266.148      255.55668    
     20810   1403.4836     -5660.7744     -5382.3032     -9687.9394      49284.618      256.17045    
     20820   1362.5586     -5653.1484     -5382.7973     -9428.1957      49302.038      256.73891    
     20830   1367.2327     -5654.421      -5383.1425     -9397.4665      49318.483      257.29788    
     20840   1419.5139     -5665.0452     -5383.3933     -9500.8614      49333.946      257.86887    
     20850   1404.0553     -5662.2352     -5383.6505     -9212.2569      49348.475      258.42575    
     20860   1401.6973     -5662.0862     -5383.9694     -9247.9927      49362.654      258.91904    
     20870   1404.1818     -5662.8907     -5384.281      -9394.6731      49376.721      259.33539    
     20880   1413.5009     -5665.0763     -5384.6175     -9340.3942      49390.679      259.71316    
     20890   1425.0835     -5667.8082     -5385.0513     -9181.1557      49404.901      260.12553    
     20900   1435.1398     -5670.3519     -5385.5996     -9382.0448      49419.499      260.63151    
     20910   1407.6055     -5665.5608     -5386.2717     -9489.3006      49433.862      261.21719    
     20920   1367.2676     -5658.2893     -5387.0038     -9218.2333      49447.68       261.83539    
     20930   1347.9689     -5655.0978     -5387.6414     -9026.5416      49461.372      262.43571    
     20940   1346.4281     -5655.3094     -5388.1588     -8913.3675      49475.413      262.94867    
     20950   1349.4372     -5656.2803     -5388.5326     -9031.154       49489.886      263.40329    
     20960   1346.925      -5656.0294     -5388.7802     -9032.1455      49504.669      263.84607    
     20970   1361.0992     -5658.98       -5388.9184     -9183.1073      49519.966      264.29784    
     20980   1368.9825     -5660.6016     -5388.9758     -9341.5194      49535.601      264.76681    
     20990   1379.1874     -5662.6176     -5388.967      -9482.1524      49551.192      265.22548    
     21000   1377.7916     -5662.3381     -5388.9645     -9126.9294      49566.603      265.68324    
     21010   1376.0977     -5661.9873     -5388.9498     -8671.7087      49582.156      266.12868    
     21020   1389.8489     -5664.6987     -5388.9328     -8778.7822      49598.325      266.55723    
     21030   1396.5289     -5666.0416     -5388.9503     -8916.8521      49614.704      266.94702    
     21040   1402.9218     -5667.3871     -5389.0273     -9259.5294      49630.609      267.31421    
     21050   1403.2007     -5667.6566     -5389.2415     -9734.633       49645.756      267.69173    
     21060   1386.6526     -5664.7079     -5389.5761     -9952.8076      49660          268.07482    
     21070   1385.9418     -5665.0118     -5390.0211     -9902.7004      49673.238      268.45797    
     21080   1367.2871     -5661.8745     -5390.5852     -9559.0656      49685.396      268.84714    
     21090   1372.9093     -5663.6309     -5391.226      -9468.9038      49696.669      269.22052    
     21100   1401.29       -5670.0516     -5392.0156     -9693.7741      49707.363      269.5447     
     21110   1415.3075     -5673.8899     -5393.0726     -9643.1583      49717.78       269.79998    
     21120   1393.2391     -5670.8379     -5394.3993     -9438.1372      49728.357      270.01609    
     21130   1404.6361     -5674.7124     -5396.0125     -9604.7524      49739.485      270.2849     
     21140   1390.9443     -5673.8145     -5397.8312     -9849.9862      49750.884      270.60877    
     21150   1369.8085     -5671.5051     -5399.7155     -10126.293      49761.85       270.91155    
     21160   1371.2312     -5673.5988     -5401.5268     -10505.789      49771.623      271.148      
     21170   1383.4563     -5677.7135     -5403.2159     -10711.084      49779.75       271.35285    
     21180   1360.9727     -5674.7249     -5404.6884     -10334.735      49786.364      271.55392    
     21190   1342.9646     -5672.3932     -5405.9298     -10073.531      49791.421      271.74099    
     21200   1304.2295     -5665.6223     -5406.8445     -9779.205       49794.772      271.90481    
     21210   1329.3406     -5671.2704     -5407.5102     -9984.2687      49796.68       272.03744    
     21220   1314.5908     -5668.7585     -5407.9249     -9735.2009      49797.152      272.12818    
     21230   1324.6443     -5671.0283     -5408.1999     -9865.4654      49796.447      272.20963    
     21240   1347.5569     -5675.7616     -5408.387      -10115.2        49794.827      272.30061    
     21250   1324.0116     -5671.2133     -5408.5104     -9990.4873      49792.029      272.36207    
     21260   1315.528      -5669.5635     -5408.5439     -10042.551      49787.981      272.3457     
     21270   1329.6037     -5672.2815     -5408.4691     -10503.069      49782.828      272.27942    
     21280   1339.3054     -5674.0712     -5408.3338     -10599.95       49776.488      272.18791    
     21290   1345.1181     -5675.0691     -5408.1784     -10260.357      49768.762      272.07431    
     21300   1361.2698     -5678.1281     -5408.0326     -10007.58       49759.905      271.96498    
     21310   1352.0227     -5676.1835     -5407.9228     -9946.4699      49750.055      271.8887     
     21320   1363.9559     -5678.5085     -5407.8801     -10317.93       49739.229      271.83457    
     21330   1352.1754     -5676.1805     -5407.8896     -10500.355      49727.508      271.79333    
     21340   1349.3501     -5675.6799     -5407.9496     -10518.582      49714.788      271.74381    
     21350   1363.5165     -5678.6338     -5408.0926     -10447.418      49700.583      271.66672    
     21360   1358.1584     -5677.7915     -5408.3134     -10009.837      49684.547      271.53616    
     21370   1367.8013     -5680.0265     -5408.6351     -9653.4871      49667.033      271.32154    
     21380   1364.7953     -5679.8562     -5409.0613     -9465.9236      49648.596      271.07007    
     21390   1364.2526     -5680.3202     -5409.6329     -9863.5079      49629.645      270.81843    
     21400   1358.7316     -5679.9423     -5410.3504     -10191.753      49610.487      270.56211    
     21410   1346.1547     -5678.2866     -5411.1903     -9888.5033      49591.064      270.31502    
     21420   1337.3338     -5677.4736     -5412.1275     -9468.0121      49571.474      270.0806     
     21430   1361.2407     -5683.2825     -5413.1928     -9892.7111      49551.876      269.82026    
     21440   1334.98       -5679.2725     -5414.3933     -10350.122      49531.592      269.52554    
     21450   1318.2309     -5677.1858     -5415.6299     -10793.745      49510.08       269.21489    
     21460   1314.3187     -5677.6542     -5416.8745     -10686.31       49486.991      268.87068    
     21470   1265.5162     -5669.0651     -5417.9685     -9750.1875      49462.594      268.47364    
     21480   1267.1898     -5670.2509     -5418.8222     -9496.9442      49437.719      268.01869    
     21490   1304.202      -5678.2808     -5419.5084     -9994.4866      49412.76       267.53725    
     21500   1284.2683     -5674.8904     -5420.0732     -10143.388      49387.245      267.07049    
     21510   1269.9475     -5672.4716     -5420.4958     -9965.4759      49360.8        266.64487    
     21520   1265.6511     -5671.8633     -5420.74       -9929.1274      49333.602      266.23489    
     21530   1257.5952     -5670.3384     -5420.8135     -10198.834      49305.652      265.84403    
     21540   1270.9222     -5672.8879     -5420.7188     -10897.925      49276.494      265.4969     
     21550   1275.0559     -5673.4709     -5420.4816     -11098.11       49245.485      265.136      
     21560   1296.5163     -5677.374      -5420.1266     -10828.867      49212.605      264.71396    
     21570   1339.797      -5685.5537     -5419.7188     -10676.776      49178.121      264.22998    
     21580   1318.2958     -5680.9314     -5419.3626     -9996.8415      49142.201      263.73677    
     21590   1309.2647     -5678.829      -5419.0521     -9536.3224      49105.515      263.28852    
     21600   1311.1396     -5678.8645     -5418.7156     -9346.6545      49068.777      262.86152    
     21610   1337.1328     -5683.7157     -5418.4094     -9306.8052      49032.233      262.40077    
     21620   1336.3573     -5683.3396     -5418.1872     -8756.9675      48995.878      261.90225    
     21630   1327.1581     -5681.3862     -5418.0591     -8261.4687      48959.965      261.35979    
     21640   1332.101      -5682.3333     -5418.0253     -8093.5861      48924.78       260.75414    
     21650   1326.6368     -5681.2896     -5418.0658     -8275.9859      48890.443      260.12698    
     21660   1338.3221     -5683.7776     -5418.2353     -8711.1681      48857.041      259.53821    
     21670   1338.0947     -5684.075      -5418.5778     -8966.2328      48824.126      259.01052    
     21680   1337.0152     -5684.4155     -5419.1326     -9064.4937      48790.926      258.54861    
     21690   1332.8488     -5684.3855     -5419.9292     -9022.0261      48756.997      258.12403    
     21700   1355.5691     -5690.0248     -5421.0605     -9066.3982      48722.423      257.69367    
     21710   1336.0212     -5687.7341     -5422.6484     -8577.0439      48687.81       257.26625    
     21720   1307.7019     -5684.1288     -5424.662      -8246.9281      48653.956      256.85766    
     21730   1289.3088     -5682.8108     -5426.9935     -8391.8996      48621.059      256.45489    
     21740   1304.3103     -5688.2164     -5429.4226     -9109.566       48588.908      256.04931    
     21750   1314.7415     -5692.6077     -5431.7441     -9789.9291      48557.153      255.65199    
     21760   1303.131      -5692.3312     -5433.7713     -9913.6158      48525.143      255.2546     
     21770   1274.0301     -5688.0645     -5435.2786     -9785.7397      48493.024      254.86233    
     21780   1291.3275     -5692.5894     -5436.3715     -10161.706      48461.55       254.44572    
     21790   1300.2699     -5695.1843     -5437.1921     -10069.06       48430.91       254.00369    
     21800   1277.9633     -5691.4135     -5437.8472     -9425.0918      48400.901      253.5577     
     21810   1291.6012     -5694.6628     -5438.3907     -9549.728       48371.673      253.12938    
     21820   1295.9887     -5696.0303     -5438.8876     -10070.259      48343.202      252.75665    
     21830   1254.1607     -5688.1996     -5439.3561     -9979.3742      48315.161      252.4335     
     21840   1211.6865     -5680.0957     -5439.6797     -9422.5493      48287.316      252.15248    
     21850   1228.8598     -5683.6216     -5439.7982     -9321.6701      48259.882      251.90154    
     21860   1258.3708     -5689.4136     -5439.7348     -9297.3072      48233.144      251.67633    
     21870   1276.8587     -5692.9658     -5439.6188     -9071.9557      48207.198      251.46073    
     21880   1252.0564     -5687.8879     -5439.462      -8507.7589      48182.106      251.23013    
     21890   1248.8531     -5687.0431     -5439.2527     -8782.1627      48158.023      251.0015     
     21900   1273.3752     -5691.6409     -5438.985      -9424.5149      48134.621      250.80448    
     21910   1283.5306     -5693.3672     -5438.6963     -9451.0747      48111.404      250.60775    
     21920   1299.7723     -5696.3496     -5438.4562     -9336.719       48088.348      250.36897    
     21930   1291.3393     -5694.509      -5438.2888     -9219.7793      48065.728      250.09814    
     21940   1294.0528     -5694.9822     -5438.2236     -9759.2359      48043.522      249.82293    
     21950   1289.9523     -5694.2249     -5438.2798     -10463.973      48020.809      249.53066    
     21960   1258.0225     -5688.03       -5438.4203     -10666.653      47996.617      249.24605    
     21970   1241.7311     -5684.9282     -5438.551      -10459.649      47970.812      248.96162    
     21980   1240.9851     -5684.826      -5438.5968     -10546.685      47943.995      248.6622     
     21990   1269.1797     -5690.4155     -5438.5921     -10630.411      47916.4        248.33847    
     22000   1272.8585     -5691.134      -5438.5807     -10298.966      47887.966      247.98124    
     22010   1285.0902     -5693.5789     -5438.5985     -9951.7506      47859.069      247.59366    
     22020   1306.2048     -5697.9038     -5438.7341     -9670.0383      47830.135      247.17747    
     22030   1302.8514     -5697.5361     -5439.0318     -9231.1591      47801.474      246.76049    
     22040   1299.735      -5697.3918     -5439.5058     -8977.4268      47773.414      246.35255    
     22050   1308.2822     -5699.7821     -5440.2002     -8987.5994      47745.956      245.94119    
     22060   1302.9152     -5699.6287     -5441.1116     -9364.5774      47719.007      245.57154    
     22070   1301.9985     -5700.6086     -5442.2735     -9729.6343      47692.327      245.23981    
     22080   1282.3667     -5698.0411     -5443.6012     -9732.7297      47665.742      244.93154    
     22090   1276.4787     -5698.3052     -5445.0335     -9757.9696      47639.473      244.66235    
     22100   1254.305      -5695.3228     -5446.4507     -9829.1027      47613.679      244.43865    
     22110   1263.1795     -5698.4564     -5447.8235     -10393.734      47588.26       244.25556    
     22120   1255.6778     -5698.27       -5449.1256     -10561.394      47562.993      244.06842    
     22130   1216.6265     -5691.6277     -5450.2316     -10054.427      47537.978      243.85597    
     22140   1211.5505     -5691.5317     -5451.1428     -9672.2213      47513.616      243.62902    
     22150   1216.7673     -5693.2386     -5451.8146     -9287.2002      47489.793      243.42691    
     22160   1249.0516     -5700.2245     -5452.3948     -9322.3853      47466.149      243.26353    
     22170   1245.3148     -5699.9927     -5452.9044     -9325.4367      47442.611      243.12918    
     22180   1242.5006     -5699.9363     -5453.4064     -9571.5528      47419.216      242.99398    
     22190   1245.3693     -5700.9734     -5453.8743     -9364.6102      47395.775      242.87185    
     22200   1268.4702     -5706.041      -5454.3584     -9148.6837      47372.187      242.75895    
     22210   1278.1467     -5708.5272     -5454.9246     -9220.9201      47348.502      242.61064    
     22220   1265.2429     -5706.6614     -5455.6191     -9267.5966      47325.008      242.42758    
     22230   1219.9246     -5698.3649     -5456.3144     -9027.3005      47302.044      242.27076    
     22240   1218.8716     -5698.8215     -5456.9799     -9285.8311      47279.752      242.16652    
     22250   1214.0428     -5698.4271     -5457.5436     -9441.4253      47257.893      242.03257    
     22260   1239.8951     -5704.0792     -5458.0663     -9806.7835      47236.275      241.8406     
     22270   1222.23       -5701.1107     -5458.6028     -9264.5885      47214.588      241.63627    
     22280   1195.0019     -5696.1573     -5459.0518     -8462.0269      47193.062      241.46532    
     22290   1223.4975     -5702.1855     -5459.4261     -8814.2232      47172.001      241.31818    
     22300   1226.9403     -5703.2208     -5459.7783     -9093.2255      47151.219      241.18613    
     22310   1230.0603     -5704.1982     -5460.1367     -9145.7671      47130.61       241.08708    
     22320   1234.4208     -5705.4467     -5460.5199     -9329.6206      47110.345      241.01466    
     22330   1238.0584     -5706.6072     -5460.9587     -9632.782       47090.514      240.94966    
     22340   1252.0871     -5709.8936     -5461.4615     -10006.06       47071.017      240.87893    
     22350   1250.9793     -5710.3088     -5462.0966     -9947.5503      47051.782      240.78107    
     22360   1234.9683     -5707.8809     -5462.8455     -9423.9924      47032.745      240.62526    
     22370   1218.5165     -5705.4093     -5463.6382     -9084.186       47013.914      240.40211    
     22380   1222.7425     -5707.0587     -5464.4491     -9352.1415      46995.345      240.1196     
     22390   1237.2531     -5710.7897     -5465.3009     -9656.5142      46977.04       239.83123    
     22400   1220.9408     -5708.4668     -5466.2147     -9314.1673      46958.979      239.59257    
     22410   1202.4202     -5705.6744     -5467.0971     -8747.8441      46941.598      239.40354    
     22420   1221.4076     -5710.2927     -5467.948      -8646.9736      46925.127      239.23173    
     22430   1234.3145     -5713.7241     -5468.8185     -8768.9608      46909.468      239.08945    
     22440   1221.7656     -5712.1267     -5469.7109     -8602.9214      46894.392      238.94858    
     22450   1204.7332     -5709.6108     -5470.5745     -8145.83        46879.81       238.79232    
     22460   1196.3791     -5708.6803     -5471.3015     -7862.4991      46866.067      238.6808     
     22470   1224.1122     -5714.8561     -5471.9747     -8400.9         46853.539      238.64188    
     22480   1202.7308     -5711.2145     -5472.5755     -8533.7015      46841.903      238.63456    
     22490   1189.3342     -5709.078      -5473.0971     -8787.1417      46830.686      238.65074    
     22500   1216.4288     -5714.892      -5473.5351     -9407.0765      46819.531      238.69085    
     22510   1231.471      -5718.2772     -5473.9357     -9793.5977      46808.196      238.72496    
     22520   1247.2248     -5721.8756     -5474.4083     -9974.8191      46796.705      238.74757    
     22530   1226.1496     -5718.2234     -5474.9378     -9834.5608      46785.088      238.74494    
     22540   1191.8373     -5711.9275     -5475.4499     -9329.6248      46773.502      238.72222    
     22550   1195.0163     -5713.0034     -5475.8951     -8999.3652      46762.234      238.72259    
     22560   1207.3456     -5715.8207     -5476.266      -8670.7327      46751.272      238.77457    
     22570   1219.9348     -5718.6958     -5476.6433     -8441.2062      46740.634      238.87016    
     22580   1236.1789     -5722.3652     -5477.0896     -8447.6125      46730.558      238.98814    
     22590   1211.6031     -5717.9963     -5477.5969     -8416.742       46721.058      239.09179    
     22600   1208.7283     -5717.9663     -5478.1373     -9080.1504      46712.143      239.13122    
     22610   1229.0764     -5722.6018     -5478.7355     -10023.697      46703.442      239.09241    
     22620   1204.5592     -5718.4025     -5479.4007     -10097.029      46694.348      238.99756    
     22630   1175.2732     -5713.2437     -5480.0526     -9980.695       46684.897      238.87435    
     22640   1173.2771     -5713.437      -5480.642      -9997.3117      46675.282      238.7597     
     22650   1186.5151     -5716.5996     -5481.178      -10095.875      46665.421      238.65969    
     22660   1181.4751     -5716.095      -5481.6734     -9841.9841      46655.163      238.57997    
     22670   1173.6964     -5715.0311     -5482.153      -9578.6205      46644.422      238.52373    
     22680   1190.6371     -5718.839      -5482.5995     -9882.8478      46632.985      238.45658    
     22690   1192.2551     -5719.6428     -5483.0823     -9862.7281      46620.227      238.35887    
     22700   1202.6971     -5722.2341     -5483.6018     -9629.5577      46606.16       238.24773    
     22710   1208.2454     -5723.9495     -5484.2163     -9225.9816      46591.444      238.13826    
     22720   1179.6615     -5718.9214     -5484.8597     -8888.7811      46576.782      238.04015    
     22730   1181.9057     -5720.0599     -5485.5529     -9490.3595      46562.596      237.94452    
     22740   1189.1623     -5722.1957     -5486.2488     -9956.0054      46548.66       237.83623    
     22750   1174.1684     -5719.9153     -5486.9434     -9921.1634      46534.844      237.71218    
     22760   1164.5823     -5718.7134     -5487.6436     -9863.0932      46521.433      237.57577    
     22770   1162.8703     -5719.028      -5488.2978     -9971.4121      46508.596      237.4255     
     22780   1154.2959     -5717.9231     -5488.8943     -9792.2248      46495.95       237.27367    
     22790   1165.3705     -5720.6682     -5489.442      -9582.1145      46483.452      237.15729    
     22800   1166.912      -5721.4779     -5489.9459     -9567.1413      46471.483      237.06031    
     22810   1161.9425     -5720.981      -5490.4349     -9713.5414      46460.084      236.93646    
     22820   1156.9074     -5720.4463     -5490.8993     -9939.9318      46448.805      236.79769    
     22830   1158.1137     -5721.1201     -5491.3338     -9993.0917      46437.253      236.68603    
     22840   1147.1502     -5719.322      -5491.711      -9978.3023      46425.585      236.61829    
     22850   1149.0519     -5720.068      -5492.0796     -10133.433      46413.937      236.57531    
     22860   1132.801      -5717.1218     -5492.3579     -10093.777      46402.091      236.50898    
     22870   1152.1465     -5721.2021     -5492.5998     -10324.79       46389.841      236.40402    
     22880   1164.7781     -5723.9147     -5492.806      -10277.373      46376.873      236.27394    
     22890   1160.2737     -5723.2346     -5493.0197     -9898.0752      46363.203      236.11722    
     22900   1154.0838     -5722.2426     -5493.2558     -9778.7164      46349.162      235.93992    
     22910   1152.3296     -5722.144      -5493.5054     -9960.6019      46334.804      235.75621    
     22920   1150.1817     -5721.9727     -5493.7601     -10152.195      46319.994      235.56699    
     22930   1143.2657     -5720.8506     -5494.0103     -9909.1588      46304.62       235.35752    
     22940   1135.706      -5719.5487     -5494.2084     -9267.0688      46289.05       235.08758    
     22950   1166.371      -5725.8417     -5494.417      -9225.9241      46273.732      234.7485     
     22960   1161.6738     -5725.1785     -5494.6857     -9348.669       46258.489      234.40594    
     22970   1165.0463     -5726.2108     -5495.0489     -9752.0508      46242.882      234.10606    
     22980   1158.4861     -5725.3601     -5495.4999     -10071.593      46226.659      233.83867    
     22990   1130.4158     -5720.3002     -5496.0095     -9999.5684      46209.785      233.58015    
     23000   1132.3591     -5721.2164     -5496.5402     -10033.428      46192.613      233.31778    
     23010   1160.6484     -5727.3984     -5497.1092     -10357.625      46175.228      233.0783     
     23020   1171.0668     -5730.2139     -5497.8574     -10416.25       46157.373      232.87063    
     23030   1162.9282     -5729.5913     -5498.8497     -9889.6786      46139.025      232.67695    
     23040   1173.3145     -5732.967      -5500.1646     -9582.8088      46120.411      232.50057    
     23050   1151.6932     -5730.3428     -5501.8303     -9125.7279      46101.86       232.35365    
     23060   1154.1634     -5732.77       -5503.7675     -8962.7756      46083.433      232.24008    
     23070   1160.1798     -5736.0908     -5505.8945     -8937.3451      46065.174      232.13617    
     23080   1125.2909     -5731.1613     -5507.8874     -8618.2639      46047.438      232.03534    
     23090   1114.1884     -5730.5552     -5509.4842     -8869.7718      46030.554      231.92949    
     23100   1110.7414     -5731.0155     -5510.6285     -9320.1454      46014.728      231.81315    
     23110   1093.4032     -5728.3191     -5511.3722     -9756.2266      45999.948      231.68727    
     23120   1085.4015     -5727.1816     -5511.8224     -9977.2324      45985.792      231.55808    
     23130   1072.9178     -5724.9221     -5512.0399     -9818.4801      45971.711      231.42642    
     23140   1087.4926     -5727.8643     -5512.0901     -9608.4098      45957.541      231.25844    
     23150   1095.2011     -5729.3031     -5511.9995     -9262.8084      45943.385      231.026      
     23160   1097.4949     -5729.5767     -5511.8179     -8901.6136      45929.659      230.75953    
     23170   1118.4448     -5733.5024     -5511.587      -9057.1533      45916.657      230.50872    
     23180   1118.8132     -5733.3435     -5511.3549     -9207.1997      45904.082      230.30442    
     23190   1095.3207     -5728.4626     -5511.1353     -9095.4467      45891.598      230.15843    
     23200   1093.7825     -5727.8752     -5510.8531     -9160.4018      45879.142      230.03096    
     23210   1103.4186     -5729.4521     -5510.5181     -9483.6712      45866.552      229.86462    
     23220   1094.758      -5727.3362     -5510.1205     -9818.4056      45853.544      229.65228    
     23230   1102.8936     -5728.5095     -5509.6796     -10117.692      45840.129      229.42957    
     23240   1082.9224     -5724.0454     -5509.1781     -9827.3107      45826.512      229.25243    
     23250   1086.4153     -5724.145      -5508.5847     -9839.6486      45813.068      229.15353    
     23260   1114.2112     -5729.0087     -5507.9332     -10421.963      45799.712      229.09318    
     23270   1093.4342     -5724.2036     -5507.2506     -10651.872      45785.869      229.01694    
     23280   1105.272      -5725.8772     -5506.5754     -11031.807      45771.28       228.91261    
     23290   1130.3565     -5730.167      -5505.8881     -11200.215      45755.711      228.76436    
     23300   1138.1685     -5731.1019     -5505.273      -10475.639      45739.044      228.57152    
     23310   1143.2405     -5731.6139     -5504.7786     -9871.1166      45721.925      228.38064    
     23320   1125.3559     -5727.6998     -5504.4131     -9765.7485      45705.201      228.22826    
     23330   1110.4769     -5724.4863     -5504.1518     -10059.077      45688.939      228.12325    
     23340   1123.2277     -5726.8114     -5503.9469     -10492.442      45672.648      228.05276    
     23350   1125.3203     -5727.0868     -5503.8071     -10364.78       45655.885      227.97639    
     23360   1149.0364     -5731.7754     -5503.7901     -10362.845      45638.467      227.86947    
     23370   1148.8639     -5731.8926     -5503.9415     -10080.332      45620.376      227.7426     
     23380   1123.1378     -5727.126      -5504.2794     -9454.3788      45601.862      227.63962    
     23390   1126.1168     -5728.1664     -5504.7287     -9250.117       45583.246      227.52671    
     23400   1140.1543     -5731.5707     -5505.3477     -9255.995       45564.717      227.34726    
     23410   1135.4003     -5731.4125     -5506.1328     -9324.5519      45546.296      227.11892    
     23420   1145.0514     -5734.3173     -5507.1227     -9411.0737      45527.894      226.89586    
     23430   1141.8178     -5734.8896     -5508.3367     -9227.9998      45509.328      226.70824    
     23440   1099.6459     -5727.8276     -5509.6421     -8749.9186      45490.631      226.53935    
     23450   1113.1856     -5731.8109     -5510.939      -9407.9543      45472.107      226.34945    
     23460   1116.0369     -5733.6295     -5512.1918     -10029.269      45453.57       226.12553    
     23470   1082.131      -5728.047      -5513.3367     -9784.0783      45435.002      225.89005    
     23480   1085.7626     -5729.7543     -5514.3234     -9777.7937      45416.566      225.65513    
     23490   1084.6014     -5730.3618     -5515.1614     -9961.4806      45397.984      225.4475     
     23500   1071.6265     -5728.4703     -5515.8443     -9986.2772      45378.922      225.25191    
     23510   1102.3568     -5735.1709     -5516.4475     -10445.076      45359.369      225.01197    
     23520   1108.5218     -5736.9734     -5517.0268     -10541.845      45339.436      224.72446    
     23530   1110.5768     -5738.0134     -5517.6591     -10329.993      45319.102      224.44556    
     23540   1085.989      -5733.7771     -5518.3013     -9970.8257      45298.42       224.22597    
     23550   1092.6771     -5735.729      -5518.9262     -9846.6815      45277.627      224.04313    
     23560   1102.6454     -5738.3452     -5519.5646     -9744.15        45257.07       223.84066    
     23570   1107.3313     -5739.9481     -5520.2377     -9564.1816      45236.843      223.59565    
     23580   1118.9065     -5743.0159     -5521.0088     -9567.1175      45216.86       223.31375    
     23590   1096.7113     -5739.4772     -5521.8739     -9591.1686      45196.971      223.00625    
     23600   1080.3001     -5737.0964     -5522.7494     -9827.9368      45177.161      222.69728    
     23610   1065.3537     -5734.9515     -5523.5701     -10055.01       45157.522      222.42162    
     23620   1057.9099     -5734.2286     -5524.3242     -10064.239      45137.938      222.18823    
     23630   1068.9773     -5737.1118     -5525.0114     -9987.7478      45118.42       221.99531    
     23640   1070.0145     -5737.9402     -5525.634      -9964.5986      45099.213      221.8333     
     23650   1095.9191     -5743.7274     -5526.2814     -10460.834      45080.416      221.69401    
     23660   1076.9003     -5740.641      -5526.9685     -10498.001      45061.66       221.56145    
     23670   1057.5178     -5737.4843     -5527.6576     -10519.304      45042.634      221.41508    
     23680   1080.3043     -5742.6874     -5528.3395     -10826.678      45023.065      221.22726    
     23690   1100.0077     -5747.3273     -5529.07       -11037.695      45002.577      221.00214    
     23700   1083.6142     -5744.8938     -5529.8892     -10556.734      44980.996      220.77407    
     23710   1058.3663     -5740.7117     -5530.7166     -9812.6871      44958.562      220.54277    
     23720   1059.9865     -5741.8169     -5531.5004     -9708.7782      44935.806      220.27168    
     23730   1058.7025     -5742.2988     -5532.2371     -9791.2026      44913.028      219.96507    
     23740   1057.9183     -5742.8324     -5532.9262     -9690.0624      44890.356      219.63634    
     23750   1057.2421     -5743.3389     -5533.5669     -9312.7437      44868.081      219.31946    
     23760   1057.053      -5743.9241     -5534.1896     -9006.3744      44846.591      219.06723    
     23770   1046.0095     -5742.3032     -5534.76       -9052.4628      44826.209      218.86911    
     23780   1049.379      -5743.5363     -5535.3244     -9552.3126      44806.867      218.6779     
     23790   1010.6514     -5736.3256     -5535.7978     -9466.4979      44788.061      218.48315    
     23800   1010.0996     -5736.5629     -5536.1446     -9976.7289      44769.783      218.28596    
     23810   1029.3788     -5740.6271     -5536.3836     -10563.331      44751.961      218.06847    
     23820   1024.9351     -5739.9163     -5536.5544     -10615.234      44734.361      217.85508    
     23830   992.56451     -5733.594      -5536.655      -10077.871      44716.762      217.64649    
     23840   1008.0534     -5736.6416     -5536.6294     -10333.69       44699.19       217.39212    
     23850   1058.9828     -5746.6296     -5536.5123     -10840.122      44681.532      217.10635    
     23860   1054.2809     -5745.6119     -5536.4275     -10482.161      44663.556      216.82675    
     23870   1039.6751     -5742.6973     -5536.4108     -10137.381      44645.224      216.56576    
     23880   1053.2181     -5745.4094     -5536.4359     -10619.022      44626.656      216.34619    
     23890   1051.3153     -5745.0956     -5536.4996     -11127.687      44607.835      216.15603    
     23900   1059.7916     -5746.9292     -5536.6514     -11304.727      44588.616      215.96555    
     23910   1058.4453     -5746.9036     -5536.8929     -11086.182      44568.891      215.77361    
     23920   1058.8867     -5747.3463     -5537.248      -10946.88       44548.729      215.5881     
     23930   1072.6553     -5750.5774     -5537.7472     -11043.817      44528.175      215.40143    
     23940   1084.8017     -5753.6949     -5538.4548     -11061.316      44506.963      215.19308    
     23950   1062.8445     -5750.2863     -5539.4027     -10327.892      44484.825      214.9632     
     23960   1031.3094     -5745.1194     -5540.4928     -9365.6248      44461.873      214.70149    
     23970   1039.7257     -5747.9257     -5541.6292     -9461.4446      44438.535      214.40335    
     23980   1049.599      -5751.0813     -5542.8258     -9899.1261      44415.063      214.0962     
     23990   1021.7739     -5746.7542     -5544.0196     -9789.3143      44391.556      213.79682    
     24000   996.51112     -5742.761      -5545.0389     -9508.313       44368.318      213.51535    
     24010   1021.6119     -5748.5892     -5545.8868     -9635.7044      44345.728      213.25617    
     24020   1031.4316     -5751.2758     -5546.625      -9632.8836      44323.604      213.01168    
     24030   1014.981      -5748.6284     -5547.2417     -9346.7052      44301.634      212.77187    
     24040   1018.0302     -5749.7388     -5547.747      -9470.45        44280.111      212.53134    
     24050   1029.1076     -5752.3477     -5548.158      -9608.8411      44259.363      212.29888    
     24060   1029.2249     -5752.7527     -5548.5397     -9476.2992      44239.463      212.08366    
     24070   1011.3536     -5749.5593     -5548.8923     -9148.0005      44220.293      211.88691    
     24080   1025.6032     -5752.7091     -5549.2147     -9370.7823      44201.699      211.68534    
     24090   1033.9144     -5754.6731     -5549.5297     -9848.8815      44183.419      211.46244    
     24100   1046.833      -5757.6449     -5549.9382     -10396.804      44165.104      211.21931    
     24110   1015.0211     -5751.783      -5550.3882     -10229.105      44146.277      210.98096    
     24120   1007.8142     -5750.8151     -5550.8503     -10273.861      44126.93       210.76133    
     24130   1015.3408     -5752.7465     -5551.2883     -10472.411      44107.315      210.5564     
     24140   1012.8076     -5752.6754     -5551.7199     -10164.44       44087.608      210.36832    
     24150   1013.8467     -5753.3218     -5552.1601     -9882.494       44068.044      210.22341    
     24160   1041.2676     -5759.2581     -5552.6557     -9801.2373      44048.552      210.10919    
     24170   1034.2008     -5758.4531     -5553.2529     -9370.6797      44029.043      210.01234    
     24180   1021.4133     -5756.5884     -5553.9254     -9268.1534      44009.813      209.91571    
     24190   1050.0238     -5763.0322     -5554.6925     -9638.1727      43991.114      209.78474    
     24200   1050.4044     -5764.0074     -5555.5922     -9639.1473      43972.883      209.60749    
     24210   1048.235      -5764.6216     -5556.6367     -9405.079       43955.057      209.4289     
     24220   1029.4059     -5761.9911     -5557.7422     -9105.3195      43937.86       209.27465    
     24230   1026.3235     -5762.4895     -5558.8522     -9151.117       43921.41       209.14417    
     24240   1027.1113     -5763.7094     -5559.9157     -9215.3645      43905.516      209.04386    
     24250   1023.5778     -5764.0356     -5560.9432     -9320.0258      43890.034      208.98642    
     24260   1016.3432     -5763.5519     -5561.8948     -9351.6438      43874.937      208.94996    
     24270   1017.3086     -5764.6498     -5562.8012     -9713.7465      43860.032      208.8945     
     24280   989.96286     -5760.0428     -5563.62       -9706.5992      43845.014      208.80627    
     24290   992.1853      -5761.2037     -5564.34       -10047.621      43829.942      208.69583    
     24300   988.38283     -5761.0928     -5564.9835     -10377.588      43814.686      208.59578    
     24310   968.78275     -5757.7705     -5565.5501     -10430.915      43798.956      208.53748    
     24320   966.67517     -5757.8309     -5566.0287     -10597.546      43782.59       208.51678    
     24330   971.20313     -5759.1204     -5566.4197     -10632.661      43765.67       208.51752    
     24340   960.67342     -5757.3424     -5566.731      -10462.208      43748.331      208.50405    
     24350   961.60447     -5757.7815     -5566.9854     -10387.169      43730.624      208.45088    
     24360   974.72449     -5760.5779     -5567.1786     -10296.128      43712.661      208.32835    
     24370   982.69786     -5762.3419     -5567.3606     -10093.928      43694.675      208.13201    
     24380   979.68088     -5761.9387     -5567.556      -9736.5538      43676.792      207.90613    
     24390   989.82436     -5764.1796     -5567.7842     -9741.8181      43659.071      207.71596    
     24400   998.39632     -5766.1703     -5568.0742     -9974.2995      43641.304      207.56021    
     24410   991.99628     -5765.2683     -5568.442      -10107.814      43623.33       207.38731    
     24420   1003.843      -5768.0892     -5568.9124     -10431.729      43605.304      207.17342    
     24430   1003.6487     -5768.6473     -5569.5091     -10389.56       43587.193      206.94663    
     24440   992.19775     -5767.1052     -5570.239      -10337.556      43568.743      206.7428     
     24450   984.22161     -5766.3274     -5571.0437     -10667.792      43549.649      206.56625    
     24460   980.30773     -5766.4124     -5571.9053     -10962.54       43529.705      206.41123    
     24470   983.17635     -5767.8772     -5572.8009     -11103.326      43508.78       206.27656    
     24480   984.04208     -5768.9755     -5573.7274     -11181.942      43486.825      206.11225    
     24490   969.76053     -5767.0818     -5574.6674     -11176.307      43463.858      205.88825    
     24500   950.38155     -5764.106      -5575.5366     -11139.644      43439.874      205.64294    
     24510   941.59678     -5763.1007     -5576.2744     -11076.834      43415.125      205.39484    
     24520   944.2798      -5764.2422     -5576.8836     -11116.403      43390.182      205.13996    
     24530   949.65032     -5765.8066     -5577.3824     -11001.828      43365.25       204.86967    
     24540   951.37801     -5766.5881     -5577.8211     -10805.407      43340.308      204.57796    
     24550   956.07503     -5767.9142     -5578.2152     -10418.775      43315.365      204.27435    
     24560   947.27617     -5766.5127     -5578.5595     -10113.917      43290.581      203.97194    
     24570   967.097       -5770.7769     -5578.891      -10195.94       43266.135      203.67759    
     24580   974.033       -5772.5219     -5579.2598     -10209.854      43241.905      203.38663    
     24590   948.47756     -5767.8545     -5579.663      -9755.7007      43217.813      203.12236    
     24600   956.38562     -5769.8101     -5580.0495     -9967.5041      43193.981      202.90534    
     24610   973.39064     -5773.5978     -5580.4631     -10479.073      43170.332      202.71125    
     24620   957.66818     -5770.9387     -5580.9236     -10637.686      43146.666      202.50953    
     24630   954.37749     -5770.7933     -5581.4312     -11058.751      43122.774      202.28279    
     24640   964.8758      -5773.407      -5581.9618     -11608.237      43098.335      202.05705    
     24650   973.90007     -5775.7928     -5582.5571     -11815.138      43073.103      201.85651    
     24660   974.64647     -5776.6238     -5583.24       -11467.434      43047.018      201.66455    
     24670   944.81607     -5771.4382     -5583.9732     -10678.641      43020.269      201.45907    
     24680   928.00364     -5768.7737     -5584.6445     -10308.186      42993.273      201.22886    
     24690   951.02488     -5773.964      -5585.267      -10613.41       42966.314      200.97949    
     24700   953.7467      -5775.1198     -5585.8827     -10797.444      42939.219      200.73323    
     24710   959.10788     -5776.8098     -5586.5091     -11032.608      42911.9        200.49489    
     24720   961.9079      -5778.0187     -5587.1624     -10860.286      42884.474      200.25465    
     24730   945.44635     -5775.394      -5587.8039     -10352.943      42857.193      200.00873    
     24740   951.35289     -5777.1958     -5588.4338     -10245.859      42830.293      199.75454    
     24750   942.74618     -5776.0924     -5589.0381     -10028.012      42803.572      199.47269    
     24760   948.41001     -5777.7924     -5589.6142     -9917.2194      42776.845      199.17381    
     24770   944.71099     -5777.625      -5590.1808     -9627.6851      42750.186      198.90023    
     24780   925.2411      -5774.2639     -5590.6828     -9287.8873      42723.874      198.64913    
     24790   930.41143     -5775.7357     -5591.1288     -9633.5408      42698.251      198.40539    
     24800   924.25138     -5774.9011     -5591.5164     -9936.3789      42673.339      198.19153    
     24810   914.17747     -5773.2422     -5591.8563     -10027.938      42649.024      198.01671    
     24820   917.87315     -5774.2562     -5592.137      -10183.476      42625.295      197.86629    
     24830   937.39559     -5778.386      -5592.3933     -10268.803      42602.055      197.73365    
     24840   933.90813     -5777.9773     -5592.6765     -10105.552      42579.069      197.58686    
     24850   920.07061     -5775.535      -5592.9798     -9926.7445      42556.234      197.38205    
     24860   927.08635     -5777.2152     -5593.268      -10153.363      42533.721      197.11361    
     24870   929.66553     -5778.0443     -5593.5854     -10440.677      42511.394      196.81011    
     24880   928.19811     -5778.0967     -5593.9289     -10373.274      42488.838      196.5032     
     24890   948.17388     -5782.4729     -5594.3416     -10675.094      42465.754      196.21363    
     24900   947.00055     -5782.7274     -5594.8289     -10739.03       42442.203      195.97193    
     24910   953.9637      -5784.7017     -5595.4216     -10884.662      42418.452      195.76402    
     24920   970.98634     -5788.8281     -5596.1705     -11154.144      42394.535      195.54884    
     24930   953.86995     -5786.3276     -5597.0662     -10883.638      42370.32       195.30323    
     24940   936.97013     -5783.933      -5598.0247     -10409.355      42345.973      195.02063    
     24950   933.41646     -5784.1831     -5598.9799     -10198.69       42321.741      194.69724    
     24960   922.40111     -5782.8889     -5599.8713     -9930.0882      42297.82       194.35267    
     24970   915.46209     -5782.3162     -5600.6754     -9651.201       42274.444      194.0283     
     24980   915.49313     -5783.0365     -5601.3895     -9386.4542      42251.739      193.75199    
     24990   895.72098     -5779.7113     -5601.9874     -8642.6183      42229.976      193.52486    
     25000   893.56552     -5779.756      -5602.4598     -8343.5093      42209.57       193.3391     
     25010   915.17655     -5784.4446     -5602.8604     -8622.5254      42190.578      193.19736    
     25020   938.18959     -5789.4236     -5603.2733     -8944.9096      42172.611      193.0899     
     25030   949.9069      -5792.2581     -5603.7829     -9060.5565      42155.282      192.97751    
     25040   950.10335     -5792.9344     -5604.4203     -9066.3485      42138.617      192.86361    
     25050   938.22605     -5791.3096     -5605.1521     -9173.1677      42122.753      192.79133    
     25060   945.85895     -5793.6559     -5605.9839     -9762.2114      42107.465      192.76787    
     25070   927.4799      -5790.9177     -5606.8924     -9903.6595      42092.392      192.77045    
     25080   905.81466     -5787.509      -5607.7824     -9844.6136      42077.36       192.76076    
     25090   915.04914     -5790.1948     -5608.636      -10009.162      42062.279      192.71791    
     25100   894.83496     -5786.9854     -5609.4373     -9940.5779      42047.145      192.66418    
     25110   885.81997     -5785.9109     -5610.1515     -10405.252      42031.845      192.62949    
     25120   895.45746     -5788.4692     -5610.7977     -11047.44       42016.057      192.61942    
     25130   882.23591     -5786.4426     -5611.3944     -10969.762      41999.655      192.6032     
     25140   870.3397      -5784.6163     -5611.9285     -10483.005      41982.754      192.53207    
     25150   869.89801     -5784.9734     -5612.3732     -9949.2562      41965.404      192.37854    
     25160   881.72733     -5787.6973     -5612.7499     -9594.7911      41947.881      192.15477    
     25170   889.42205     -5789.5737     -5613.0997     -9562.6238      41930.521      191.9055     
     25180   884.43807     -5788.9592     -5613.474      -9806.8301      41913.483      191.65381    
     25190   877.26355     -5787.9144     -5613.8528     -10105.854      41896.48       191.40264    
     25200   889.60735     -5790.7511     -5614.2403     -10772.281      41878.995      191.17538    
     25210   894.06042     -5792.0684     -5614.674      -11089.851      41860.743      190.98604    
     25220   884.76114     -5790.7053     -5615.156      -10980.479      41841.676      190.81507    
     25230   878.5917      -5789.9952     -5615.6701     -10725.485      41821.882      190.63793    
     25240   876.92725     -5790.1846     -5616.1896     -10532.543      41801.479      190.44151    
     25250   882.36044     -5791.7985     -5616.7255     -10493.356      41780.589      190.22988    
     25260   867.77826     -5789.4492     -5617.2696     -10149.068      41759.396      190.02444    
     25270   862.02563     -5788.8274     -5617.7892     -10071.212      41738.256      189.84404    
     25280   850.77839     -5787.0564     -5618.2498     -9929.878       41717.529      189.67536    
     25290   856.86182     -5788.682      -5618.6683     -9697.3948      41697.417      189.49606    
     25300   841.58377     -5786.009      -5619.0268     -9105.2251      41678.126      189.2931     
     25310   834.40407     -5784.8503     -5619.2926     -9063.0227      41659.956      189.07743    
     25320   855.99582     -5789.3368     -5619.495      -9765.0129      41642.827      188.88802    
     25330   867.52568     -5791.8149     -5619.6854     -10408.663      41626.213      188.74079    
     25340   860.043       -5790.538      -5619.8931     -10394.351      41609.595      188.62115    
     25350   858.98381     -5790.5574     -5620.1227     -10168.665      41592.757      188.51832    
     25360   855.06253     -5790.0037     -5620.347      -10085.567      41575.805      188.41454    
     25370   858.43035     -5790.8983     -5620.5734     -10197.385      41558.898      188.30262    
     25380   862.53789     -5791.9611     -5620.8212     -10205.608      41542.074      188.17805    
     25390   858.8978      -5791.5117     -5621.0941     -10264.375      41525.303      188.02789    
     25400   866.70586     -5793.3801     -5621.4133     -10489.304      41508.593      187.84508    
     25410   865.28545     -5793.49       -5621.805      -10724.896      41491.822      187.61755    
     25420   857.7401      -5792.4507     -5622.2628     -10814.088      41474.764      187.38025    
     25430   866.59508     -5794.7468     -5622.802      -11174.612      41457.06       187.16653    
     25440   868.78027     -5795.8191     -5623.4406     -11073.368      41438.376      186.97962    
     25450   872.96368     -5797.3901     -5624.1816     -10610.37       41418.891      186.81729    
     25460   886.68895     -5800.9944     -5625.0626     -10221.724      41399.033      186.66266    
     25470   888.10761     -5802.3025     -5626.0892     -9954.9084      41379.056      186.48867    
     25480   892.75743     -5804.3979     -5627.2621     -9922.0319      41358.95       186.28201    
     25490   864.81796     -5800.0547     -5628.4624     -9650.0067      41338.634      186.05544    
     25500   854.5389      -5799.0817     -5629.5289     -9573.3205      41318.159      185.82877    
     25510   866.50461     -5802.3662     -5630.4393     -9844.5016      41297.424      185.61289    
     25520   858.6085      -5801.5701     -5631.2098     -9843.6978      41276.304      185.41017    
     25530   843.97946     -5799.2981     -5631.8405     -9671.0865      41254.861      185.2015     
     25540   829.19357     -5796.8577     -5632.3338     -9596.0922      41233.182      184.96062    
     25550   829.00931     -5797.1968     -5632.7095     -9640.3265      41211.518      184.71108    
     25560   836.99071     -5799.0813     -5633.0104     -9846.3858      41190.009      184.49772    
     25570   831.776       -5798.3291     -5633.2928     -9816.418       41168.419      184.30978    
     25580   829.18467     -5798.0786     -5633.5565     -9772.3021      41146.523      184.10844    
     25590   824.71246     -5797.4385     -5633.8037     -9663.1433      41124.244      183.88854    
     25600   821.08764     -5796.9247     -5634.0091     -9573.0632      41101.768      183.66148    
     25610   844.55814     -5801.7693     -5634.1969     -9859.1125      41079.334      183.43878    
     25620   861.063       -5805.2952     -5634.4479     -10018.312      41056.947      183.21595    
     25630   855.0018      -5804.4532     -5634.8086     -9961.4145      41034.504      183.00174    
     25640   845.62085     -5803.0558     -5635.2725     -9809.9819      41011.96       182.82086    
     25650   839.94832     -5802.4673     -5635.8095     -9652.4369      40989.247      182.65061    
     25660   843.94598     -5803.8516     -5636.4006     -9758.3124      40966.354      182.43688    
     25670   844.79974     -5804.6862     -5637.0658     -10049.145      40943.255      182.15607    
     25680   829.82433     -5802.4211     -5637.7721     -10131.27       40920.089      181.85103    
     25690   823.1524      -5801.8015     -5638.4763     -10250.014      40897.16       181.57937    
     25700   835.32708     -5804.9337     -5639.1929     -10485.174      40874.423      181.36518    
     25710   835.06611     -5805.6138     -5639.9247     -10345.907      40851.619      181.20964    
     25720   844.77582     -5808.3124     -5640.6968     -10165.023      40828.686      181.09565    
     25730   834.68482     -5807.1061     -5641.4927     -9764.1899      40805.733      180.9963     
     25740   829.7601      -5806.9083     -5642.272      -9617.2981      40782.834      180.88174    
     25750   840.00329     -5809.7227     -5643.054      -9767.6378      40759.974      180.71683    
     25760   832.65864     -5809.0474     -5643.836      -9785.9606      40737.179      180.48982    
     25770   829.608       -5809.2052     -5644.5991     -9859.5551      40714.59       180.2122     
     25780   826.86364     -5809.4092     -5645.3476     -9992.9362      40692.114      179.91287    
     25790   815.52276     -5807.866      -5646.0546     -9879.4138      40669.58       179.62807    
     25800   813.60526     -5808.1501     -5646.7192     -9722.3282      40646.836      179.38756    
     25810   814.82727     -5809.0122     -5647.3388     -9413.6726      40623.927      179.19567    
     25820   819.11897     -5810.4532     -5647.9283     -9301.9275      40601.047      179.01989    
     25830   823.05011     -5811.8137     -5648.5088     -9226.6037      40578.475      178.83328    
     25840   823.08038     -5812.4183     -5649.1074     -9075.3052      40556.467      178.6426     
     25850   816.06018     -5811.6361     -5649.7181     -9190.3532      40535.135      178.44668    
     25860   817.42437     -5812.5326     -5650.3439     -9602.8018      40514.373      178.24188    
     25870   810.91685     -5811.8752     -5650.9777     -10031.445      40494.048      178.02935    
     25880   803.15192     -5810.959      -5651.6021     -10217.886      40474.099      177.80633    
     25890   802.71348     -5811.4746     -5652.2048     -10215.618      40454.518      177.57555    
     25900   803.12662     -5812.1375     -5652.7856     -10185.858      40435.227      177.35117    
     25910   803.26102     -5812.7388     -5653.3603     -10023.288      40416.029      177.15071    
     25920   804.05127     -5813.4723     -5653.937      -9863.8338      40396.81       176.96849    
     25930   806.65993     -5814.5698     -5654.5169     -9764.0192      40377.574      176.78043    
     25940   817.10018     -5817.2476     -5655.1232     -9818.5387      40358.384      176.56362    
     25950   820.31541     -5818.5483     -5655.786      -9930.3481      40339.363      176.33049    
     25960   802.67224     -5815.738      -5656.4764     -9983.4754      40320.708      176.10771    
     25970   806.72869     -5817.2498     -5657.1832     -10425.212      40302.509      175.92121    
     25980   796.90199     -5816.0123     -5657.8956     -10658.803      40284.474      175.76252    
     25990   791.11132     -5815.5502     -5658.5824     -10843.548      40266.134      175.58229    
     26000   793.7021      -5816.7235     -5659.2416     -10999.915      40247.1        175.36404    
     26010   785.96725     -5815.8149     -5659.8678     -10783.749      40227.366      175.13003    
     26020   782.05275     -5815.6219     -5660.4515     -10297.34       40207.214      174.89452    
     26030   775.22655     -5814.8002     -5660.9841     -9798.2872      40186.993      174.65664    
     26040   763.95675     -5813.0215     -5661.4415     -9323.0536      40166.975      174.40726    
     26050   762.39652     -5813.1105     -5661.8401     -9173.1828      40147.312      174.15348    
     26060   748.97695     -5810.7521     -5662.1443     -9047.1288      40128.098      173.93337    
     26070   759.91662     -5813.1533     -5662.375      -9311.4026      40109.431      173.75538    
     26080   775.2413      -5816.3877     -5662.5687     -9529.538       40091.259      173.59864    
     26090   772.05462     -5815.9332     -5662.7465     -9528.5788      40073.493      173.42629    
     26100   795.44474     -5820.7932     -5662.9656     -9942.0439      40055.987      173.21777    
     26110   800.87809     -5822.1826     -5663.2769     -10112.434      40038.478      173.01818    
     26120   794.05981     -5821.2393     -5663.6864     -10217.699      40020.871      172.86445    
     26130   809.21303     -5824.7732     -5664.2137     -10759.392      40003.084      172.75301    
     26140   809.39547     -5825.4891     -5664.8935     -10883.5        39984.856      172.64477    
     26150   789.46808     -5822.3273     -5665.6855     -10435.918      39965.989      172.50456    
     26160   781.51947     -5821.5743     -5666.5097     -9863.1295      39946.569      172.33026    
     26170   787.52891     -5823.5848     -5667.3278     -9489.5949      39927.026      172.13311    
     26180   785.20414     -5823.9291     -5668.1333     -9298.2267      39907.794      171.89767    
     26190   782.84145     -5824.2422     -5668.9152     -9292.3697      39889.042      171.60948    
     26200   787.95513     -5826.0095     -5669.6679     -9347.5458      39870.705      171.30576    
     26210   776.2342      -5824.4052     -5670.3892     -9066.1972      39852.775      171.0208     
     26220   771.3606      -5824.088      -5671.039      -8928.3001      39835.256      170.76145    
     26230   780.6435      -5826.5446     -5671.6537     -9111.3175      39818.005      170.53725    
     26240   778.76067     -5826.7771     -5672.2598     -9219.7078      39800.842      170.33435    
     26250   781.32111     -5827.9014     -5672.8761     -9480.1378      39783.653      170.14882    
     26260   780.3919      -5828.3485     -5673.5076     -9562.8423      39766.236      169.97982    
     26270   783.71492     -5829.6844     -5674.1842     -9454.4491      39748.512      169.80532    
     26280   758.07637     -5825.2679     -5674.8547     -8736.2701      39730.674      169.61596    
     26290   752.1196      -5824.7106     -5675.4793     -8442.4049      39713.081      169.41318    
     26300   762.75915     -5827.4073     -5676.065      -8668.1372      39695.84       169.19917    
     26310   765.91572     -5828.6294     -5676.6607     -9051.2552      39678.659      168.97019    
     26320   771.73255     -5830.4147     -5677.2919     -9291.1743      39661.24       168.72989    
     26330   758.90122     -5828.5199     -5677.943      -9088.9212      39643.637      168.48782    
     26340   748.91472     -5827.1741     -5678.5787     -9119.9061      39626.266      168.25769    
     26350   749.79328     -5827.9578     -5679.188      -9447.0545      39609.263      168.04604    
     26360   753.62827     -5829.3311     -5679.8004     -9683.966       39592.349      167.83566    
     26370   739.1731      -5827.051      -5680.3885     -9619.2781      39575.243      167.61791    
     26380   753.70457     -5830.5125     -5680.9667     -9998.9406      39557.973      167.39055    
     26390   765.41407     -5833.4326     -5681.5635     -10352.659      39540.573      167.1584     
     26400   770.31457     -5835.0751     -5682.2336     -10694.243      39522.848      166.93152    
     26410   755.74207     -5832.9265     -5682.9765     -10460.131      39504.516      166.70999    
     26420   734.75383     -5829.4871     -5683.7014     -9770.9581      39485.536      166.48593    
     26430   733.50331     -5829.902      -5684.3644     -9320.9536      39466.193      166.25656    
     26440   732.05457     -5830.2188     -5684.9686     -9161.0146      39446.862      166.0253     
     26450   729.5972      -5830.285      -5685.5225     -9331.4261      39427.795      165.81217    
     26460   736.13466     -5832.1113     -5686.0517     -9631.8632      39409.019      165.62995    
     26470   733.02683     -5832.0143     -5686.5713     -9811.1471      39390.261      165.46472    
     26480   725.44296     -5831.0153     -5687.077      -9974.3361      39371.259      165.28201    
     26490   737.08909     -5833.8263     -5687.5773     -10185.219      39351.887      165.06877    
     26500   738.60829     -5834.644      -5688.0936     -9941.0751      39332.113      164.84209    
     26510   727.26231     -5832.9283     -5688.6291     -9303.7355      39312.077      164.59732    
     26520   719.53756     -5831.9041     -5689.1375     -8836.3205      39292.023      164.32713    
     26530   717.2534      -5831.9304     -5689.6171     -8726.5281      39272.129      164.05731    
     26540   737.22584     -5836.3722     -5690.096      -9325.8202      39252.422      163.82341    
     26550   742.04199     -5837.8594     -5690.6276     -9681.9959      39232.67       163.6168     
     26560   725.02662     -5835.0399     -5691.1843     -9526.1         39212.858      163.41712    
     26570   733.07234     -5837.2152     -5691.7632     -9581.7873      39193.192      163.22562    
     26580   732.30606     -5837.6613     -5692.3612     -9541.7202      39173.788      163.04059    
     26590   730.9034      -5838.0125     -5692.9907     -9692.9912      39154.503      162.83874    
     26600   737.36026     -5839.957      -5693.6542     -10187.51       39135.101      162.61625    
     26610   733.67051     -5839.9255     -5694.3548     -10264.416      39115.292      162.3929     
     26620   725.21983     -5838.9558     -5695.0618     -10126.234      39094.888      162.17731    
     26630   730.45406     -5840.703      -5695.7705     -10318.928      39073.72       161.95862    
     26640   723.159       -5839.957      -5696.4719     -10510.264      39051.677      161.73328    
     26650   709.33082     -5837.8792     -5697.1378     -10517.336      39028.816      161.50124    
     26660   705.1994      -5837.662      -5697.7403     -10285.589      39005.374      161.2813     
     26670   696.23588     -5836.4059     -5698.2627     -9694.7495      38981.62       161.08215    
     26680   695.86767     -5836.7981     -5698.728      -9273.4621      38957.631      160.90387    
     26690   703.92838     -5838.8071     -5699.1377     -9155.2828      38933.506      160.73269    
     26700   714.79806     -5841.3757     -5699.5496     -9267.2265      38909.467      160.55779    
     26710   705.68659     -5839.9775     -5699.9592     -9202.5583      38885.614      160.39372    
     26720   714.71915     -5842.2129     -5700.4024     -9469.891       38861.926      160.26145    
     26730   714.79235     -5842.7153     -5700.8903     -9416.7746      38838.223      160.15948    
     26740   694.44884     -5839.1862     -5701.3976     -8917.9122      38814.509      160.04029    
     26750   680.62319     -5836.9189     -5701.8736     -8472.1378      38790.901      159.85602    
     26760   686.82472     -5838.5669     -5702.291      -8508.6577      38767.481      159.60582    
     26770   702.51194     -5842.0939     -5702.7054     -8583.3581      38744.273      159.31473    
     26780   693.10741     -5840.6404     -5703.1179     -8178.309       38721.363      159.00356    
     26790   700.45763     -5842.5282     -5703.5474     -8032.5203      38698.898      158.68554    
     26800   700.89503     -5843.0753     -5704.0077     -7940.7744      38676.791      158.39676    
     26810   697.00226     -5842.7827     -5704.4875     -8033.9143      38654.886      158.17452    
     26820   710.2563      -5845.931      -5705.006      -8614.2471      38633.106      158.00795    
     26830   714.24957     -5847.3124     -5705.595      -9206.8427      38611.301      157.8635     
     26840   705.11042     -5846.1658     -5706.2618     -9416.1373      38589.181      157.73594    
     26850   683.05497     -5842.4542     -5706.9263     -9275.6804      38566.601      157.61879    
     26860   685.64393     -5843.595      -5707.5534     -9640.8886      38543.543      157.46852    
     26870   680.86823     -5843.2357     -5708.1417     -10064.167      38519.862      157.26069    
     26880   683.74791     -5844.3457     -5708.6803     -10587.114      38495.46       157.01354    
     26890   694.14578     -5846.9462     -5709.2177     -10909.78       38470.309      156.76356    
     26900   675.00307     -5843.6722     -5709.742      -10511.017      38444.323      156.52788    
     26910   670.04235     -5843.1702     -5710.2242     -10070.703      38417.584      156.30413    
     26920   685.07264     -5846.599      -5710.6708     -9887.9177      38390.248      156.07871    
     26930   695.14463     -5849.0453     -5711.1186     -9655.9194      38362.4        155.82885    
     26940   708.97451     -5852.3075     -5711.6368     -9505.9427      38334.176      155.54808    
     26950   707.33017     -5852.5715     -5712.2271     -9215.5416      38305.821      155.27166    
     26960   702.96366     -5852.3672     -5712.8891     -9059.2541      38277.698      155.02709    
     26970   695.46874     -5851.5692     -5713.5783     -8987.8307      38250.052      154.81917    
     26980   699.37469     -5853.0663     -5714.3003     -9077.5426      38222.948      154.63524    
     26990   687.66391     -5851.4626     -5715.0203     -8899.3387      38196.32       154.44944    
     27000   679.23926     -5850.479      -5715.7082     -8786.1915      38170.212      154.25092    
     27010   683.8516      -5852.0394     -5716.3535     -9200.0448      38144.676      154.02672    
     27020   684.63916     -5852.8293     -5716.9871     -9816.8392      38119.566      153.77713    
     27030   681.8882      -5852.9139     -5717.6176     -10216.258      38094.623      153.51765    
     27040   683.74381     -5853.9232     -5718.2587     -10412.271      38069.544      153.27318    
     27050   683.32747     -5854.4978     -5718.9158     -10359.791      38043.987      153.04846    
     27060   693.13013     -5857.1367     -5719.6098     -10309.766      38017.728      152.8418     
     27070   690.26032     -5857.3066     -5720.3491     -10039.937      37990.833      152.66106    
     27080   678.31245     -5855.6869     -5721.1        -9576.7312      37963.573      152.50305    
     27090   669.05871     -5854.578      -5721.8272     -9254.8402      37936.23       152.34593    
     27100   666.64759     -5854.8021     -5722.5297     -9178.7819      37908.85       152.17539    
     27110   665.45601     -5855.2518     -5723.2158     -9357.5482      37881.205      152.00435    
     27120   669.00386     -5856.6273     -5723.8874     -9624.1343      37853.147      151.85284    
     27130   666.86619     -5856.8778     -5724.562      -9884.6774      37824.79       151.71475    
     27140   649.80931     -5854.1433     -5725.2118     -9837.8114      37796.244      151.56901    
     27150   645.54855     -5853.8921     -5725.806      -9745.5917      37767.69       151.40225    
     27160   659.39952     -5857.196      -5726.3617     -9597.3069      37739.39       151.21469    
     27170   664.42541     -5858.7686     -5726.937      -9044.3195      37711.442      151.01177    
     27180   653.1015      -5857.1038     -5727.5191     -8493.8213      37683.983      150.8128     
     27190   645.61152     -5856.1897     -5728.0911     -8228.3328      37657.189      150.63608    
     27200   644.05654     -5856.4233     -5728.6333     -8333.1104      37631.107      150.47461    
     27210   653.64862     -5858.8652     -5729.172      -8592.0161      37605.731      150.31093    
     27220   647.46793     -5858.1954     -5729.7285     -8693.6977      37580.943      150.14115    
     27230   640.29445     -5857.3359     -5730.2923     -8834.7928      37556.477      149.98524    
     27240   640.50353     -5857.9369     -5730.8518     -9066.1154      37532.003      149.8706     
     27250   634.90079     -5857.3744     -5731.401      -9212.1316      37507.241      149.78916    
     27260   635.26259     -5857.9779     -5731.9327     -9374.383       37482.104      149.71718    
     27270   646.54706     -5860.7413     -5732.4571     -9763.8968      37456.561      149.65364    
     27280   652.64665     -5862.5127     -5733.0183     -9924.3291      37430.615      149.59516    
     27290   646.0863      -5861.8147     -5733.6219     -9768.2503      37404.385      149.53407    
     27300   644.00223     -5862.0117     -5734.2325     -9446.037       37377.986      149.4626     
     27310   652.23675     -5864.2903     -5734.8772     -9261.0347      37351.535      149.36243    
     27320   652.55881     -5865.0355     -5735.5585     -9003.3486      37325.041      149.21718    
     27330   655.76903     -5866.3989     -5736.285      -8896.6687      37298.369      149.03577    
     27340   657.90765     -5867.5964     -5737.0581     -9003.6147      37271.461      148.8203     
     27350   642.89837     -5865.4003     -5737.84       -8970.845       37244.299      148.58706    
     27360   630.33747     -5863.6556     -5738.5877     -8963.2683      37216.941      148.35852    
     27370   616.54417     -5861.5814     -5739.2502     -8852.2883      37189.532      148.14051    
     27380   616.38462     -5862.1256     -5739.8261     -9030.2313      37162.224      147.92474    
     27390   624.51133     -5864.272      -5740.36       -9241.3997      37134.961      147.69092    
     27400   625.13356     -5864.9136     -5740.8781     -9306.8648      37107.578      147.42248    
     27410   628.87255     -5866.173      -5741.3957     -9292.0223      37079.974      147.12527    
     27420   636.37627     -5868.2113     -5741.9451     -9261.5815      37052.114      146.84395    
     27430   638.04816     -5869.136      -5742.5381     -9012.7771      37024.064      146.61737    
     27440   633.80231     -5868.9276     -5743.1722     -8640.1508      36995.884      146.45079    
     27450   632.84073     -5869.4008     -5743.8361     -8298.0129      36967.68       146.33469    
     27460   631.98198     -5869.9021     -5744.5078     -8084.6401      36939.642      146.26002    
     27470   645.70189     -5873.3445     -5745.228      -8367.3707      36911.927      146.19586    
     27480   641.97172     -5873.3741     -5745.9978     -8540.1484      36884.496      146.10307    
     27490   638.22579     -5873.4316     -5746.7985     -8834.0909      36857.201      145.96266    
     27500   643.97012     -5875.4136     -5747.6407     -9267.8974      36829.744      145.77743    
     27510   639.69293     -5875.426      -5748.5018     -9448.2202      36801.846      145.56385    
     27520   636.95622     -5875.7574     -5749.3762     -9456.1667      36773.399      145.3474     
     27530   630.26018     -5875.2773     -5750.2247     -9270.389       36744.405      145.14728    
     27540   629.26497     -5875.9102     -5751.055      -9299.7231      36714.961      144.9655     
     27550   630.82329     -5877.0355     -5751.8711     -9447.862       36685.172      144.79794    
     27560   629.64209     -5877.6207     -5752.6907     -9499.0128      36655.1        144.61731    
     27570   615.59838     -5875.6436     -5753.5        -9152.6928      36624.786      144.39836    
     27580   606.10536     -5874.5145     -5754.2545     -8717.1816      36594.321      144.13826    
     27590   615.53287     -5877.104      -5754.9735     -8705.9184      36563.907      143.87368    
     27600   620.47033     -5878.8102     -5755.7        -8698.0364      36533.688      143.64616    
     27610   613.70987     -5878.2067     -5756.4378     -8489.1124      36503.734      143.44368    
     27620   614.67621     -5879.1497     -5757.1891     -8405.5877      36473.981      143.23147    
     27630   624.03578     -5881.7963     -5757.9786     -8545.1964      36444.254      142.99098    
     27640   622.98265     -5882.428      -5758.8193     -8689.0009      36414.378      142.72848    
     27650   620.62759     -5882.8257     -5759.6843     -8713.7436      36384.264      142.45136    
     27660   626.5787      -5884.9102     -5760.588      -8803.0663      36353.962      142.1817     
     27670   619.96278     -5884.5172     -5761.5077     -8657.5654      36323.502      141.9385     
[...]
     40210   296.92892     -6022.6868     -5963.7718     -543.05714      31044.418      118.60152    
     40220   294.80952     -6022.3209     -5963.8265     -447.8002       31039.211      118.59171    
     40230   296.16354     -6022.6271     -5963.864      -377.76951      31031.818      118.58862    
     40240   301.05462     -6023.6232     -5963.8896     -368.96442      31022.517      118.59198    
     40250   306.03728     -6024.6423     -5963.9202     -347.7864       31011.358      118.59835    
     40260   306.05594     -6024.7039     -5963.978      -257.43858      30998.441      118.60606    
     40270   302.39631     -6024.0714     -5964.0717     -254.2215       30984.048      118.61248    
     40280   298.48236     -6023.4155     -5964.1924     -140.19634      30968.275      118.60826    
     40290   296.0748      -6023.0775     -5964.332       9.2136384      30951.595      118.58756    
     40300   290.77919     -6022.1752     -5964.4804      233.71104      30934.68       118.55455    
     40310   287.65285     -6021.691      -5964.6166      445.71845      30918.508      118.52277    
     40320   291.26002     -6022.5278     -5964.7377      515.06057      30904.035      118.50392    
     40330   297.62628     -6023.907      -5964.8537      488.53526      30891.622      118.49735    
     40340   302.64438     -6025.0356     -5964.9867      285.23082      30881.11       118.49797    
     40350   303.45491     -6025.366      -5965.1562      161.04803      30871.779      118.50457    
     40360   301.51975     -6025.1957     -5965.3698      103.20515      30863.039      118.52065    
     40370   299.74676     -6025.092      -5965.618       165.77482      30854.667      118.54615    
     40380   297.60057     -6024.9393     -5965.8911      306.4092       30846.905      118.57301    
     40390   294.20344     -6024.5453     -5966.1711      509.11205      30840.407      118.59471    
     40400   291.58269     -6024.293      -5966.4388      728.65876      30836.126      118.60929    
     40410   290.63022     -6024.3472     -5966.682       905.63738      30835.074      118.6177     
     40420   287.49705     -6023.9374     -5966.8938      1033.4511      30838.068      118.62564    
     40430   285.42088     -6023.6938     -5967.0623      1043.5311      30845.736      118.64149    
     40440   284.06646     -6023.5444     -5967.1816      1057.0188      30858.325      118.67351    
     40450   287.14227     -6024.2212     -5967.2481      887.44275      30875.861      118.72489    
     40460   290.48567     -6024.9023     -5967.2658      633.96608      30897.708      118.79298    
     40470   289.14104     -6024.6116     -5967.2418      398.24182      30922.848      118.87263    
     40480   291.23645     -6024.9565     -5967.1711      46.750309      30950.226      118.95959    
     40490   297.10867     -6026.0087     -5967.0581     -341.26448      30978.311      119.05315    
     40500   297.34522     -6025.9149     -5966.9174     -626.94602      31005.39       119.14836    
     40510   293.45818     -6024.9836     -5966.7573     -829.8734       31030.104      119.23919    
     40520   290.13308     -6024.1326     -5966.566      -954.30201      31051.457      119.32116    
     40530   288.93543     -6023.6576     -5966.3287     -1012.6682      31068.804      119.38952    
     40540   289.93867     -6023.5701     -5966.0421     -1033.7536      31081.817      119.44064    
     40550   292.60566     -6023.7693     -5965.7121     -1002.3001      31090.315      119.47881    
     40560   293.29432     -6023.5499     -5965.3561     -834.09573      31094.411      119.51375    
     40570   296.00595     -6023.7231     -5964.9913     -722.8329       31094.703      119.54818    
     40580   301.72994     -6024.5035     -5964.636      -522.38913      31091.757      119.57576    
     40590   306.09608     -6025.0521     -5964.3183     -396.13669      31086.346      119.58969    
     40600   306.30825     -6024.8324     -5964.0565     -352.44622      31079.016      119.58864    
     40610   308.29875     -6025.0291     -5963.8582     -428.11323      31069.932      119.57847    
     40620   309.59989     -6025.1477     -5963.7187     -507.19398      31058.789      119.56214    
     40630   305.07512     -6024.1655     -5963.6343     -342.54121      31045.302      119.53535    
     40640   297.42949     -6022.5912     -5963.5769     -92.063767      31030.122      119.49161    
     40650   290.29525     -6021.1106     -5963.5119      167.58462      31014.368      119.42909    
     40660   289.82156     -6020.926      -5963.4213      284.46694      30999.14       119.34922    
     40670   295.22534     -6021.8774     -5963.3005      268.77481      30985          119.25585    
     40680   300.04263     -6022.7021     -5963.1694      302.3882       30971.975      119.15699    
     40690   301.39462     -6022.8431     -5963.0421      348.34482      30960.204      119.06305    
     40700   302.91868     -6023.0347     -5962.9313      302.22013      30949.835      118.9811     
     40710   301.74785     -6022.7062     -5962.8351      409.54377      30940.821      118.91543    
     40720   301.16898     -6022.511      -5962.7547      428.64441      30933.491      118.87481    
     40730   301.94269     -6022.5945     -5962.6847      381.76544      30928.038      118.86618    
     40740   303.77737     -6022.8984     -5962.6247      264.87464      30924.245      118.88647    
     40750   305.7535      -6023.2526     -5962.5867      86.233823      30921.539      118.92232    
     40760   305.22989     -6023.1328     -5962.5708      120.95303      30919.248      118.95975    
     40770   302.77107     -6022.6479     -5962.5738      396.503        30917.557      118.99418    
     40780   302.16909     -6022.5461     -5962.5915      628.06824      30917.632      119.02575    
     40790   302.88932     -6022.7183     -5962.6207      866.0406       30920.599      119.05572    
     40800   302.68216     -6022.7208     -5962.6644      989.60344      30927.465      119.09105    
     40810   300.48512     -6022.3418     -5962.7212      974.37753      30938.835      119.14108    
     40820   299.67316     -6022.2462     -5962.7868      816.96649      30954.708      119.21199    
     40830   300.51966     -6022.4832     -5962.8557      522.51342      30974.431      119.30437    
     40840   298.92348     -6022.236      -5962.9253      244.04526      30996.747      119.41428    
     40850   296.79313     -6021.8774     -5962.9894     -23.493343      31020.414      119.53116    
     40860   300.16613     -6022.6033     -5963.046      -257.22039      31044.246      119.63921    
     40870   307.18591     -6024.0597     -5963.1096     -426.43761      31067.212      119.72433    
     40880   308.73087     -6024.4677     -5963.211      -486.2829       31088.557      119.7802     
     40890   302.23785     -6023.332      -5963.3637     -320.38209      31108.052      119.81001    
     40900   297.02395     -6022.4916     -5963.5578     -251.32734      31126.231      119.83085    
     40910   293.90474     -6022.0909     -5963.776      -305.60307      31143.384      119.86382    
     40920   291.49462     -6021.843      -5964.0063     -464.69179      31159.262      119.92355    
     40930   291.80286     -6022.1389     -5964.241      -728.20683      31173.113      120.01499    
     40940   290.66445     -6022.1521     -5964.4801     -925.30702      31183.733      120.12773    
     40950   287.97967     -6021.8533     -5964.714      -1036.1528      31190.216      120.23884    
     40960   288.12282     -6022.1023     -5964.9346     -1156.3992      31191.968      120.32394    
     40970   288.95814     -6022.4685     -5965.1351     -1221.1389      31188.42       120.36815    
     40980   289.2164      -6022.7036     -5965.3189     -1211.3901      31179.261      120.36827    
     40990   291.75229     -6023.3687     -5965.4808     -1239.9933      31164.409      120.32926    
     41000   295.12122     -6024.1871     -5965.6309     -1268.7252      31143.741      120.25762    
     41010   295.04544     -6024.3186     -5965.7774     -1160.6288      31117.182      120.16112    
     41020   294.15969     -6024.2812     -5965.9158     -909.60567      31085.188      120.04967    
     41030   297.03051     -6024.9756     -5966.0405     -605.67243      31048.887      119.9335     
     41040   297.60037     -6025.2063     -5966.1581     -371.7247       31009.601      119.82082    
     41050   294.16163     -6024.635      -5966.2691      16.308896      30968.544      119.7161     
     41060   291.03956     -6024.1033     -5966.3569      445.3519       30927.458      119.6176     
     41070   293.32231     -6024.6138     -5966.4144      718.17148      30888.214      119.51983    
     41080   298.06626     -6025.5879     -5966.4473      993.54767      30852.146      119.41805    
     41090   302.64767     -6026.5221     -5966.4725      1300.4673      30820.521      119.31258    
     41100   304.72051     -6026.9755     -5966.5146      1571.5561      30794.678      119.20795    
     41110   305.58145     -6027.2208     -5966.5891      1710.3821      30775.785      119.11496    
     41120   302.93213     -6026.8096     -5966.7035      1705.1971      30764.465      119.04503    
     41130   299.77683     -6026.3372     -5966.8571      1652.1139      30760.741      119.00389    
     41140   297.21704     -6026.0057     -5967.0336      1593.5283      30764.363      118.99471    
     41150   296.35522     -6026.0288     -5967.2277      1454.747       30775.009      119.01534    
     41160   294.94517     -6025.9515     -5967.4302      1401.154       30792.205      119.06237    
     41170   292.97617     -6025.7651     -5967.6345      1355.8516      30815.687      119.13929    
     41180   291.3588      -6025.6392     -5967.8294      1266.5758      30845.242      119.25057    
     41190   288.29848     -6025.2037     -5968.0012      1140.6737      30880.501      119.39561    
     41200   287.91546     -6025.2631     -5968.1365      831.07942      30920.836      119.56063    
     41210   292.94366     -6026.3547     -5968.2305      373.07592      30964.846      119.72122    
     41220   295.01551     -6026.8257     -5968.2904     -9.4780735      31010.485      119.85767    
     41230   289.9398      -6025.8475     -5968.3193     -388.41044      31055.893      119.96578    
     41240   284.07865     -6024.668      -5968.3027     -696.2686       31099.386      120.05351    
     41250   286.39678     -6025.04       -5968.2148     -1124.3758      31139.406      120.13103    
     41260   290.12998     -6025.6176     -5968.0516     -1460.3882      31174.069      120.1994     
     41270   289.7829      -6025.3271     -5967.8301     -1619.0642      31201.857      120.25515    
     41280   286.56643     -6024.4138     -5967.5549     -1644.7928      31222.01       120.2954     
     41290   284.75966     -6023.7162     -5967.2158     -1669.173       31234.395      120.31791    
     41300   286.55071     -6023.6697     -5966.8139     -1638.8498      31239.055      120.32213    
     41310   289.53133     -6023.8107     -5966.3635     -1600.0707      31236.164      120.30865    
     41320   292.50346     -6023.9407     -5965.9038     -1561.7366      31225.987      120.27773    
     41330   294.62161     -6023.9282     -5965.4711     -1439.5525      31208.808      120.23153    
     41340   295.19067     -6023.6598     -5965.0897     -1210.6442      31185.267      120.17472    
     41350   293.44531     -6022.9885     -5964.7648     -883.7791       31156.504      120.11017    
     41360   292.00711     -6022.4183     -5964.4799     -573.48879      31124.047      120.03697    
     41370   292.41696     -6022.2411     -5964.2214     -311.92816      31089.374      119.95518    
     41380   296.80769     -6022.8706     -5963.9797     -40.020371      31053.743      119.86164    
     41390   301.02314     -6023.4836     -5963.7563      242.01154      31018.368      119.75124    
     41400   300.44209     -6023.172      -5963.56        560.53652      30984.559      119.62739    
     41410   297.97861     -6022.5022     -5963.379       841.31915      30953.718      119.50227    
     41420   297.83282     -6022.3022     -5963.2079      1029.176       30927.042      119.38724    
     41430   303.10405     -6023.1833     -5963.0432      1090.2148      30905.306      119.28399    
     41440   308.0154      -6024.0146     -5962.9         1224.5919      30888.804      119.18803    
     41450   307.92741     -6023.8945     -5962.7973      1374.9429      30877.971      119.09699    
     41460   306.76171     -6023.603      -5962.7371      1549.9715      30873.432      119.01961    
     41470   305.97424     -6023.4207     -5962.711       1666.2673      30875.821      118.97526    
     41480   305.37065     -6023.3137     -5962.7238      1710.0942      30885.595      118.97858    
     41490   304.52899     -6023.1881     -5962.7652      1610.067       30902.829      119.02914    
     41500   303.85642     -6023.1163     -5962.8269      1387.3373      30927          119.11887    
     41510   303.28243     -6023.0782     -5962.9027      1019.3582      30957.037      119.23459    
     41520   303.35305     -6023.1753     -5962.9857      570.83221      30991.24       119.35876    
     41530   303.1941      -6023.231      -5963.0729      87.978647      31027.521      119.4755     
     41540   302.63672     -6023.2101     -5963.1626     -310.53536      31063.714      119.57486    
     41550   302.27351     -6023.2339     -5963.2585     -684.25591      31097.973      119.65474    
     41560   301.6901      -6023.2207     -5963.3611     -967.28642      31128.657      119.72059    
     41570   300.91421     -6023.1797     -5963.474      -1157.8489      31154.455      119.77978    
     41580   298.23181     -6022.7725     -5963.599      -1156.9418      31174.636      119.83935    
     41590   293.89616     -6022.0375     -5963.7243     -1185.1578      31189.17       119.90314    
     41600   289.48625     -6021.2699     -5963.8317     -1333.004       31198.004      119.96426    
     41610   289.82788     -6021.4131     -5963.9071     -1516.8826      31200.618      120.00685    
     41620   294.63514     -6022.418      -5963.9581     -1712.6999      31196.296      120.01502    
     41630   298.00338     -6023.1233     -5963.9952     -1658.6934      31184.402      119.97903    
     41640   300.2109      -6023.5997     -5964.0336     -1502.5523      31165.197      119.90123    
     41650   300.11254     -6023.6239     -5964.0773     -1201.0856      31139.624      119.79455    
     41660   296.7915      -6023.0065     -5964.1188     -798.83393      31109.186      119.6736     
     41670   293.1998      -6022.3206     -5964.1455     -393.88351      31075.78       119.54974    
     41680   292.88266     -6022.2539     -5964.1418     -26.06098       31041.276      119.43       
     41690   297.65434     -6023.1621     -5964.1032      143.46407      31007.257      119.3213     
     41700   303.63738     -6024.2908     -5964.0448      220.97447      30974.569      119.22848    
     41710   304.93728     -6024.49       -5963.9861      336.39818      30943.623      119.15204    
     41720   304.22975     -6024.301      -5963.9375      468.68138      30914.857      119.08783    
     41730   303.03018     -6024.026      -5963.9005      708.28064      30888.871      119.02821    
     41740   302.29669     -6023.8568     -5963.8768      803.06992      30866.528      118.96653    
     41750   302.00426     -6023.7832     -5963.8612      895.2005       30848.269      118.90055    
     41760   303.95033     -6024.1674     -5963.8593      937.86222      30834.332      118.83549    
     41770   308.43472     -6025.0756     -5963.8777      900.75392      30824.79       118.77783    
     41780   310.44296     -6025.5352     -5963.9388      926.87674      30819.473      118.73188    
     41790   307.55256     -6025.0759     -5964.0531      967.84658      30818.369      118.70108    
     41800   302.14446     -6024.1688     -5964.219       995.26366      30821.58       118.69064    
     41810   297.53113     -6023.4452     -5964.4108      919.15317      30829.098      118.70195    
     41820   297.71174     -6023.6887     -5964.6184      686.64118      30840.484      118.72879    
     41830   299.75875     -6024.3127     -5964.8363      489.34004      30854.728      118.76341    
     41840   297.86544     -6024.1692     -5965.0684      292.89524      30870.88       118.80531    
     41850   293.77702     -6023.5906     -5965.301       186.13388      30888.12       118.85709    
     41860   293.08926     -6023.6755     -5965.5224      70.165958      30905.918      118.91252    
     41870   297.11568     -6024.679      -5965.7269     -189.01131      30923.697      118.95533    
     41880   302.73574     -6025.9948     -5965.9276     -562.72622      30940.291      118.97434    
     41890   303.14169     -6026.2932     -5966.1456     -712.53896      30954.2        118.97297    
     41900   298.40939     -6025.5846     -5966.3759     -685.29599      30964.774      118.9645     
     41910   298.43924     -6025.8208     -5966.6062     -724.11564      30972.091      118.95977    
     41920   301.76144     -6026.7122     -5966.8384     -802.84106      30976.055      118.96485    
     41930   297.42987     -6026.087      -5967.0727     -747.4288       30976.409      118.97785    
     41940   287.62672     -6024.3578     -5967.2885     -557.31512      30973.426      118.99044    
     41950   282.1769      -6023.439      -5967.451      -460.26755      30967.932      118.99626    
     41960   282.29075     -6023.5551     -5967.5445     -428.58986      30960.452      118.99263    
     41970   285.44353     -6024.2065     -5967.5705     -498.9748       30951.134      118.97803    
     41980   289.13285     -6024.9119     -5967.5438     -597.02489      30939.689      118.94757    
     41990   292.33017     -6025.4773     -5967.4748     -577.49604      30925.767      118.89356    
     42000   293.09349     -6025.5267     -5967.3728     -414.12067      30909.504      118.81372    
     42010   289.16806     -6024.613      -5967.238      -77.273157      30891.668      118.71457    
     42020   287.92517     -6024.1824     -5967.0539      288.88887      30873.755      118.60978    
     42030   291.75479     -6024.7064     -5966.8181      490.39556      30857.302      118.51541    
     42040   291.92372     -6024.4578     -5966.5359      602.51976      30843.237      118.44439    
     42050   287.77003     -6023.3156     -5966.2179      674.72909      30832.039      118.40145    
     42060   288.44282     -6023.094      -5965.8628      612.27456      30823.933      118.38172    
     42070   297.07586     -6024.4233     -5965.4792      416.16823      30818.627      118.37403    
     42080   307.5103      -6026.1218     -5965.1074      233.2006       30815.258      118.37237    
     42090   309.13887     -6026.1372     -5964.7996      319.93707      30813.082      118.37979    
     42100   302.05823     -6024.5065     -5964.5738      644.31721      30812.44       118.40124    
     42110   296.87095     -6023.3057     -5964.4022      979.27637      30814.697      118.4363     
     42120   295.01263     -6022.7922     -5964.2575      1073.795       30821.201      118.48113    
     42130   295.0294      -6022.6666     -5964.1286      962.62402      30832.39       118.53096    
     42140   294.66707     -6022.4711     -5964.0049      625.59867      30847.683      118.58136    
     42150   296.31144     -6022.6758     -5963.8833      251.4488       30865.64       118.63087    
     42160   301.96895     -6023.6821     -5963.7672     -52