LAMMPS data file via write_data, version 2 Aug 2023, timestep = 80000, units = metal

1536 atoms
3 atom types

-0.413224316219285 25.343836561117612 xlo xhi
-0.3360020045701422 25.266614249468383 ylo yhi
-1.4640523719166865 76.25588910661223 zlo zhi

Masses

1 35.44999999088069
2 39.09829998994218
3 6.939999998214724

Atoms # full

6 0 1 -1 2.641183281238247 0.4149180516473773 1.369832398414073 0 0 0
386 0 3 1 5.037538901412904 0.4049808114826777 1.2027648263187514 0 0 0
392 0 1 -1 5.692229425106711 0.5730818094618453 -1.2025255893558193 0 0 0
390 0 1 -1 9.186172224023421 0.7926889228197462 1.4602531598992883 0 0 0
2 0 2 1 25.208229638887815 0.5356273083534087 1.309048618205424 -1 0 0
99 0 2 1 2.877794823775445 3.550925104871768 1.747492336506859 0 0 0
487 0 1 -1 5.864666389571132 2.90552570738142 1.612772753348426 0 0 0
483 0 2 1 9.226513684789982 4.183602932705781 0.9686929891266964 0 0 0
865 0 2 1 12.28117587605216 3.4616608419731048 -1.4235435690365479 0 0 0
869 0 1 -1 15.360702767282534 3.4217129131645887 -1.1556412358538828 0 0 0
867 0 2 1 16.15983197241377 3.840090352378817 1.5286422094280647 0 0 0
1253 0 1 -1 21.992919630564224 3.4640091727536464 -1.4221936381452451 0 0 0
1255 0 1 -1 19.091820825878035 3.37418908364291 1.1702123027746554 0 0 0
1251 0 2 1 22.28248598466914 3.805455284455034 1.6262743834813218 0 0 0
103 0 1 -1 25.289677086494834 3.7734528717518723 1.5167222510581029 -1 0 0
104 0 1 -1 -0.31891464562963856 7.350180557824647 -1.3251245027405174 0 0 0
98 0 2 1 0.035820885250139045 6.980450695179962 1.4504451737799848 0 0 0
482 0 3 1 6.968954920481745 7.929478330052479 0.7484661341680168 0 0 0
486 0 1 -1 9.217637949856499 7.301138016999508 0.9699434829749509 0 0 0
866 0 2 1 12.645161166846853 7.073864516565864 1.6689911676071807 0 0 0
870 0 1 -1 15.978482766848483 6.755279081126227 1.5171854269894443 0 0 0
1250 0 2 1 19.301954605775755 6.816569534048821 1.548704472491262 0 0 0
1256 0 1 -1 19.252600294716288 7.2003383636605385 -1.3723867579153641 0 0 0
199 0 1 -1 -0.35630073552129726 10.115404155505509 1.5628455315994727 0 0 0
195 0 2 1 2.8917244055751063 9.921442770558322 1.2347598633630499 0 0 0
583 0 1 -1 6.173258746161245 10.078591891326578 1.539848903971465 0 0 0
579 0 2 1 9.817511050577412 10.234102481968264 0.9457286738220012 0 0 0
967 0 1 -1 12.803757096764043 10.399762069633853 1.3655152867890124 0 0 0
1347 0 2 1 21.993247111496434 10.21414913692305 1.5774126451336081 0 0 0
194 0 2 1 -0.0552720181433059 13.223148007893533 1.4415616853238382 0 0 0
198 0 1 -1 3.132991534040412 13.319817338247221 1.335097533838971 0 0 0
584 0 1 -1 6.196423252048235 13.325750441930039 -1.3741009409544707 0 0 0
578 0 2 1 6.430151884626676 13.497446524792853 1.4837054849201783 0 0 0
582 0 1 -1 9.64265069221624 13.388290830833219 1.1855078648705728 0 0 0
1350 0 1 -1 22.466913719425 13.665825202978679 1.3896706293131702 0 0 0
293 0 1 -1 2.993897001384996 17.089794661686206 -0.8489105811857418 0 0 0
673 0 2 1 5.648613197535021 16.178935068169594 -1.3854050807439402 0 0 0
677 0 1 -1 8.751780492985002 16.420220114117036 -1.2739137916797056 0 0 0
674 0 3 1 6.9845298644345695 18.403843967184613 1.0058039367610179 0 0 0
1063 0 1 -1 12.489334439383383 16.743975872715758 1.3809051516108486 0 0 0
1059 0 2 1 15.684821430990834 16.672484520601067 1.739375617318725 0 0 0
1061 0 1 -1 15.675893955968355 16.328381452997064 -1.428232521922598 0 0 0
1441 0 2 1 18.647632711237428 16.33810662884717 -1.1788559636738858 0 0 0
1445 0 1 -1 22.01040018001467 16.235139158658264 -1.2028348242070308 0 0 0
295 0 1 -1 25.033602767435628 16.363646059135128 1.4976136186220534 -1 0 0
1443 0 3 1 22.910101418955456 15.858670204237105 0.841617223318031 0 0 0
5 0 1 -1 2.5104391391015186 21.585438245142903 -1.2192702438775063 0 -1 0
292 0 3 1 2.8582658546554005 19.308810896237993 -0.2710943050668193 0 0 0
680 0 1 -1 5.818231834014269 19.53058500929985 -0.725060728873136 0 0 0
678 0 1 -1 9.328080660862343 19.31449417091317 1.4618688601882743 0 0 0
1062 0 1 -1 15.896517518703124 19.98348540376498 1.2699456065358397 0 0 0
1442 0 2 1 18.968208763861096 19.942236131292383 1.3501265149081902 0 0 0
1446 0 1 -1 22.071157280814745 19.985157142734998 1.597296737168826 0 0 0
3 0 2 1 2.1618250231884515 22.86656064191466 1.511032522712925 0 -1 0
385 0 2 1 5.816927670313449 22.7831377874964 -1.155915494623656 0 -1 0
391 0 1 -1 6.322060702998299 24.17109100674977 1.678972460420776 0 -1 0
387 0 2 1 9.002553774879232 22.677477103660443 1.691919683278325 0 -1 0
389 0 1 -1 9.398138194962092 22.316274119930718 -1.253685385260047 0 -1 0
769 0 2 1 12.32552777945606 22.70609125161443 -1.1925932431296031 0 -1 0
1159 0 1 -1 18.498713063701288 23.230521255975248 1.3277757388579534 0 -1 0
1155 0 2 1 21.4767308335166 23.28441889451858 1.4226676135135161 0 -1 0
7 0 1 -1 24.681551639514137 22.739305494655746 1.3741503014755563 -1 -1 0
12 0 2 1 2.88314502930199 0.4996893061505153 4.988423799288591 0 0 0
400 0 1 -1 5.809867169575832 0.5039460272766605 4.620689031526131 0 0 0
396 0 3 1 7.3218167568993415 1.4057196823330618 2.8285468458716734 0 0 0
770 0 2 1 12.156715592767078 0.7440174156994162 2.445011004828913 0 0 0
774 0 1 -1 15.627224497554256 0.7561298937065954 1.8526967036784234 0 0 0
1154 0 2 1 18.58776020422495 0.7124389496128571 2.306877627617879 0 0 0
1164 0 2 1 22.08575809628126 0.7463263619076368 4.703906532921709 0 0 0
1168 0 1 -1 19.018383918274615 -0.20182982260450888 4.981602659659604 0 0 0
1158 0 1 -1 22.14696002624745 0.7152581498677819 1.7750533258859567 0 0 0
16 0 1 -1 25.192885181728588 0.23295862350458396 4.57195122622745 -1 0 0
105 0 2 1 -0.3829233615977934 3.5708874301293942 4.447394144834708 0 0 0
109 0 1 -1 2.700962649185335 3.7510433208120704 4.866383867444033 0 0 0
489 0 2 1 5.745542606736557 3.817321510703187 4.939287543037069 0 0 0
493 0 1 -1 8.794232735423105 3.8461067380647247 3.9637542010405706 0 0 0
871 0 1 -1 11.89068832165387 3.896220538341833 1.8941947201916234 0 0 0
877 0 1 -1 16.613951876249363 3.717182413907058 4.809169979420284 0 0 0
1261 0 1 -1 21.63598306892571 3.800378259749194 4.793711606394481 0 0 0
102 0 1 -1 3.0283711322071016 6.77846444746938 1.7862474182215782 0 0 0
108 0 3 1 3.60717000719941 7.408706688625135 3.887770251495952 0 0 0
496 0 1 -1 5.795866901846062 7.239006871867268 4.991066070406487 0 0 0
492 0 2 1 9.147368931725692 6.918365022871013 4.530836365695084 0 0 0
880 0 1 -1 12.505373081448143 7.346068466310822 4.650966410272555 0 0 0
876 0 2 1 16.072469462860017 7.252580975144642 4.945193439832353 0 0 0
1264 0 1 -1 19.269677133699396 7.034302765730748 4.660092886385519 0 0 0
1254 0 1 -1 22.840100607330097 7.1907579265901305 1.9114354644905922 0 0 0
1260 0 2 1 22.827460989905315 7.10751672970342 5.002777877915778 0 0 0
201 0 2 1 -0.26127999880315533 9.54526581613646 4.680963223408651 0 0 0
205 0 1 -1 2.7006052629985167 9.760492631976462 4.414233639223799 0 0 0
585 0 2 1 5.831852976109319 10.257710318980111 4.925792298836766 0 0 0
589 0 1 -1 9.350560187918843 10.009136180670534 4.672233493223761 0 0 0
963 0 2 1 15.732255982181645 10.279095837591223 2.001518476997933 0 0 0
973 0 1 -1 15.84629810832 10.40099238560004 4.9763601317858095 0 0 0
1351 0 1 -1 18.915506937145828 10.318716941461526 1.911046581535151 0 0 0
1353 0 2 1 19.04418396203224 10.194036402493142 5.010921221461669 0 0 0
1357 0 1 -1 22.47973118280353 9.91054675442823 4.570365962675082 0 0 0
204 0 2 1 2.577837894956174 13.49716143939328 4.577700103312758 0 0 0
208 0 1 -1 -0.3995103187266501 13.764279631343525 4.928648713240571 0 0 0
592 0 1 -1 5.9346800534902675 14.142336138572604 4.602792025633979 0 0 0
588 0 2 1 9.16080888427683 13.769462110564039 4.694505401398205 0 0 0
976 0 1 -1 12.624559702291918 13.902102733627451 4.877200779441059 0 0 0
962 0 2 1 12.498678037556356 13.710628548855452 1.87676573965294 0 0 0
966 0 1 -1 15.703795065953315 13.787699009148652 2.1105446008195563 0 0 0
1346 0 3 1 17.954555604984495 14.59323339347272 2.7412988211237987 0 0 0
1360 0 1 -1 18.922901353680203 13.65235098511738 4.656209597462996 0 0 0
1356 0 2 1 22.20603680422556 13.543406705759692 4.9260714300287285 0 0 0
291 0 2 1 3.244451471895719 16.32815003978036 2.2959586196449893 0 0 0
679 0 1 -1 6.19571068269577 16.513585850275312 1.8390337761609863 0 0 0
675 0 2 1 9.518968902026334 16.123009427819674 1.7890972123382616 0 0 0
1447 0 1 -1 18.774191565343987 16.66442541039119 1.9093288139572677 0 0 0
1069 0 1 -1 16.453211129726075 16.41652287369682 4.859455730457209 0 0 0
1453 0 1 -1 22.186585988436637 16.819521427850162 4.181568388751778 0 0 0
297 0 3 1 24.435031679703673 16.578398382719215 3.5681550304192022 -1 0 0
294 0 1 -1 2.550473350576377 19.45130947146926 2.0843973570667833 0 0 0
684 0 2 1 9.2487208191783 19.493538832969747 4.927744664172654 0 0 0
1058 0 2 1 12.621586730519208 19.664106635252374 2.0218420358662463 0 0 0
1068 0 2 1 15.822314457890212 19.790061557076235 4.63657353547764 0 0 0
1456 0 1 -1 18.776517467338667 20.369571733511286 4.878421959492047 0 0 0
1452 0 2 1 21.79186152441172 19.860992323952907 4.5665193004633435 0 0 0
290 0 2 1 25.189921745534058 19.67034758613042 1.8487171902589359 -1 0 0
304 0 1 -1 25.054370555532905 19.824985140510925 4.804949616994472 -1 0 0
13 0 1 -1 2.93336773909332 22.73764621775276 4.607942239474038 0 -1 0
393 0 2 1 6.006906353817086 22.940011329090026 4.496183984123142 0 -1 0
775 0 1 -1 12.137411213642752 23.206755032118814 1.8344216179175947 0 -1 0
397 0 1 -1 9.34443099606844 22.72447673774205 4.587231605612748 0 -1 0
771 0 2 1 15.39870418661541 23.04299683271457 1.7780395266505744 0 -1 0
1165 0 1 -1 21.67453042160086 22.911092007970673 4.828886472882059 0 -1 0
9 0 2 1 25.04843508817593 22.768158611268156 4.525719564718986 -1 -1 0
14 0 1 -1 2.6661963240699045 -0.18495581456351387 8.147501473979334 0 0 0
394 0 2 1 5.763210471417626 0.07411450447650975 7.731474580183127 0 0 0
784 0 1 -1 12.6569301715573 0.561930362653048 5.325304518472716 0 0 0
782 0 1 -1 15.573989736211539 0.8330637010163633 8.201341732159491 0 0 0
778 0 3 1 13.158408780289788 0.11404367609432459 7.523124157303602 0 0 0
780 0 2 1 16.07512824190595 0.4407709663116255 5.055603298432799 0 0 0
1166 0 1 -1 22.050401389524982 0.7283307792308593 8.016863452117747 0 0 0
1162 0 2 1 18.916949463112488 1.1268505868354133 8.100234030199788 0 0 0
10 0 2 1 25.304478559514855 0.33296083241817975 7.800102721349123 -1 0 0
111 0 1 -1 0.283558152087957 3.9580354869708234 7.629944355578658 0 0 0
106 0 3 1 1.6260333879865767 5.528361948864466 6.540264033475584 0 0 0
495 0 1 -1 6.539337779008417 3.5917814722747656 7.969193048319815 0 0 0
873 0 2 1 11.777225315334048 3.5887577372016737 5.487843293441258 0 0 0
879 0 1 -1 13.169492277028981 4.299754633805293 8.061862276337115 0 0 0
1257 0 3 1 18.7593142214793 4.709919912597064 5.167961722050371 0 0 0
1263 0 1 -1 19.057157142792033 4.332134935157734 8.050799775534365 0 0 0
1259 0 2 1 22.32493510686341 4.0570145060619405 8.007661888397347 0 0 0
112 0 1 -1 0.015924432755074103 6.762417085018654 5.088408931346403 0 0 0
110 0 1 -1 3.1555216675852886 6.49540016810777 7.841378750437297 0 0 0
490 0 2 1 6.461757910928805 6.521094037497669 8.241080289809403 0 0 0
874 0 2 1 12.907608364540003 7.2838665463354175 8.090479173446967 0 0 0
878 0 1 -1 16.06311526494516 7.379460769195757 8.22337272644515 0 0 0
207 0 1 -1 -0.37617746573590083 10.657385559004513 7.630933160799215 0 0 0
203 0 2 1 2.538511435244551 9.530469612563722 7.923118220110672 0 0 0
591 0 1 -1 6.068997464425228 9.90335043196393 7.921768725438525 0 0 0
969 0 3 1 11.551218785887972 9.483308040990531 5.1682148474838865 0 0 0
587 0 2 1 9.299757829240367 10.621709603477811 8.233751832873535 0 0 0
975 0 1 -1 12.783068066417139 10.28747634834615 7.116981128231322 0 0 0
971 0 2 1 15.945015008731286 10.2724584855967 8.14616223314199 0 0 0
1359 0 1 -1 19.25555174032694 10.607258965520595 7.895048920851986 0 0 0
1355 0 2 1 22.497127706337277 10.331985359468957 8.085223278543106 0 0 0
202 0 2 1 -0.1812418442215233 13.81371010679592 8.01966455309929 0 0 0
206 0 1 -1 3.2732395111382337 14.39331281454361 7.677381116524508 0 0 0
586 0 3 1 4.8441067430608 15.083232700569708 6.397676177568234 0 0 0
683 0 3 1 8.153125496992523 15.49657825081673 7.344246813970095 0 0 0
590 0 1 -1 9.52129775320747 13.890618884478286 7.926602413324261 0 0 0
970 0 2 1 12.795979666766492 13.178092565596826 7.892390768313161 0 0 0
972 0 2 1 15.675824843254368 13.304615777671792 5.03427420957257 0 0 0
1354 0 2 1 18.896330165688667 13.942437928831072 8.020620439468685 0 0 0
1358 0 1 -1 21.730363917620565 13.55906164580813 8.045570092437226 0 0 0
301 0 1 -1 2.64469551359022 16.575394828659206 5.553434677052002 0 0 0
299 0 3 1 2.366892282875082 16.662147572739855 7.7952689953500105 0 0 0
681 0 3 1 5.210427276471477 18.771673445400573 7.562940851429072 0 0 0
687 0 1 -1 6.266830748052444 16.465155350511672 7.796190712109345 0 0 0
685 0 1 -1 9.341300942414282 16.410205974467765 5.346695200631835 0 0 0
1065 0 3 1 11.671292723841201 16.238528159417278 6.128075978689323 0 0 0
1067 0 2 1 15.867130232243547 16.8028256849966 8.044784567995261 0 0 0
1449 0 2 1 19.32874916220749 17.01404413540252 5.0130871173927245 0 0 0
1455 0 1 -1 19.10637571931733 17.249373395094693 7.977196114819508 0 0 0
298 0 2 1 -0.3302893705501197 19.46543606796311 7.771866476079975 0 0 0
300 0 2 1 2.8664149606592977 19.55819335891394 5.025548646114893 0 0 0
302 0 1 -1 2.8571060103053987 19.401095884337074 8.054849830012802 0 0 0
688 0 1 -1 5.795577843237223 19.695061272852165 5.741423152927139 0 0 0
682 0 3 1 7.3447130923863675 20.692055631456114 7.821856571999717 0 0 0
1072 0 1 -1 12.22924284446008 19.931056798655717 5.013315024087756 0 0 0
686 0 1 -1 9.52291805744348 20.232282855211018 7.766830953782707 0 0 0
1066 0 2 1 12.411122821613636 20.380023453050377 8.06478046322256 0 0 0
1070 0 1 -1 15.552400482866537 19.9785500946169 8.075543734210834 0 0 0
15 0 1 -1 -0.1469274335901239 22.876926041999532 7.907262292442063 0 -1 0
11 0 2 1 2.661925994849658 22.41571807875851 7.881903432898987 0 -1 0
399 0 1 -1 6.430516075184147 23.01041935607475 7.842908801117501 0 -1 0
395 0 2 1 9.638214265929632 23.851020855075696 7.538971758343651 0 -1 0
777 0 2 1 12.526148353507484 23.082710707091877 5.045305669098988 0 -1 0
781 0 1 -1 15.44255691721835 23.04414859389538 5.075966081254461 0 -1 0
1167 0 1 -1 18.893558984058508 23.186656091934466 8.052668461467222 0 -1 0
779 0 2 1 15.706492016195249 23.24772649801787 8.156770891429144 0 -1 0
1161 0 3 1 19.49859646749414 22.621894373049052 5.590384980255673 0 -1 0
1163 0 2 1 22.089218213979393 22.67225550314307 8.018868588407521 0 -1 0
20 0 2 1 2.784578006671188 0.1204605937577869 11.36472975135379 0 0 0
24 0 1 -1 -0.31410896657168874 0.31866370212697115 11.08223578753788 0 0 0
408 0 1 -1 6.006643501753228 0.21268997557314362 10.60260965351293 0 0 0
491 0 3 1 7.79149291390708 2.3112766085638836 9.90375445830082 0 0 0
398 0 1 -1 9.267639789778965 0.9500527077503003 8.957888646506053 0 0 0
404 0 3 1 10.144999718792274 0.19593871489131376 10.85967596099734 0 0 0
792 0 1 -1 12.370637336827604 0.635137682120434 10.99952590918187 0 0 0
788 0 2 1 15.532274335958853 0.712054624801673 11.472115026452967 0 0 0
1176 0 1 -1 18.783714884948918 1.032180743250098 11.190078655536073 0 0 0
1172 0 2 1 22.334931107292427 0.8443077951629494 11.028643093225616 0 0 0
113 0 2 1 -0.028275672955079045 4.135176053631071 10.976002783223906 0 0 0
107 0 2 1 3.2969623172642457 3.4912679503448536 8.468933626599108 0 0 0
501 0 1 -1 8.82481558738397 4.04231940289908 11.108124878623984 0 0 0
881 0 2 1 11.771233275953977 3.808098232867242 10.680965650237612 0 0 0
875 0 2 1 16.089399661330813 3.853201849190321 8.582504108486983 0 0 0
1269 0 1 -1 22.026124302698005 4.077712760385965 11.098278474806035 0 0 0
1265 0 3 1 19.315793501992125 3.4080577340917335 11.392110343175736 0 0 0
120 0 1 -1 -0.03832659063808869 7.283211508707458 11.31989784258538 0 0 0
116 0 2 1 3.1693864339855105 7.195318279659221 11.21484519082023 0 0 0
504 0 1 -1 6.079956794352459 6.610485936654836 11.255805809761727 0 0 0
497 0 3 1 8.403615831459582 6.2447329852226465 11.164402081320066 0 0 0
494 0 1 -1 9.59213688546108 7.062886614849869 9.225465247884058 0 0 0
500 0 3 1 10.376215527035306 8.516938372631644 11.404931673492749 0 0 0
888 0 1 -1 12.832383833663108 8.312344886946706 10.943156650179075 0 0 0
1258 0 2 1 19.33733737381647 7.417042578197224 8.294380235973662 0 0 0
1272 0 1 -1 18.911420429596742 7.323764921737672 11.388947097814642 0 0 0
1262 0 1 -1 22.37931040069266 6.960385186337514 8.392763352258061 0 0 0
1268 0 2 1 22.407987288513187 7.245111307240492 11.188438102365147 0 0 0
209 0 2 1 -0.2633503622563359 10.411811974874214 10.909267467936246 0 0 0
213 0 1 -1 2.841849635297363 10.410357377222434 11.198164053905263 0 0 0
593 0 2 1 6.286741813955302 10.412918634701606 10.994185531426663 0 0 0
597 0 1 -1 9.69227862388337 10.747766661014165 11.087630540979543 0 0 0
1361 0 2 1 18.849758812514814 10.300298742046051 11.454421096822447 0 0 0
1365 0 1 -1 22.081056719978886 10.209608789535908 10.968992032201937 0 0 0
216 0 1 -1 0.18844940043213987 13.890807880438622 11.260500246695775 0 0 0
212 0 2 1 3.2688816379769055 13.832988985747502 10.989281006494021 0 0 0
600 0 1 -1 6.704710319352876 13.534756021311471 11.328664933693087 0 0 0
596 0 2 1 9.604851939429029 13.69807445923001 11.249230589772875 0 0 0
984 0 1 -1 12.585207686549138 13.276434773695208 11.109094665236954 0 0 0
974 0 1 -1 15.879705271045843 13.304326363119335 8.362619784371443 0 0 0
980 0 2 1 15.771059357452227 13.733383597000008 11.380170786811465 0 0 0
1368 0 1 -1 19.05179998921559 13.596986182207457 11.302153861541463 0 0 0
1364 0 2 1 22.24359985263907 13.4108220473074 11.398630814247701 0 0 0
305 0 3 1 0.5843813646682094 16.32703992176598 11.001383752409396 0 0 0
303 0 1 -1 -0.22066477424899208 16.69649304936791 8.929802026641452 0 0 0
309 0 1 -1 2.828299230504741 16.616605601127667 11.071119359493332 0 0 0
689 0 2 1 6.409561884700754 16.47488535622874 10.64943183155244 0 0 0
693 0 1 -1 9.233491547680009 17.310050568899335 11.327325659406458 0 0 0
1073 0 2 1 12.221196310320853 16.558414193158313 11.300399506996529 0 0 0
1071 0 1 -1 12.561713716525773 16.79234625269384 8.324890844577931 0 0 0
1451 0 3 1 21.094956422719164 17.25178482497943 9.041665192906732 0 0 0
1461 0 1 -1 22.19033163643274 16.50151828280937 11.085393680562461 0 0 0
1460 0 3 1 23.935936234935383 17.63317308653525 10.456493851810041 0 0 0
312 0 1 -1 -0.20398310064832856 19.252745608663027 11.243857871029217 0 0 0
308 0 2 1 3.0968538959706153 19.65041695345139 11.35209152393088 0 0 0
696 0 1 -1 6.534969511769044 19.560344789904555 9.682021695509922 0 0 0
692 0 2 1 9.230543485713628 20.282110042222406 11.13145537682911 0 0 0
1076 0 2 1 15.361898426600954 20.02015577588522 11.133427899105115 0 0 0
1450 0 2 1 18.60155412185242 20.132620069800367 8.76035172216353 0 0 0
1454 0 1 -1 22.229885028272506 19.500248084607804 8.599850109572715 0 0 0
21 0 1 -1 3.4244221845508864 22.633612234228607 10.838738829049595 0 -1 0
401 0 2 1 6.433949372515508 22.79891835515199 10.680812268614883 0 -1 0
405 0 1 -1 9.71727260847045 23.20045483785453 10.768711149293612 0 -1 0
783 0 1 -1 12.6436231297735 23.688158879590766 8.277247194428694 0 -1 0
1169 0 2 1 18.597751626526037 23.011197924634203 11.293685768980264 0 -1 0
1173 0 1 -1 22.15276617454074 23.153611422843085 11.254495717164248 0 -1 0
17 0 2 1 25.281374087175788 23.057497781397345 11.135594499602982 -1 -1 0
18 0 2 1 -0.3208585311020562 0.849353529984608 14.34267771462826 0 0 0
22 0 1 -1 3.19711299509644 0.5263683011043793 14.281072467537197 0 0 0
402 0 2 1 6.385592992714385 0.8296223439757195 14.03435980171741 0 0 0
406 0 1 -1 9.453709262736169 0.763206619224426 14.524039170921501 0 0 0
786 0 2 1 12.63376076400735 1.262158356299527 14.551807910910835 0 0 0
790 0 1 -1 15.712352350788919 1.6126548269229324 14.709067260428835 0 0 0
1170 0 2 1 18.948697575919482 0.8626033690937835 14.381770253458958 0 0 0
1174 0 1 -1 22.34336594310585 1.1592180074644736 14.097467707562798 0 0 0
117 0 1 -1 2.757828798401941 3.9782626151664253 11.643833395974978 0 0 0
119 0 1 -1 -0.26368491402067706 3.956795457454585 13.994455633653757 0 0 0
115 0 2 1 2.8634341739301434 3.836535135021399 14.53315571116351 0 0 0
499 0 2 1 8.97406680513332 4.036557324255484 14.265826582862552 0 0 0
887 0 1 -1 12.352846207139825 4.16087713746581 14.13729536040103 0 0 0
885 0 1 -1 15.470639563497521 4.033040894826557 11.490632381047938 0 0 0
883 0 3 1 15.039444159483635 3.9284963070345693 13.78775952542308 0 0 0
1271 0 1 -1 18.961911145099155 4.248377298299521 13.773724626021995 0 0 0
1267 0 2 1 22.273555043191877 4.237850485451677 14.081756861764093 0 0 0
118 0 1 -1 2.3796938167825537 7.578427791849874 14.24877123365278 0 0 0
114 0 3 1 0.09408983966777029 7.587803014959684 13.651859565474501 0 0 0
498 0 2 1 5.8605092286862135 7.2527040933978855 14.127282552855121 0 0 0
502 0 1 -1 8.924995597927337 7.676826263612989 13.334591939109114 0 0 0
882 0 2 1 12.189822016023282 7.319748951108026 13.967887380699707 0 0 0
886 0 1 -1 15.216305332730673 7.17169585262859 14.336994239408641 0 0 0
884 0 2 1 15.919245829424572 7.485951954123095 11.497607786525792 0 0 0
1266 0 3 1 19.501104575894097 6.247639449383129 13.349078168244436 0 0 0
1270 0 1 -1 21.129269255435958 7.496355864453216 14.404185046081732 0 0 0
211 0 2 1 3.026690527125735 10.42969342951874 14.137924836433235 0 0 0
599 0 1 -1 6.010393010047828 10.780124602555471 14.695257430117152 0 0 0
595 0 2 1 9.146847229836379 10.844621200815258 14.316229167592244 0 0 0
977 0 3 1 13.158969990095096 10.786020805451187 11.619356355224932 0 0 0
983 0 1 -1 12.716508079414927 10.630654540745963 13.948716160549669 0 0 0
981 0 1 -1 15.799001880688508 10.496310926842286 11.705178201663433 0 0 0
1367 0 1 -1 18.91638101130801 11.007973331119583 14.45528520114546 0 0 0
1363 0 2 1 22.09528116739373 10.637288525488408 14.445890939727207 0 0 0
215 0 1 -1 24.99885748221315 9.765131153014824 14.053673177176174 -1 0 0
210 0 2 1 -0.28454407434518836 13.573499665393326 14.407453872637978 0 0 0
214 0 1 -1 2.8604265229293735 13.890519720891328 14.406757863099399 0 0 0
594 0 2 1 5.889687789922839 14.10297707449227 14.418132362727107 0 0 0
598 0 1 -1 9.180777266359037 13.965260245640767 14.396821173168417 0 0 0
978 0 2 1 12.425978457939594 13.948803214520542 14.47211918465609 0 0 0
982 0 1 -1 15.37285908692149 13.572445139044005 14.22561031215356 0 0 0
1362 0 2 1 18.497450791295563 13.88839467422579 14.233591094010226 0 0 0
1366 0 1 -1 22.32804143856441 13.700294743263807 14.219036166555647 0 0 0
307 0 2 1 2.8357763695881633 16.999830685473732 14.505608938463974 0 0 0
695 0 1 -1 5.724659893118889 17.15356758378242 14.221645352829606 0 0 0
691 0 2 1 8.895180228773663 17.337467553472536 14.179843435752748 0 0 0
1079 0 1 -1 12.50426165217996 16.99428527177721 14.518407259117428 0 0 0
1077 0 1 -1 15.865207977635233 16.92198440303965 11.526209570718551 0 0 0
1457 0 3 1 17.60965231741201 18.007513620481426 12.256647061508371 0 0 0
1463 0 1 -1 18.732926413345805 17.150513903741796 14.217270559643064 0 0 0
311 0 1 -1 25.332868871898192 16.78040191764871 13.937712594733 -1 0 0
1459 0 2 1 22.13434559872427 16.733737940718996 14.452197574750992 0 0 0
310 0 1 -1 1.8708612517000711 20.204866576362292 14.119926937668138 0 0 0
1080 0 1 -1 12.120163077738908 19.951826708066235 11.512165072620844 0 0 0
694 0 1 -1 10.121387535546619 20.492203111361874 14.181182020226425 0 0 0
1074 0 3 1 12.325384791417951 19.249031560640802 13.913722841827752 0 0 0
1078 0 1 -1 14.667518760762023 20.14637935903592 14.400685113739117 0 0 0
1464 0 1 -1 18.12285122077266 20.328457144630796 11.689018603196264 0 0 0
306 0 3 1 25.27845725786675 19.102313148503292 13.538198877687405 -1 0 0
1462 0 1 -1 23.506564593271793 20.00677064353755 14.570886995883196 0 0 0
19 0 2 1 3.256778147583754 23.025298611347125 14.216166939148707 0 -1 0
407 0 1 -1 6.550574444414428 23.67925738393722 13.779708942193576 0 -1 0
403 0 2 1 9.894157053121837 23.397269517480332 13.952510738235352 0 -1 0
789 0 1 -1 15.625857643833669 23.420894425302002 11.520560239614776 0 -1 0
785 0 2 1 12.900933968193188 23.235418166430648 11.727270201093567 0 -1 0
1175 0 1 -1 19.089944924369977 23.45350837403158 14.266598227682744 0 -1 0
1171 0 2 1 22.349631789154312 23.34440286553417 14.445319754857888 0 -1 0
28 0 2 1 2.7563898542347394 1.3275717736817638 17.62364164370047 0 0 0
32 0 1 -1 -0.3546413153942978 0.7484170392412706 17.66999415062289 0 0 0
412 0 2 1 9.280899318370192 1.046090278838408 17.3348050960444 0 0 0
1178 0 3 1 16.783842121969442 1.8877295988453002 17.741562540813685 0 0 0
1184 0 1 -1 18.96651836387804 1.0710764408585136 17.313077546392456 0 0 0
1180 0 2 1 22.02351969279044 0.686362483649251 17.891560795491383 0 0 0
121 0 2 1 -0.17395163684138193 4.353030068497548 17.386399334341622 0 0 0
503 0 1 -1 6.024006455207671 3.8783879350265194 14.811313888232437 0 0 0
125 0 1 -1 3.006905761416527 4.768535126880729 17.639773218596716 0 0 0
505 0 2 1 5.955012097028349 4.66399962375477 17.63205636308024 0 0 0
509 0 1 -1 9.508032960887375 4.284229613615108 17.72852030643825 0 0 0
889 0 2 1 12.689936372065743 4.061499806753093 17.224696994954144 0 0 0
893 0 1 -1 15.584708133930214 3.8576220459862354 17.794474295714906 0 0 0
1273 0 2 1 18.851551475581818 4.509859524353086 17.42873853713919 0 0 0
1277 0 1 -1 22.26560141704548 4.557144533100997 17.23760484977876 0 0 0
124 0 2 1 2.623727661165367 8.129442792811634 17.912120312531524 0 0 0
512 0 1 -1 6.164854054096498 7.464867100023949 17.313109970146986 0 0 0
508 0 2 1 9.320907444508585 7.500076765095141 17.60614659500355 0 0 0
896 0 1 -1 12.287268052361425 7.103167450310218 17.3152753182464 0 0 0
892 0 2 1 15.650540875040075 7.198912982028413 17.34581321179185 0 0 0
1280 0 1 -1 18.61732892068047 7.613302490669117 17.459470277353923 0 0 0
1276 0 2 1 21.9588583526633 7.660409037012362 17.408508202279496 0 0 0
128 0 1 -1 25.327730915961013 7.291789549417751 17.562562218119734 -1 0 0
221 0 1 -1 1.4475568149523268 10.926486192499285 16.90848299575093 0 0 0
601 0 3 1 6.650011357700948 10.909048025938468 17.910184600639734 0 0 0
605 0 1 -1 9.277122496855972 10.781571069772847 17.797965312842887 0 0 0
989 0 1 -1 15.412480601880006 10.551149799018736 17.89312612080621 0 0 0
985 0 2 1 12.556276835284262 10.500154627155622 17.419805353719664 0 0 0
979 0 2 1 15.855609083136965 10.25936307551049 14.86850107943836 0 0 0
1369 0 2 1 18.64534443479933 10.784890414513455 17.71387935735331 0 0 0
217 0 3 1 25.193038521649132 9.57124361706341 16.44496687075076 -1 0 0
1373 0 1 -1 23.275928259315833 10.676162652969015 17.898462576817543 0 0 0
224 0 1 -1 -0.3578633824579323 13.889212781859642 17.695579943204685 0 0 0
220 0 2 1 2.921872679818099 13.373995828102263 17.576872979746057 0 0 0
608 0 1 -1 6.17317518421447 13.273956676672453 17.30379431180323 0 0 0
604 0 2 1 9.302798417710678 13.72732603462639 17.621446027657473 0 0 0
992 0 1 -1 12.321784817631393 13.938363192766605 17.48378367366737 0 0 0
988 0 3 1 14.631079674680153 14.119691226542217 17.961094694299916 0 0 0
1376 0 1 -1 18.830590169251213 13.954475315513106 17.88425663238959 0 0 0
1372 0 2 1 22.104450335205193 13.86443957002334 17.54152058216391 0 0 0
313 0 2 1 -0.2836876134440228 17.37024900980883 17.38934308358003 0 0 0
317 0 1 -1 2.8536542871171293 17.16022651654106 17.39104166219396 0 0 0
697 0 2 1 6.160375787657382 17.023295172615775 17.318873611221 0 0 0
701 0 1 -1 9.176368143360945 17.039562487115177 17.602630801437293 0 0 0
1085 0 1 -1 15.373532951415681 16.40121344543566 17.753801233769806 0 0 0
1075 0 2 1 15.760274852015662 16.408533982334006 14.743510346254865 0 0 0
1465 0 2 1 18.96185813099238 17.24504766064709 17.60986193944643 0 0 0
1469 0 1 -1 22.43516801025793 17.046272968293216 17.630574925356083 0 0 0
320 0 1 -1 -0.3243040063020527 20.350823799840867 17.617505742448902 0 0 0
316 0 3 1 -0.030728510801906805 21.037236853255642 15.250994352202376 0 0 0
690 0 2 1 2.8693341893385758 20.197247922055496 17.673264596945394 0 0 0
704 0 1 -1 6.057991195334946 20.272140332278205 17.6551835723745 0 0 0
700 0 2 1 9.108975463160437 20.16870863069734 17.431407210388404 0 0 0
1088 0 1 -1 12.576541458850636 20.70346916330601 17.71191725726606 0 0 0
787 0 3 1 13.774052662815373 21.75540833976897 15.888014329875741 0 -1 0
1458 0 2 1 17.496460014100574 20.80669207428933 15.028162716471638 0 0 0
1472 0 1 -1 19.199448953677727 20.368586726854666 17.809196738093032 0 0 0
1468 0 2 1 22.17868423395266 20.368904374382033 17.22513220249319 0 0 0
23 0 1 -1 -0.38184148064474394 23.322464499155267 15.197139587256359 0 -1 0
29 0 1 -1 3.349737821363842 23.34678306478333 17.296518557009154 0 -1 0
409 0 2 1 6.552242058150541 23.643946278925192 17.169856423578853 0 -1 0
791 0 1 -1 12.971397107899906 23.895063435962996 14.842603916310107 0 -1 0
796 0 2 1 14.114260665744837 24.764613586052377 17.535238337010135 0 -1 0
797 0 1 -1 15.962900500154255 22.37200763048542 17.483168943687186 0 -1 0
1177 0 2 1 18.71861315496464 23.499492888676983 17.78063561479927 0 -1 0
1181 0 1 -1 21.76265570060473 23.381393461368766 17.7917662530295 0 -1 0
25 0 3 1 25.114338055974514 22.878104334192976 17.854667099666106 -1 -1 0
26 0 2 1 -0.2474997119077841 0.9443694899367432 20.720820684124885 0 0 0
30 0 1 -1 3.047919862323514 1.3919806550116884 20.765435034561392 0 0 0
410 0 3 1 5.287541396867616 1.8825915471481376 20.208941097735647 0 0 0
416 0 1 -1 6.125923556292299 1.3279131328613893 18.03674148153402 0 0 0
414 0 1 -1 9.263605742912173 0.8876331236287414 20.636514709255017 0 0 0
800 0 1 -1 12.0606285041739 1.4820822638173063 18.140517782156323 0 0 0
794 0 3 1 11.459885554779552 1.7661092224719743 20.506496682361128 0 0 0
798 0 1 -1 16.08527513263141 0.8375485251640942 19.53333498552726 0 0 0
795 0 3 1 17.737615793764977 0.07456463697591403 21.07392146959903 0 0 0
1182 0 1 -1 22.47172830476867 0.8325958978133976 21.12084837553638 0 0 0