LAMMPS (2 Aug 2023)
OMP_NUM_THREADS environment is not set. Defaulting to 1 thread. (src/comm.cpp:98)
  using 1 OpenMP thread(s) per MPI task
read_restart    ../structure.ready
Reading restart file ...
  restart file = 2 Aug 2023, LAMMPS = 2 Aug 2023
  restoring atom style full from restart
  orthogonal box = (-0.38706367 -0.34859865 -23.970409) to (20.724042 20.685577 84.981345)
  1 by 1 by 1 MPI processor grid
  pair style chgnet/gpu stores no restart info
  1536 atoms
Finding 1-2 1-3 1-4 neighbors ...
  special bond factors lj:    0        0        0       
  special bond factors coul:  0        0        0       
     0 = max # of 1-2 neighbors
     0 = max # of 1-3 neighbors
     0 = max # of 1-4 neighbors
     1 = max # of special neighbors
  special bonds CPU = 0.003 seconds
  read_restart CPU = 0.084 seconds

pair_style      chgnet/gpu /ocean/projects/cts180021p/wuziqi/clease/lammps-ASC/potentials/CHGNET
pair_coeff      * * MPtrj-efsm Cl Li

neighbor        0.3 bin
neigh_modify    delay 10

timestep	    0.001
compute	        msd all msd
Resetting peratom fix info from restart file:
  fix style: STORE/ATOM, fix ID: msd_COMPUTE_STORE
thermo_style	custom step temp pe etotal press vol c_msd[4]
thermo	        10
dump	        1 all custom 10 xyz-mix.dump type id x y z
dump	        2 all custom 10 force-mix.dump type id fx fy fz

fix             2 gLiquid npt temp 1500 1200.0 $(100.0*dt) z 1.01325 1.01325 $(1000.0*dt) couple none
fix             2 gLiquid npt temp 1500 1200.0 0.10000000000000000555 z 1.01325 1.01325 $(1000.0*dt) couple none
fix             2 gLiquid npt temp 1500 1200.0 0.10000000000000000555 z 1.01325 1.01325 1 couple none
run             10000
All restart file peratom fix info was re-assigned
Neighbor list info ...
  update: every = 1 steps, delay = 10 steps, check = yes
  max neighbors/atom: 2000, page size: 100000
  master list distance cutoff = 6.3
  ghost atom cutoff = 6.3
  binsize = 3.15, bins = 7 7 35
  1 neighbor lists, perpetual/occasional/extra = 1 0 0
  (1) pair chgnet/gpu, perpetual
      attributes: full, newton on
      pair build: full/bin
      stencil: full/bin/3d
      bin: standard
Per MPI rank memory allocation (min/avg/max) = 6.575 | 6.575 | 6.575 Mbytes
   Step          Temp          PotEng         TotEng         Press          Volume        c_msd[4]   
     20000   1521.5156     -5661.2355     -5359.345      -7767.4025      48380.541      223.43501    
     20010   1539.1886     -5664.8115     -5359.4145     -7909.2105      48380.82       223.68597    
     20020   1530.8141     -5663.3328     -5359.5973     -7978.2929      48381.535      223.94995    
     20030   1522.4695     -5661.9716     -5359.8918     -7872.4257      48382.571      224.22609    
     20040   1502.8527     -5658.4464     -5360.2589     -7566.2859      48384.128      224.51773    
     20050   1477.8261     -5653.8794     -5360.6575     -7574.6775      48386.607      224.83237    
     20060   1494.4619     -5657.5551     -5361.0324     -8285.327       48390.148      225.17381    
     20070   1491.7212     -5657.3785     -5361.3997     -8562.7309      48394.185      225.55342    
     20080   1469.1548     -5653.2466     -5361.7452     -7968.0912      48398.411      225.93159    
     20090   1485.7523     -5656.8384     -5362.0438     -7679.2067      48403.233      226.28301    
     20100   1510.3843     -5662.0239     -5362.342      -8103.0236      48408.8        226.60454    
     20110   1508.7338     -5662.0598     -5362.7054     -8542.9054      48414.992      226.92409    
     20120   1534.3671     -5667.6361     -5363.1957     -8753.8313      48421.648      227.25755    
     20130   1530.61       -5667.5771     -5363.8822     -8382.8674      48428.845      227.61727    
     20140   1512.7587     -5664.9723     -5364.8193     -7913.7137      48436.893      228.01494    
     20150   1506.4577     -5664.8635     -5365.9607     -7570.355       48445.841      228.44461    
     20160   1490.6751     -5663.079      -5367.3077     -7413.9882      48455.436      228.89379    
     20170   1489.8965     -5664.4244     -5368.8076     -7725.2808      48465.549      229.34079    
     20180   1509.0096     -5669.9055     -5370.4964     -8492.1499      48476.238      229.7631     
     20190   1499.1095     -5669.7686     -5372.3237     -8685.0843      48487.413      230.16863    
     20200   1501.0199     -5672.0665     -5374.2427     -8695.1206      48499.01       230.58981    
     20210   1472.9968     -5668.3363     -5376.0726     -8340.1281      48510.798      231.01947    
     20220   1451.2822     -5665.6289     -5377.6737     -8172.2159      48522.411      231.48414    
     20230   1473.1248     -5671.3132     -5379.0242     -8458.9013      48533.633      231.98124    
     20240   1458.7691     -5669.543      -5380.1023     -8878.7982      48544.742      232.44337    
     20250   1445.7649     -5667.7991     -5380.9386     -9359.721       48555.977      232.84116    
     20260   1460.7805     -5671.3594     -5381.5196     -9985.3762      48567.073      233.21644    
     20270   1445.9198     -5668.7794     -5381.8882     -10073.169      48577.604      233.57223    
     20280   1433.6705     -5666.5459     -5382.0851     -9651.3704      48587.508      233.89731    
     20290   1418.9929     -5663.6111     -5382.0626     -9157.2302      48596.841      234.22487    
     20300   1423.943      -5664.3267     -5381.796      -8808.0994      48605.564      234.54623    
     20310   1454.3603     -5669.926      -5381.3601     -8649.5819      48613.812      234.86195    
     20320   1457.2847     -5669.9722     -5380.826      -8035.6797      48621.731      235.20759    
     20330   1448.1861     -5667.5544     -5380.2136     -7902.0918      48629.675      235.57756    
     20340   1452.2198     -5667.6614     -5379.5202     -8256.8567      48638.019      235.9498     
     20350   1447.0349     -5665.8724     -5378.76       -8351.3428      48647.055      236.32524    
     20360   1463.8888     -5668.3682     -5377.9117     -8678.0654      48656.967      236.73684    
     20370   1477.2937     -5670.1311     -5377.0149     -9143.8522      48667.349      237.17502    
     20380   1465.6416     -5666.9557     -5376.1514     -9117.7301      48677.634      237.62056    
     20390   1457.8795     -5664.55       -5375.2859     -8846.2214      48688.008      238.05562    
     20400   1451.087      -5662.303      -5374.3865     -8539.463       48698.939      238.46347    
     20410   1477.8673     -5666.6938     -5373.4638     -8870.2518      48710.585      238.83233    
     20420   1469.7887     -5664.1908     -5372.5637     -8811.1767      48722.732      239.15835    
     20430   1450.8496     -5659.5593     -5371.69       -8493.5847      48735.518      239.45113    
     20440   1450.6872     -5658.6365     -5370.7993     -8213.4703      48749.329      239.72718    
     20450   1460.0241     -5659.5787     -5369.889      -8081.0143      48764.155      240.00884    
     20460   1479.1135     -5662.4403     -5368.963      -8425.3805      48779.574      240.32732    
     20470   1498.3692     -5665.4143     -5368.1164     -8927.5715      48795.209      240.70177    
     20480   1485.8482     -5662.1862     -5367.3726     -8903.2669      48810.919      241.09545    
     20490   1498.9447     -5664.1674     -5366.7553     -8868.055       48826.611      241.50292    
     20500   1505.7854     -5664.9873     -5366.2179     -8844.5698      48842.271      241.94505    
     20510   1509.9478     -5665.4176     -5365.8223     -8730.1399      48858.208      242.43175    
     20520   1478.8955     -5658.9675     -5365.5335     -8155.6473      48874.767      242.92377    
     20530   1484.2102     -5659.752      -5365.2634     -7994.2164      48892.003      243.38651    
     20540   1538.0972     -5670.2322     -5365.0517     -8252.6052      48909.868      243.84841    
     20550   1520.173      -5666.5983     -5364.9742     -8007.7243      48928.262      244.3073     
     20560   1512.5697     -5665.1993     -5365.0839     -8069.4897      48947.174      244.77855    
     20570   1508.1204     -5664.5028     -5365.2701     -8080.0312      48966.613      245.28818    
     20580   1502.6654     -5663.7074     -5365.5571     -8284.3219      48986.713      245.82392    
     20590   1498.7544     -5663.2654     -5365.8911     -8701.1057      49007.421      246.35575    
     20600   1510.4356     -5665.9647     -5366.2727     -9000.0747      49028.113      246.90093    
     20610   1495.8824     -5663.5305     -5366.726      -8611.7467      49048.249      247.44278    
     20620   1487.0127     -5662.2795     -5367.2349     -8380.6614      49067.95       247.95934    
     20630   1490.3338     -5663.4778     -5367.7742     -8290.6561      49087.623      248.44572    
     20640   1503.7936     -5666.7297     -5368.3555     -8412.0249      49107.775      248.96221    
     20650   1493.2135     -5665.2832     -5369.0083     -8225.5261      49128.361      249.58892    
     20660   1457.5145     -5658.8928     -5369.7011     -7730.965       49149.133      250.30127    
     20670   1458.1539     -5659.6351     -5370.3165     -7774.3705      49170.395      251.05085    
     20680   1482.2267     -5664.9902     -5370.8952     -7973.9001      49192.314      251.80542    
     20690   1476.6479     -5664.4365     -5371.4484     -7644.6582      49214.772      252.53651    
     20700   1508.9897     -5671.4733     -5372.0681     -7803.4093      49237.817      253.25405    
     20710   1508.8781     -5672.1951     -5372.812      -7857.5247      49261.443      253.98476    
     20720   1491.3046     -5669.5605     -5373.6644     -7987.9642      49285.625      254.71638    
     20730   1488.0484     -5669.8568     -5374.6067     -8215.4579      49310.4        255.45249    
     20740   1478.2309     -5668.9277     -5375.6256     -8331.9884      49335.383      256.19849    
     20750   1449.012      -5664.1545     -5376.6498     -8478.7191      49360.11       256.95251    
     20760   1435.301      -5662.4103     -5377.626      -8878.852       49384.545      257.70951    
     20770   1426.258      -5661.4893     -5378.4992     -9453.3083      49408.464      258.44089    
     20780   1418.0096     -5660.5822     -5379.2287     -9668.2807      49431.538      259.10047    
     20790   1438.9433     -5665.3491     -5379.8422     -9667.4927      49453.891      259.69391    
     20800   1459.7169     -5670.022      -5380.3932     -9451.9973      49475.618      260.24067    
     20810   1440.0844     -5666.6521     -5380.9187     -8854.3216      49496.67       260.74707    
     20820   1420.545      -5663.2581     -5381.4016     -8371.9545      49517.303      261.21102    
     20830   1417.8067     -5663.1031     -5381.79       -8213.8319      49537.976      261.63603    
     20840   1425.9285     -5664.9983     -5382.0736     -8497.0657      49559.024      262.0499     
     20850   1418.6006     -5663.6964     -5382.2257     -8837.2341      49580.144      262.49285    
     20860   1422.678      -5664.5054     -5382.2257     -9217.5806      49600.907      262.97372    
     20870   1438.0138     -5667.3344     -5382.0118     -9513.1518      49621.016      263.45915    
     20880   1435.1361     -5666.3401     -5381.5885     -9149.5203      49640.225      263.91309    
     20890   1405.1114     -5659.689      -5380.8947     -8469.3156      49659.135      264.33477    
     20900   1419.9764     -5661.6079     -5379.8643     -8616.2159      49678.599      264.75818    
     20910   1419.1708     -5659.9907     -5378.4069     -9107.8392      49698.411      265.20473    
     20920   1446.2094     -5663.5854     -5376.6368     -9631.1943      49717.682      265.63314    
     20930   1456.4128     -5663.6536     -5374.6804     -9815.599       49735.566      266.04248    
     20940   1432.772      -5656.9753     -5372.6929     -9531.9196      49751.77       266.47727    
     20950   1471.4974     -5662.7366     -5370.7704     -9905.1204      49766.881      266.94185    
     20960   1461.4641     -5658.9115     -5368.9361     -9932.1126      49781.087      267.42506    
     20970   1485.9814     -5662.1704     -5367.3304     -9844.4549      49794.606      267.92899    
     20980   1471.321      -5657.8422     -5365.911      -9252.4742      49807.737      268.45563    
     20990   1467.1322     -5655.7749     -5364.6749     -8947.5887      49821.002      269.00333    
     21000   1517.1675     -5664.5951     -5363.5673     -9453.9112      49834.641      269.56149    
     21010   1501.8817     -5660.655      -5362.6602     -9307.5219      49848.341      270.08922    
     21020   1482.1107     -5656.0518     -5361.9798     -8955.4536      49862.001      270.55707    
     21030   1446.0519     -5648.2584     -5361.341      -8577.39        49875.715      271.01168    
     21040   1443.4009     -5647.1093     -5360.7178     -8644.3412      49889.961      271.50092    
     21050   1451.5764     -5648.0211     -5360.0076     -8970.014       49904.759      272.02555    
     21060   1445.0322     -5645.9509     -5359.2358     -9270.4906      49919.466      272.54494    
     21070   1465.9794     -5649.3047     -5358.4334     -9510.6765      49933.575      273.02744    
     21080   1484.2957     -5652.0861     -5357.5805     -9138.3813      49947.268      273.48232    
     21090   1480.0548     -5650.4832     -5356.8191     -8429.4569      49960.875      273.92292    
     21100   1465.2022     -5646.8053     -5356.0882     -8229.0937      49974.775      274.38162    
     21110   1487.9375     -5650.6315     -5355.4034     -8760.9383      49989.202      274.8839     
     21120   1498.9881     -5652.182      -5354.7613     -9061.6832      50003.739      275.34489    
     21130   1500.1373     -5651.9041     -5354.2553     -8790.4395      50018.086      275.72723    
     21140   1534.2765     -5658.29       -5353.8676     -8627.7608      50032.697      276.09891    
     21150   1537.928      -5658.8467     -5353.6997     -8096.2677      50047.802      276.50681    
     21160   1544.5006     -5660.2668     -5353.8158     -7817.694       50063.86       276.96255    
     21170   1571.2055     -5666.0248     -5354.2751     -8379.0094      50080.937      277.40935    
     21180   1541.7619     -5661.0026     -5355.0949     -8661.179       50097.91       277.81378    
     21190   1517.5797     -5657.3309     -5356.2214     -8822.2576      50113.841      278.20959    
     21200   1520.5877     -5659.259      -5357.5527     -9274.7011      50128.414      278.59269    
     21210   1507.0928     -5658.1318     -5359.103      -9490.8141      50141.559      278.9596     
     21220   1460.446      -5650.4714     -5360.698      -9358.7056      50153.336      279.32872    
     21230   1443.4176     -5648.5748     -5362.1801     -9459.2343      50163.645      279.68854    
     21240   1451.8211     -5651.5272     -5363.4651     -9824.9583      50172.435      280.05005    
     21250   1431.3942     -5648.5825     -5364.5734     -9844.9303      50179.646      280.40492    
     21260   1421.0422     -5647.4242     -5365.4691     -9851.4476      50185.438      280.72632    
     21270   1418.2496     -5647.5271     -5366.1261     -9721.3266      50189.927      281.01965    
     21280   1417.7695     -5647.89       -5366.5842     -9684.1839      50193.302      281.27786    
     21290   1440.3354     -5652.6628     -5366.8797     -9784.8038      50195.797      281.47769    
     21300   1457.2205     -5656.2184     -5367.085      -9682.8856      50197.509      281.66623    
     21310   1456.1489     -5656.1635     -5367.2427     -9166.405       50198.583      281.89688    
     21320   1470.2375     -5659.0975     -5367.3814     -8926.5996      50199.129      282.16109    
     21330   1479.2193     -5661.0681     -5367.5698     -9045.2403      50199.358      282.46604    
     21340   1466.7006     -5658.8035     -5367.7891     -9224.9783      50199.357      282.80545    
     21350   1470.7523     -5659.8549     -5368.0365     -9509.7682      50198.812      283.17363    
     21360   1492.2441     -5664.4482     -5368.3656     -9380.8962      50197.406      283.54841    
     21370   1470.0431     -5660.4386     -5368.761      -8777.1261      50195.645      283.90095    
     21380   1467.5282     -5660.3884     -5369.2098     -8659.6746      50194.515      284.22726    
     21390   1457.9923     -5658.9686     -5369.6821     -8802.2527      50194.305      284.51962    
     21400   1457.6948     -5659.4238     -5370.1963     -8868.2068      50194.644      284.75758    
     21410   1440.6785     -5656.5117     -5370.6605     -8777.8332      50195.237      284.96247    
     21420   1455.3465     -5659.89       -5371.1284     -8874.9347      50195.973      285.16807    
     21430   1451.433      -5659.5568     -5371.5717     -8822.3908      50196.531      285.39881    
     21440   1468.793      -5663.4855     -5372.0559     -9208.4541      50196.772      285.64329    
     21450   1455.3621     -5661.3501     -5372.5854     -9258.1269      50196.481      285.89297    
     21460   1432.7787     -5657.4141     -5373.1302     -9062.6753      50195.614      286.14243    
     21470   1423.3834     -5656.0609     -5373.6413     -8889.6943      50194.707      286.37685    
     21480   1405.613      -5652.9899     -5374.0961     -8903.3889      50194.537      286.6051     
     21490   1371.5146     -5646.5087     -5374.3805     -8993.1073      50195.36       286.82487    
     21500   1393.9401     -5651.0006     -5374.4229     -9716.0031      50196.6        287.02325    
     21510   1433.2308     -5658.6207     -5374.2472     -10369.319      50197.392      287.22792    
     21520   1450.7992     -5661.8009     -5373.9416     -10216.75       50197.165      287.42652    
     21530   1443.7358     -5659.9775     -5373.5197     -9479.1553      50195.857      287.58409    
     21540   1460.3437     -5662.764      -5373.0109     -8915.8476      50193.955      287.74181    
     21550   1465.9233     -5663.2405     -5372.3803     -8686.8215      50191.726      287.91083    
     21560   1457.6544     -5660.8828     -5371.6633     -8503.5503      50189.143      288.06516    
     21570   1443.8208     -5657.2771     -5370.8024     -8289.739       50186.406      288.2185     
     21580   1422.5752     -5651.981      -5369.7217     -8089.7915      50183.818      288.35728    
     21590   1468.4868     -5659.8091     -5368.4403     -8563.8617      50181.372      288.49074    
     21600   1481.4804     -5660.9312     -5366.9842     -8595.6121      50178.962      288.64403    
     21610   1467.6357     -5656.7472     -5365.5472     -8673.6535      50176.518      288.81606    
     21620   1473.8265     -5656.5399     -5364.1116     -9017.9304      50173.631      288.9959     
     21630   1485.6507     -5657.5056     -5362.7312     -8886.9564      50170.117      289.21175    
     21640   1489.7201     -5657.0493     -5361.4675     -8278.5509      50166.494      289.44575    
     21650   1504.2185     -5658.8159     -5360.3574     -7977.1643      50163.503      289.6839     
     21660   1529.4476     -5662.9384     -5359.474      -8084.7048      50161.141      289.95216    
     21670   1506.6433     -5657.8286     -5358.889      -8064.1692      50158.934      290.23911    
     21680   1460.002      -5648.2108     -5358.5255     -8123.3741      50156.935      290.53676    
     21690   1467.6116     -5649.4739     -5358.2787     -8578.1888      50155.564      290.85951    
     21700   1438.9159     -5643.5358     -5358.0342     -8748.4157      50155.16       291.18489    
     21710   1445.9938     -5644.6827     -5357.7769     -9166.5994      50155.753      291.49113    
     21720   1464.7964     -5648.15       -5357.5134     -9799.7666      50156.542      291.74901    
     21730   1467.1982     -5648.4053     -5357.2921     -10132.956      50156.527      291.9662     
     21740   1464.6762     -5647.7428     -5357.1301     -10332.067      50155.101      292.17535    
     21750   1469.8659     -5648.6858     -5357.0433     -10385.178      50151.943      292.3657     
     21760   1451.3428     -5644.9669     -5356.9997     -9904.7459      50147.129      292.54426    
     21770   1477.0752     -5650.0833     -5357.0104     -9828.9474      50141.222      292.71222    
     21780   1516.9186     -5658.1132     -5357.1348     -9963.581       50134.353      292.88778    
     21790   1523.6691     -5659.8655     -5357.5477     -9549.9463      50126.284      293.06139    
     21800   1489.2469     -5653.7439     -5358.256      -8942.3116      50117.347      293.1813     
     21810   1491.4479     -5655.1465     -5359.2219     -9107.2922      50108.352      293.22947    
     21820   1486.0611     -5655.3387     -5360.4829     -9347.7999      50099.349      293.22118    
     21830   1452.5188     -5650.1393     -5361.9387     -8979.0562      50090.195      293.15762    
     21840   1433.7413     -5647.9636     -5363.4888     -8890.8149      50081.309      293.08051    
     21850   1440.4181     -5650.8677     -5365.0681     -9206.0891      50072.675      293.04512    
     21860   1463.0133     -5656.9175     -5366.6347     -9882.0177      50063.479      293.0432     
     21870   1477.217      -5661.3739     -5368.2729     -10333.381      50052.967      293.05577    
     21880   1469.5106     -5661.4468     -5369.8748     -10086.89       50041.027      293.07105    
     21890   1465.9646     -5662.2894     -5371.4211     -10126.949      50027.711      293.0854     
     21900   1463.5775     -5663.2357     -5372.841      -10559.02       50013.22       293.06235    
     21910   1447.9795     -5661.3765     -5374.0766     -10409.151      49997.621      292.9646     
     21920   1429.2518     -5658.6713     -5375.0872     -9949.805       49981.305      292.80644    
     21930   1420.6117     -5657.7316     -5375.8619     -9528.6263      49965.048      292.64189    
     21940   1403.8993     -5654.9297     -5376.376      -8887.2619      49949.309      292.50809    
     21950   1417.7922     -5658.0271     -5376.7168     -8682.6122      49934.219      292.4094     
     21960   1428.7324     -5660.4012     -5376.9203     -8625.2605      49919.881      292.34248    
     21970   1418.2035     -5658.4493     -5377.0575     -8493.9321      49906.458      292.29513    
     21980   1413.5021     -5657.5573     -5377.0982     -8443.5502      49893.978      292.23641    
     21990   1451.049      -5665.0034     -5377.0945     -9082.8432      49882.154      292.11497    
     22000   1436.44       -5662.1038     -5377.0935     -9105.1515      49870.314      291.92261    
     22010   1412.4206     -5657.3192     -5377.0747     -8956.6553      49857.981      291.67539    
     22020   1409.2745     -5656.5806     -5376.9603     -9075.4856      49845.013      291.44375    
     22030   1424.6378     -5659.448      -5376.7795     -8888.958       49831.484      291.26096    
     22040   1420.6395     -5658.4087     -5376.5335     -8423.6417      49817.379      291.10366    
     22050   1423.5787     -5658.6775     -5376.2191     -7978.3728      49802.807      290.92857    
     22060   1436.4084     -5660.866      -5375.862      -7959.964       49788.241      290.73714    
     22070   1438.8498     -5660.9678     -5375.4794     -7967.9923      49773.782      290.57096    
     22080   1439.0424     -5660.632      -5375.1053     -8219.7368      49759.408      290.43846    
     22090   1427.8669     -5658.0125     -5374.7032     -8267.8789      49745.09       290.32304    
     22100   1440.8868     -5660.1753     -5374.2827     -8515.9512      49731.05       290.22813    
     22110   1426.6003     -5656.8428     -5373.7848     -8419.5133      49717.533      290.15289    
     22120   1442.5784     -5659.5194     -5373.2912     -8776.6572      49704.582      290.10632    
     22130   1443.3188     -5659.1726     -5372.7975     -9131.5692      49691.812      290.06693    
     22140   1413.9785     -5652.8478     -5372.2942     -9101.4967      49678.84       290.02137    
     22150   1424.6588     -5654.3796     -5371.7069     -9275.3693      49665.673      289.98409    
     22160   1435.645      -5655.8844     -5371.0319     -9358.9885      49652.035      289.91591    
     22170   1443.2165     -5656.6538     -5370.299      -9192.3109      49637.946      289.79783    
     22180   1449.2224     -5657.0757     -5369.5292     -8906.9669      49623.739      289.6319     
     22190   1466.8212     -5659.8051     -5368.7667     -8929.7843      49609.632      289.43312    
     22200   1458.34       -5657.3925     -5368.0369     -8565.3237      49595.888      289.26948    
     22210   1451.7779     -5655.3809     -5367.3273     -8318.8955      49582.975      289.15306    
     22220   1466.6688     -5657.6741     -5366.666      -8678.0917      49570.869      289.03929    
     22230   1487.8258     -5661.2941     -5366.0881     -9117.9001      49558.998      288.93175    
     22240   1487.639      -5660.7832     -5365.6143     -9114.149       49546.929      288.85619    
     22250   1478.449      -5658.6519     -5365.3064     -8528.3531      49534.648      288.81895    
     22260   1463.8364     -5655.564      -5365.1179     -7872.3613      49522.573      288.81165    
     22270   1511.7698     -5665.0562     -5365.0994     -8062.8788      49511.122      288.81228    
     22280   1502.0349     -5663.3496     -5365.3244     -7907.402       49500.157      288.84286    
     22290   1473.0719     -5658.1659     -5365.8873     -7716.081       49489.898      288.89876    
     22300   1475.7266     -5659.5458     -5366.7405     -8247.8702      49480.729      288.95754    
     22310   1482.9961     -5662.1821     -5367.9345     -9124.517       49472.419      289.00668    
     22320   1452.9549     -5657.7601     -5369.4731     -9537.0297      49464.324      289.04357    
     22330   1451.8729     -5659.3843     -5371.3119     -9657.552       49455.584      289.06429    
     22340   1428.8752     -5656.8003     -5373.291      -9150.6019      49445.777      289.07126    
     22350   1424.3886     -5657.8942     -5375.2751     -8798.0093      49435.457      289.08115    
     22360   1412.7661     -5657.4067     -5377.0937     -8502.7174      49425.279      289.11091    
     22370   1432.2927     -5662.9362     -5378.7488     -8531.4182      49415.587      289.09949    
     22380   1427.7432     -5663.4265     -5380.1418     -8539.0447      49406.4        289.02037    
     22390   1447.3003     -5668.5765     -5381.4114     -9116.9774      49397.717      288.93941    
     22400   1413.2154     -5662.871      -5382.4688     -8819.137       49389.373      288.87461    
     22410   1420.548      -5665.2089     -5383.3518     -8784.25        49381.826      288.82594    
     22420   1417.878      -5665.4084     -5384.0812     -9054.444       49375.025      288.82231    
     22430   1414.9513     -5665.4509     -5384.7043     -9694.8915      49368.043      288.8637     
     22440   1389.6277     -5660.907      -5385.185      -10038.764      49359.911      288.94952    
     22450   1403.5966     -5664.0146     -5385.521      -10194.96       49350.306      289.02906    
     22460   1420.4485     -5667.6021     -5385.7647     -10169.567      49339.454      289.03771    
     22470   1420.6333     -5667.8295     -5385.9555     -9964.6491      49327.658      288.99031    
     22480   1407.5138     -5665.3839     -5386.113      -9799.5062      49314.9        288.92138    
     22490   1416.9294     -5667.3311     -5386.192      -9979.9275      49301.322      288.81159    
     22500   1429.5431     -5669.8898     -5386.2479     -10163.69       49286.96       288.66961    
     22510   1431.9245     -5670.4464     -5386.3321     -10062.92       49271.405      288.53377    
     22520   1440.3819     -5672.2632     -5386.4708     -9934.1881      49254.424      288.39688    
     22530   1436.2984     -5671.6201     -5386.6379     -9752.022       49236.119      288.24003    
     22540   1443.4457     -5673.278      -5386.8777     -9694.2022      49216.516      288.04754    
     22550   1400.0332     -5664.954      -5387.1673     -8886.5225      49195.546      287.87291    
     22560   1380.8657     -5661.3582     -5387.3746     -8336.8141      49173.594      287.72389    
     22570   1399.0516     -5665.0573     -5387.4654     -8528.0429      49151.111      287.52359    
     22580   1411.6568     -5667.5303     -5387.4373     -8870.0331      49128.383      287.26862    
     22590   1437.2737     -5672.5913     -5387.4156     -9535.1793      49105.308      287.00032    
     22600   1414.0372     -5667.9683     -5387.403      -9451.8179      49081.654      286.72979    
     22610   1405.5604     -5666.2471     -5387.3638     -9268.9258      49057.547      286.47206    
     22620   1440.0473     -5673.0227     -5387.2967     -9377.7693      49032.9        286.23894    
     22630   1457.6265     -5676.4852     -5387.2713     -9087.6503      49007.402      286.01468    
     22640   1433.9347     -5671.8545     -5387.3413     -8228.5604      48981.08       285.75279    
     22650   1425.7814     -5670.3724     -5387.477      -7944.5833      48954.427      285.39366    
     22660   1432.9427     -5671.9849     -5387.6685     -8523.2119      48927.917      284.95907    
     22670   1393.2527     -5664.3245     -5387.8832     -8650.5277      48901.516      284.5038     
     22680   1372.2288     -5660.2972     -5388.0274     -8700.8337      48875.323      284.03575    
     22690   1398.5838     -5665.5432     -5388.0442     -9058.6443      48849.491      283.57001    
     22700   1409.4598     -5667.6405     -5387.9835     -9247.9083      48823.966      283.16194    
     22710   1409.0672     -5667.4417     -5387.8625     -9150.5128      48798.592      282.8362     
     22720   1418.1841     -5669.072      -5387.684      -8859.6735      48773.42       282.5613     
     22730   1422.6929     -5669.7334     -5387.4508     -8327.5799      48748.732      282.31479    
     22740   1446.1067     -5674.1407     -5387.2125     -8217.2291      48724.486      282.06737    
     22750   1448.9216     -5674.5381     -5387.0513     -8101.8386      48700.496      281.78106    
     22760   1430.6298     -5670.8353     -5386.9779     -8080.8046      48676.657      281.47855    
     22770   1396.7254     -5664.0465     -5386.9162     -7804.3842      48653.342      281.20216    
     22780   1423.0254     -5669.165      -5386.8164     -7946.1982      48631.181      280.96215    
     22790   1425.612      -5669.5529     -5386.691      -7771.2463      48610.404      280.75811    
     22800   1433.2499     -5670.9712     -5386.5939     -7794.7859      48590.635      280.59649    
     22810   1442.5961     -5672.7898     -5386.5581     -8068.4691      48571.427      280.46959    
     22820   1413.12       -5666.9703     -5386.5871     -7860.9147      48552.799      280.3663     
     22830   1423.8263     -5669.1661     -5386.6586     -7860.2146      48535.283      280.26672    
     22840   1408.8116     -5666.2485     -5386.7201     -7688.5373      48519.066      280.1412     
     22850   1399.0616     -5664.349      -5386.7551     -7834.0542      48504.102      279.98707    
     22860   1429.5943     -5670.4644     -5386.8124     -8658.0182      48490.088      279.81075    
     22870   1398.1638     -5664.2834     -5386.8677     -8563.4838      48476.257      279.64622    
     22880   1396.8997     -5664.0762     -5386.9113     -8179.82        48462.518      279.53108    
     22890   1423.6399     -5669.3646     -5386.8941     -8103.7251      48449.368      279.46455    
     22900   1448.8753     -5674.3901     -5386.9125     -8143.7619      48437.25       279.41254    
     22910   1474.2171     -5679.5779     -5387.0721     -8267.5067      48426.164      279.35456    
     22920   1485.9092     -5682.2981     -5387.4724     -8447.9255      48415.762      279.32526    
     22930   1470.1773     -5679.891      -5388.1868     -8595.2992      48405.876      279.36379    
     22940   1433.8098     -5673.6204     -5389.132      -8702.7492      48396.572      279.46568    
     22950   1422.7892     -5672.5316     -5390.2299     -8977.2352      48388.053      279.58859    
     22960   1435.2095     -5676.1996     -5391.4335     -9218.4743      48380.015      279.67676    
     22970   1414.2538     -5673.3428     -5392.7346     -9227.2233      48371.821      279.68089    
     22980   1397.2824     -5671.2902     -5394.0493     -9137.6829      48363.37       279.58985    
     22990   1390.079      -5671.0748     -5395.2632     -8982.5009      48354.894      279.45175    
     23000   1391.4479     -5672.4822     -5396.399      -9105.9887      48346.501      279.32399    
     23010   1379.7933     -5671.1462     -5397.3755     -9284.8883      48338.168      279.22316    
     23020   1375.3611     -5671.1093     -5398.2179     -9425.8872      48329.606      279.12077    
     23030   1344.7173     -5665.6882     -5398.8771     -9449.3333      48320.482      279.04483    
     23040   1353.8128     -5667.9342     -5399.3184     -9691.5674      48310.51       279.03036    
     23050   1356.3945     -5668.6908     -5399.5627     -9137.0016      48299.447      279.05799    
     23060   1363.2478     -5670.1051     -5399.6172     -8312.8438      48287.923      279.08205    
     23070   1394.5642     -5676.204      -5399.5025     -8473.1822      48276.82       279.08707    
     23080   1423.6753     -5681.8455     -5399.3679     -9169.3276      48266.266      279.06837    
     23090   1400.5524     -5677.1191     -5399.2295     -9372.3461      48255.71       279.00009    
     23100   1394.3226     -5675.7788     -5399.1252     -9490.9158      48244.714      278.90125    
     23110   1400.5076     -5676.835      -5398.9542     -9452.1095      48233.194      278.82976    
     23120   1398.668      -5676.2578     -5398.742      -9053.831       48221.349      278.78891    
     23130   1412.326      -5678.7422     -5398.5165     -8747.5921      48209.654      278.71338    
     23140   1406.5578     -5677.3586     -5398.2774     -8368.1475      48198.268      278.63825    
     23150   1386.6039     -5673.149      -5398.027      -8128.8903      48187.11       278.57682    
     23160   1398.2694     -5675.165      -5397.7284     -8428.6346      48175.96       278.49209    
     23170   1411.1297     -5677.3271     -5397.3388     -8784.4239      48164.803      278.36525    
     23180   1400.5867     -5674.812      -5396.9156     -8405.3799      48154.069      278.24856    
     23190   1404.1194     -5675.0332     -5396.4358     -8049.9582      48144.156      278.16261    
     23200   1406.6359     -5674.9589     -5395.8622     -7753.1914      48134.918      278.09943    
     23210   1389.4952     -5670.8961     -5395.2004     -7566.3853      48126.257      278.0697     
     23220   1429.497      -5678.0479     -5394.4152     -8138.8061      48117.919      278.05715    
     23230   1465.4498     -5684.3207     -5393.5545     -8818.7027      48109.475      278.04607    
     23240   1456.255      -5681.6898     -5392.748      -8845.5615      48100.968      278.01472    
     23250   1450.6411     -5679.8617     -5392.0337     -8578.0457      48092.928      277.97115    
     23260   1457.0273     -5680.4971     -5391.402      -8782.5657      48085.616      277.98639    
     23270   1450.0756     -5678.5803     -5390.8646     -8914.1392      48078.686      278.07189    
     23280   1429.5188     -5674.0404     -5390.4034     -8744.072       48071.949      278.15616    
     23290   1439.6416     -5675.6766     -5390.0311     -8769.2994      48065.841      278.23399    
     23300   1426.1082     -5672.6638     -5389.7035     -8637.9449      48060.582      278.34066    
     23310   1412.4537     -5669.6924     -5389.4413     -8471.0108      48055.698      278.42622    
     23320   1425.8766     -5672.1185     -5389.2042     -8480.2546      48050.691      278.4849     
     23330   1470.2027     -5680.771      -5389.0617     -8768.2485      48045.638      278.54402    
     23340   1440.2428     -5674.8567     -5389.0919     -8382.5025      48040.565      278.61782    
     23350   1424.6244     -5671.9775     -5389.3116     -7949.8972      48035.55       278.6762     
     23360   1433.0572     -5673.9965     -5389.6574     -8223.9736      48030.91       278.72085    
     23370   1437.1451     -5675.3536     -5390.2035     -8515.1235      48026.6        278.80797    
     23380   1375.392      -5663.777      -5390.8795     -8215.6337      48022.279      278.95063    
     23390   1361.0344     -5661.5793     -5391.5306     -8592.5464      48018.021      279.10914    
     23400   1396.1071     -5669.1321     -5392.1244     -9328.9829      48013.466      279.21492    
     23410   1393.6924     -5669.2888     -5392.7603     -9013.5615      48008.101      279.27715    
     23420   1384.3903     -5668.0924     -5393.4095     -8225.6717      48002.001      279.31389    
     23430   1398.9198     -5671.674      -5394.1082     -7970.1134      47995.364      279.34421    
     23440   1394.9046     -5671.5817     -5394.8126     -7778.8291      47988.405      279.42125    
     23450   1386.5029     -5670.6233     -5395.5213     -7743.5007      47981.523      279.52788    
     23460   1387.9588     -5671.649      -5396.2581     -8177.072       47975.293      279.63254    
     23470   1366.5068     -5668.1188     -5396.9842     -8535.2784      47969.76       279.72306    
     23480   1330.7745     -5661.6445     -5397.5998     -8446.8506      47964.571      279.79015    
     23490   1336.5043     -5663.2229     -5398.0413     -8957.2917      47959.56       279.83456    
     23500   1346.3215     -5665.4293     -5398.2999     -9212.3734      47954.484      279.85467    
     23510   1342.1804     -5664.7017     -5398.3938     -8981.3571      47949.058      279.81538    
     23520   1359.6374     -5668.1096     -5398.3381     -9016.0855      47943.068      279.74265    
     23530   1361.9994     -5668.3495     -5398.1093     -9067.3207      47936.459      279.6677     
     23540   1378.7957     -5671.3447     -5397.7719     -9183.8308      47929.457      279.60936    
     23550   1374.8922     -5670.1201     -5397.3218     -9103.785       47922.385      279.58254    
     23560   1399.5588     -5674.4923     -5396.7998     -9202.4745      47915.526      279.59613    
     23570   1413.2421     -5676.635      -5396.2275     -8959.7514      47908.949      279.66304    
     23580   1414.9529     -5676.4347     -5395.6878     -8355.6788      47902.423      279.75464    
     23590   1380.3147     -5669.0211     -5395.1469     -7403.248       47896.231      279.83228    
     23600   1422.8582     -5676.8738     -5394.5583     -7595.5013      47890.99       279.89031    
     23610   1432.009      -5678.1013     -5393.9702     -7952.8554      47886.586      279.9422     
     23620   1399.5881     -5671.1862     -5393.4878     -7841.7348      47882.707      280.03052    
     23630   1388.2549     -5668.4597     -5393.0101     -8069.9425      47879.234      280.16319    
     23640   1402.8062     -5670.8196     -5392.4827     -8546.7027      47876.09       280.33363    
     23650   1387.2215     -5667.1443     -5391.8997     -8418.2498      47873.145      280.51349    
     23660   1392.662      -5667.5892     -5391.2652     -8408.2862      47870.326      280.68561    
     23670   1425.5555     -5673.4307     -5390.58       -8805.9498      47867.545      280.854      
     23680   1438.933      -5675.3947     -5389.8897     -8950.8329      47864.668      281.02132    
     23690   1444.3081     -5675.8898     -5389.3184     -8569.4789      47861.721      281.13099    
     23700   1440.8164     -5674.7366     -5388.858      -7986.7258      47859.135      281.16       
     23710   1465.4682     -5679.3933     -5388.6234     -7830.1831      47857.508      281.19006    
     23720   1435.5147     -5673.4116     -5388.5849     -7437.1078      47856.833      281.31345    
     23730   1446.5346     -5675.796      -5388.7828     -8051.2575      47857.271      281.4825     
     23740   1428.2968     -5672.6169     -5389.2224     -8498.4424      47858.682      281.68208    
     23750   1378.5636     -5663.3456     -5389.8188     -8213.0479      47860.842      281.93886    
     23760   1381.9178     -5664.7064     -5390.5141     -8308.5533      47864.163      282.2246     
     23770   1354.0636     -5659.9028     -5391.2372     -8005.6218      47868.752      282.50349    
     23780   1347.2204     -5659.2528     -5391.945      -7960.2423      47874.408      282.75502    
     23790   1376.485      -5665.7124     -5392.5981     -8841.4857      47880.674      283.02654    
     23800   1423.0596     -5675.6682     -5393.3128     -10063.148      47886.872      283.31648    
     23810   1422.2907     -5676.4336     -5394.2308     -10061.838      47892.448      283.60242    
     23820   1405.9128     -5674.3088     -5395.3556     -9061.3815      47897.547      283.88019    
     23830   1400.3454     -5674.474      -5396.6254     -8553.2541      47902.37       284.14689    
     23840   1401.6184     -5676.0974     -5397.9963     -8619.1158      47906.917      284.40801    
     23850   1409.1488     -5679.0626     -5399.4673     -8814.738       47911.299      284.66304    
     23860   1421.8599     -5683.1565     -5401.0391     -8849.002       47915.81       284.90978    
     23870   1375.9221     -5675.5924     -5402.5898     -8269.5167      47920.497      285.19225    
     23880   1357.9966     -5673.4446     -5403.9986     -8444.6428      47925.69       285.53539    
     23890   1349.0356     -5672.8444     -5405.1764     -9075.1192      47931.447      285.92889    
     23900   1332.7562     -5670.4973     -5406.0594     -9501.7969      47937.119      286.2973     
     23910   1361.8186     -5676.9221     -5406.7178     -9600.7068      47941.547      286.54702    
     23920   1356.2133     -5676.2966     -5407.2045     -9073.6934      47944.082      286.65705    
     23930   1356.8365     -5676.8082     -5407.5924     -8571.6131      47945.227      286.72199    
     23940   1335.4024     -5672.7869     -5407.8239     -7863.1663      47946.048      286.85105    
     23950   1362.1346     -5678.1779     -5407.9109     -7788.011       47947.592      287.08228    
     23960   1375.3725     -5680.8083     -5407.9147     -7422.9507      47950.438      287.3851     
     23970   1371.7192     -5680.0675     -5407.8988     -7536.3677      47954.561      287.69905    
     23980   1368.3064     -5679.3358     -5407.8442     -7755.1191      47959.743      288.01104    
     23990   1386.1258     -5682.7903     -5407.7631     -8327.9384      47965.813      288.32642    
     24000   1397.8102     -5685.0648     -5407.7193     -8930.3252      47972.465      288.65298    
     24010   1370.8384     -5679.6742     -5407.6802     -8993.8411      47979.486      289.00024    
     24020   1393.7267     -5684.1885     -5407.6531     -9195.9455      47986.943      289.32138    
     24030   1424.4815     -5690.3287     -5407.6912     -9362.6831      47994.229      289.54216    
     24040   1397.6439     -5685.1465     -5407.8339     -9093.3246      48000.933      289.68191    
     24050   1384.5192     -5682.8068     -5408.0983     -9033.9195      48007.396      289.80116    
     24060   1340.7929     -5674.3583     -5408.3258     -8734.2163      48013.872      289.91439    
     24070   1364.0581     -5679.1549     -5408.5063     -9069.4742      48020.48       290.03691    
     24080   1358.4705     -5678.1321     -5408.5921     -9128.9545      48027.016      290.21807    
     24090   1335.2461     -5673.5603     -5408.6284     -8842.62        48033.28       290.48782    
     24100   1343.2642     -5675.0614     -5408.5385     -8732.7278      48039.254      290.79576    
     24110   1358.5492     -5677.8717     -5408.3161     -8727.9069      48045.033      291.14583    
     24120   1373.5657     -5680.5275     -5407.9924     -8818.8444      48050.792      291.56791    
     24130   1373.0521     -5680.0397     -5407.6065     -8821.8992      48056.724      292.0337     
     24140   1360.2933     -5677.051      -5407.1494     -8781.1186      48062.917      292.45009    
     24150   1344.1623     -5673.2388     -5406.5377     -8373.6001      48068.936      292.78337    
     24160   1357.0304     -5674.9742     -5405.72       -8050.6915      48074.775      293.09264    
     24170   1378.5052     -5678.1489     -5404.6338     -8308.1679      48080.895      293.4211     
     24180   1399.2903     -5681.009      -5403.3698     -8645.4433      48087.29       293.76261    
     24190   1400.4725     -5679.8672     -5401.9934     -8692.6294      48093.753      294.0834     
     24200   1374.9063     -5673.3604     -5400.5593     -8276.8067      48100.151      294.36959    
     24210   1373.0268     -5671.4758     -5399.0477     -8052.8291      48106.877      294.62215    
     24220   1400.9665     -5675.436      -5397.4642     -8285.2896      48114.341      294.84034    
     24230   1404.8384     -5674.678      -5395.9379     -8607.1148      48122.553      295.03759    
     24240   1429.0974     -5678.1185     -5394.5651     -9235.1861      48131.158      295.23726    
     24250   1421.6307     -5675.5009     -5393.429      -9482.1273      48139.675      295.42571    
     24260   1403.6922     -5671.0525     -5392.5398     -9487.1754      48147.897      295.59966    
     24270   1406.3889     -5670.9082     -5391.8605     -9715.7709      48155.861      295.79244    
     24280   1396.9639     -5668.4875     -5391.3099     -9813.59        48163.543      296.02374    
     24290   1405.0252     -5669.7048     -5390.9277     -9723.809       48170.767      296.3091     
     24300   1394.0423     -5667.2681     -5390.6701     -8461.85        48177.676      296.6388     
     24310   1370.0474     -5662.3011     -5390.4641     -7370.0687      48184.91       296.95475    
     24320   1418.9095     -5671.8999     -5390.3679     -7582.989       48193.035      297.26996    
     24330   1413.1227     -5670.7581     -5390.3743     -8236.4894      48202.388      297.68301    
     24340   1408.8354     -5670.0824     -5390.5493     -9163.7524      48212.705      298.20736    
     24350   1403.4619     -5669.3112     -5390.8442     -9772.772       48223.11       298.72735    
     24360   1402.9238     -5669.6169     -5391.2568     -9936.4876      48232.919      299.20642    
     24370   1409.9254     -5671.5542     -5391.8048     -9722.6093      48241.983      299.65785    
     24380   1401.2473     -5670.5372     -5392.5097     -9242.8478      48250.574      300.05275    
     24390   1369.1302     -5664.9474     -5393.2923     -8718.0473      48259.431      300.40546    
     24400   1373.8184     -5666.6774     -5394.0921     -8624.434       48269.1        300.72468    
     24410   1377.1223     -5668.1118     -5394.871      -8821.9835      48279.248      300.9988     
     24420   1422.3568     -5677.9471     -5395.7312     -9430.5764      48289.249      301.22792    
     24430   1407.7612     -5676.0399     -5396.7199     -9298.7908      48298.62       301.44066    
     24440   1409.9655     -5677.5948     -5397.8375     -9264.0482      48307.437      301.66       
     24450   1393.7171     -5675.5638     -5399.0304     -9211.3509      48315.718      301.90713    
     24460   1365.0811     -5671.032      -5400.1803     -8832.6807      48323.386      302.17155    
     24470   1371.1145     -5673.2721     -5401.2233     -9000.0874      48330.98       302.4374     
     24480   1362.4761     -5672.4668     -5402.132      -9139.1859      48338.636      302.74032    
     24490   1318.7689     -5664.4757     -5402.8131     -8896.3071      48346.006      303.05996    
     24500   1327.1543     -5666.5833     -5403.2568     -9099.5711      48352.942      303.32692    
     24510   1339.6133     -5669.2888     -5403.4904     -9331.8755      48359.55       303.53536    
     24520   1351.5223     -5671.7494     -5403.588      -9427.0871      48366.097      303.68831    
     24530   1378.7554     -5677.2275     -5403.6627     -9513.6485      48372.557      303.79438    
     24540   1364.5414     -5674.4663     -5403.7217     -9297.5454      48378.673      303.83181    
     24550   1372.6453     -5676.149      -5403.7966     -9129.815       48384.062      303.83205    
     24560   1372.8298     -5676.271      -5403.8819     -8838.631       48388.703      303.89397    
     24570   1386.8103     -5679.1633     -5404.0003     -8816.3821      48392.909      304.1059     
     24580   1371.9901     -5676.3856     -5404.1631     -8553.9084      48396.847      304.39047    
     24590   1369.9318     -5676.1831     -5404.369      -8414.9122      48400.628      304.61415    
     24600   1399.4827     -5682.2853     -5404.6079     -8428.7686      48404.775      304.75631    
     24610   1394.5294     -5681.6393     -5404.9447     -8176.812       48410.032      304.8762     
     24620   1375.2176     -5678.2474     -5405.3846     -7874.8196      48416.668      305.04207    
     24630   1356.7492     -5675.0182     -5405.8197     -7798.0343      48424.73       305.29275    
     24640   1360.5066     -5676.1963     -5406.2523     -8013.5866      48434.049      305.66519    
     24650   1389.1774     -5682.3406     -5406.7079     -8699.9369      48444.399      306.14141    
     24660   1373.8955     -5679.821      -5407.2205     -9063.6899      48454.846      306.63702    
     24670   1376.3513     -5680.8911     -5407.8033     -9211.52        48464.879      307.08191    
     24680   1372.5387     -5680.7611     -5408.4298     -9335.1205      48474.923      307.51591    
     24690   1348.2646     -5676.6145     -5409.0995     -9141.7175      48485.68       307.95857    
     24700   1332.7733     -5674.1528     -5409.7115     -8839.7161      48497.465      308.38373    
     24710   1384.1018     -5684.9161     -5410.2905     -9204.6899      48509.862      308.7988     
     24720   1369.0901     -5682.531      -5410.8839     -9011.9361      48522.065      309.23558    
     24730   1361.2999     -5681.6693     -5411.5679     -9069.4401      48533.945      309.72329    
     24740   1365.9828     -5683.2894     -5412.2589     -9426.4069      48545.601      310.25049    
     24750   1359.2788     -5682.7013     -5413.0009     -9664.9011      48556.902      310.78983    
     24760   1349.4046     -5681.4862     -5413.745      -9747.5723      48567.73       311.35802    
     24770   1337.3991     -5679.8031     -5414.444      -9753.017       48578.133      311.92986    
     24780   1347.0411     -5682.3896     -5415.1174     -9743.6353      48588.132      312.45843    
     24790   1337.5988     -5681.1398     -5415.741      -9247.2273      48597.673      312.92549    
     24800   1295.6353     -5673.3545     -5416.2819     -8703.9597      48607.042      313.29855    
     24810   1306.9512     -5675.9678     -5416.6499     -8892.475       48616.651      313.56697    
     24820   1324.0689     -5679.5687     -5416.8545     -9177.5083      48626.402      313.78033    
     24830   1320.5715     -5678.9934     -5416.9731     -9322.0839      48635.969      313.99018    
     24840   1338.1438     -5682.4702     -5416.9633     -9643.7136      48644.977      314.24127    
     24850   1349.4915     -5684.6572     -5416.8988     -9809.8803      48653.185      314.53954    
     24860   1340.7527     -5682.8119     -5416.7874     -9299.2041      48660.711      314.86983    
     24870   1334.6751     -5681.4503     -5416.6317     -8655.8709      48667.92       315.25015    
     24880   1335.566      -5681.3712     -5416.3758     -8382.4999      48675.284      315.68116    
     24890   1359.0688     -5685.6768     -5416.018      -8700.7929      48682.952      316.1314     
     24900   1352.3587     -5683.8999     -5415.5726     -8498.7595      48690.829      316.5588     
     24910   1346.5076     -5682.2014     -5415.035      -8485.4066      48698.911      316.94226    
     24920   1341.6469     -5680.5381     -5414.3361     -8543.9466      48706.981      317.27388    
     24930   1341.4661     -5679.6108     -5413.4448     -8612.7003      48714.684      317.58141    
     24940   1360.7321     -5682.2772     -5412.2885     -8652.9051      48722.187      317.92318    
     24950   1353.8227     -5679.5468     -5410.9289     -8393.601       48729.641      318.29346    
     24960   1359.5098     -5679.1688     -5409.4226     -8401.7174      48737.287      318.6856     
     24970   1361.7962     -5677.983      -5407.7832     -8454.5513      48745.248      319.09301    
     24980   1380.7858     -5680.1001     -5406.1324     -8824.6732      48753.329      319.51149    
     24990   1390.4347     -5680.4561     -5404.5739     -9010.3383      48761.23       319.924      
     25000   1372.1302     -5675.4697     -5403.2194     -8539.5395      48768.83       320.32361    
     25010   1364.7648     -5672.8202     -5402.0313     -8574.0926      48776.967      320.73084    
     25020   1404.4142     -5679.6665     -5401.0106     -9797.559       48785.927      321.16638    
     25030   1386.1667     -5675.2214     -5400.1861     -10419.426      48794.805      321.58897    
     25040   1365.0274     -5670.4314     -5399.5904     -10278.932      48803.179      321.98921    
     25050   1394.8655     -5675.874      -5399.1127     -10116.203      48811.176      322.3898     
     25060   1409.5767     -5678.4543     -5398.7741     -9542.5123      48818.901      322.74746    
     25070   1432.3969     -5682.9258     -5398.7177     -9057.4959      48826.534      323.08948    
     25080   1415.6456     -5679.8317     -5398.9473     -8394.0362      48834.126      323.46649    
     25090   1401.2665     -5677.4392     -5399.4079     -8078.5254      48841.986      323.84162    
     25100   1409.0449     -5679.6361     -5400.0614     -8610.5088      48850.098      324.21553    
     25110   1433.3264     -5685.3688     -5400.9763     -9598.2684      48857.739      324.57013    
     25120   1405.9816     -5681.0826     -5402.1158     -9967.9247      48863.983      324.88912    
     25130   1437.6251     -5688.7493     -5403.5039     -10576.42       48868.652      325.19682    
     25140   1419.501      -5686.76       -5405.1107     -10196.907      48871.757      325.5135     
     25150   1386.3883     -5681.8535     -5406.7742     -9567.648       48873.794      325.79818    
     25160   1358.6034     -5677.8973     -5408.331      -9451.1315      48875.45       326.03313    
     25170   1365.4068     -5680.582      -5409.6658     -9905.3163      48876.798      326.31859    
     25180   1362.9001     -5681.2104     -5410.7915     -10179.078      48877.513      326.65659    
     25190   1363.4934     -5682.316      -5411.7794     -10048.427      48877.493      326.99988    
     25200   1365.4849     -5683.5956     -5412.6638     -9562.9388      48877.051      327.33504    
     25210   1346.7666     -5680.6516     -5413.4338     -8955.919       48876.676      327.61632    
     25220   1355.8818     -5683.1382     -5414.1118     -8932.231       48876.615      327.81577    
     25230   1357.8249     -5684.1731     -5414.7612     -9144.8899      48876.735      327.95936    
     25240   1328.4357     -5678.9377     -5415.3571     -9135.4697      48876.724      328.08278    
     25250   1309.8349     -5675.7246     -5415.8346     -9372.1556      48876.268      328.17531    
     25260   1306.2849     -5675.3621     -5416.1764     -9622.8942      48875.106      328.24599    
     25270   1315.0966     -5677.3121     -5416.3781     -9715.6473      48873.181      328.33133    
     25280   1339.3258     -5682.2439     -5416.5025     -9845.1232      48870.791      328.45707    
     25290   1330.1583     -5680.4974     -5416.575      -9643.1605      48867.965      328.63025    
     25300   1326.456      -5679.8342     -5416.6464     -9523.3505      48864.465      328.81623    
     25310   1324.7762     -5679.5024     -5416.6479     -9580.7787      48860.311      329.01589    
     25320   1336.3883     -5681.7737     -5416.6151     -9573.9239      48855.597      329.21091    
     25330   1309.9109     -5676.442      -5416.5369     -9230.2172      48850.255      329.29267    
     25340   1304.23       -5675.1511     -5416.3732     -9086.1245      48844.283      329.24385    
     25350   1304.8529     -5674.9596     -5416.0581     -9444.0669      48837.697      329.1573     
     25360   1336.1978     -5680.76       -5415.6392     -10201.211      48830.405      329.07946    
     25370   1353.0924     -5683.6384     -5415.1655     -10632.077      48822.091      329.03207    
     25380   1354.2122     -5683.418      -5414.7229     -10343.38       48812.505      329.01793    
     25390   1341.886      -5680.5509     -5414.3015     -9731.6343      48801.91       328.97068    
     25400   1367.0518     -5685.1556     -5413.913      -9658.542       48790.751      328.82159    
     25410   1334.3466     -5678.3005     -5413.5471     -9314.5073      48779.302      328.65063    
     25420   1340.5206     -5679.1707     -5413.1922     -9547.9417      48768.008      328.49699    
     25430   1376.7882     -5686.0122     -5412.8377     -10096.125      48756.635      328.33687    
     25440   1344.9758     -5679.4274     -5412.5649     -9941.1731      48744.188      328.1451     
     25450   1310.6286     -5672.3719     -5412.3245     -9796.0854      48730.231      327.92407    
     25460   1309.9002     -5671.9047     -5412.0017     -10127.992      48714.847      327.70215    
     25470   1324.2991     -5674.3055     -5411.5456     -10481.344      48697.901      327.48202    
     25480   1323.3616     -5673.5321     -5410.9582     -10417.959      48679.312      327.24707    
     25490   1337.494      -5675.6829     -5410.3049     -10029.569      48659.48       326.97543    
     25500   1329.4389     -5673.3248     -5409.5451     -9525.6098      48639.082      326.70148    
     25510   1327.523      -5672.0874     -5408.6878     -9325.5082      48618.591      326.46074    
     25520   1346.5994     -5674.9376     -5407.753      -9612.555       48598.046      326.28164    
     25530   1337.7699     -5672.1855     -5406.7528     -9479.6168      48577.105      326.11663    
     25540   1341.9135     -5671.9863     -5405.7315     -9381.7461      48555.643      325.9048     
     25550   1356.793      -5673.8606     -5404.6534     -9385.0441      48533.748      325.66081    
     25560   1368.7129     -5675.1954     -5403.6232     -9467.9753      48511.397      325.34969    
     25570   1372.5743     -5674.9915     -5402.653      -9569.9946      48488.713      324.99112    
     25580   1400.1156     -5679.6248     -5401.8218     -9747.4571      48465.671      324.60081    
     25590   1394.1084     -5677.7985     -5401.1874     -9190.787       48441.902      324.21099    
     25600   1397.1478     -5677.9889     -5400.7748     -8812.6292      48417.558      323.88693    
     25610   1420.0855     -5682.3629     -5400.5976     -9002.2659      48392.802      323.60483    
     25620   1457.8722     -5690.0691     -5400.8064     -9285.4715      48367.5        323.30618    
     25630   1405.3813     -5680.2759     -5401.4281     -8672.165       48341.451      323.00453    
     25640   1387.9404     -5677.7977     -5402.4105     -8887.6574      48314.696      322.72877    
     25650   1398.6611     -5681.2031     -5403.6887     -9342.3414      48287.176      322.41899    
     25660   1386.089      -5680.2854     -5405.2655     -9374.0904      48258.973      322.00239    
     25670   1361.2448     -5677.1609     -5407.0704     -9008.3522      48230.11       321.54621    
     25680   1333.2749     -5673.36       -5408.8191     -8555.678       48200.647      321.12144    
     25690   1356.7264     -5679.6709     -5410.4769     -8815.5001      48171.034      320.75603    
     25700   1338.3306     -5677.5007     -5411.9568     -8550.2812      48141.472      320.389      
     25710   1334.3577     -5677.9116     -5413.1559     -8197.633       48112.289      320.0005     
     25720   1353.1312     -5682.6562     -5414.1756     -8138.2191      48083.508      319.63321    
     25730   1315.8411     -5676.0667     -5414.9849     -7645.3312      48054.872      319.29892    
     25740   1319.4903     -5677.3909     -5415.5851     -7835.2564      48026.798      318.98768    
     25750   1333.6503     -5680.667      -5416.0517     -8292.3523      47999.601      318.69812    
     25760   1313.1679     -5676.9624     -5416.4111     -8392.07        47973.262      318.47507    
     25770   1343.8485     -5683.3528     -5416.714      -8607.3616      47947.538      318.32016    
     25780   1367.8348     -5688.4402     -5417.0422     -8688.547       47921.931      318.12476    
     25790   1374.418      -5690.2072     -5417.5029     -8581.6075      47896.033      317.76385    
     25800   1369.2308     -5689.7542     -5418.0792     -8474.6536      47869.775      317.26489    
     25810   1349.4012     -5686.4916     -5418.7511     -8336.4002      47843.462      316.74778    
     25820   1352.1889     -5687.7935     -5419.4998     -8799.4591      47817.432      316.25587    
     25830   1346.3857     -5687.4331     -5420.2909     -9210.9984      47791.357      315.81686    
     25840   1325.8891     -5684.2072     -5421.1318     -9245.0532      47764.885      315.44228    
     25850   1309.519      -5681.7462     -5421.9189     -8959.256       47738.365      315.14148    
     25860   1342.5466     -5689.025      -5422.6446     -9023.3321      47712.412      314.85751    
     25870   1345.4571     -5690.3844     -5423.4264     -8938.0223      47686.978      314.5404     
     25880   1325.825      -5687.2972     -5424.2346     -8672.8928      47661.925      314.2142     
     25890   1316.89       -5686.3033     -5425.0135     -8345.2502      47637.522      313.8914     
     25900   1332.2096     -5690.0977     -5425.7682     -8408.9426      47613.907      313.59853    
     25910   1344.7757     -5693.365      -5426.5422     -8581.9823      47591.019      313.35149    
     25920   1341.6254     -5693.5668     -5427.3691     -8948.6291      47568.643      313.12414    
     25930   1327.2917     -5691.59       -5428.2363     -9084.0002      47546.478      312.8549     
     25940   1324.8628     -5691.9752     -5429.1035     -8920.208       47524.532      312.52364    
     25950   1323.1457     -5692.4634     -5429.9323     -8771.3525      47502.847      312.15926    
     25960   1332.6455     -5695.1572     -5430.7413     -8772.2879      47481.491      311.79887    
     25970   1332.1744     -5695.8988     -5431.5763     -8972.5895      47460.474      311.46217    
     25980   1313.5139     -5693.0072     -5432.3872     -9294.0292      47439.638      311.15135    
     25990   1312.8848     -5693.6488     -5433.1537     -9625.8261      47418.742      310.86483    
     26000   1311.0718     -5693.9821     -5433.8466     -9688.987       47397.691      310.58439    
     26010   1281.0372     -5688.6306     -5434.4545     -9260.6673      47376.861      310.35341    
     26020   1294.7788     -5691.8163     -5434.9136     -9591.0182      47356.65       310.15332    
     26030   1318.049      -5696.8092     -5435.2894     -9781.6346      47336.871      309.91195    
     26040   1321.9536     -5697.939      -5435.6444     -9218.8592      47317.268      309.65972    
     26050   1319.5807     -5697.8269     -5436.0032     -8437.9276      47297.935      309.47998    
     26060   1309.0588     -5696.0826     -5436.3466     -8032.2132      47279.278      309.37336    
     26070   1317.9724     -5698.1704     -5436.6658     -8335.0398      47261.443      309.28266    
     26080   1325.4314     -5699.9766     -5436.992      -8930.2317      47244.156      309.20268    
     26090   1309.7762     -5697.2117     -5437.3333     -9083.4617      47227.068      309.16409    
     26100   1305.8942     -5696.7634     -5437.6553     -9247.9722      47209.997      309.17932    
     26110   1306.3192     -5697.1425     -5437.95       -9466.7366      47192.75       309.21332    
     26120   1288.0626     -5693.7645     -5438.1945     -9519.9929      47175.066      309.22505    
     26130   1293.353      -5695.0111     -5438.3914     -9546.7971      47156.869      309.20378    
     26140   1276.8406     -5691.8229     -5438.4794     -9394.6961      47138.415      309.16728    
     26150   1264.3487     -5689.292      -5438.4271     -9226.565       47120.243      309.16133    
     26160   1267.6478     -5689.7175     -5438.198      -9227.5499      47102.482      309.16965    
     26170   1270.5733     -5689.8779     -5437.778      -9082.0047      47084.649      309.10879    
     26180   1292.2218     -5693.5404     -5437.1451     -9152.7551      47066.349      308.92737    
     26190   1319.8278     -5698.188      -5436.3152     -9296.7737      47047.427      308.64994    
     26200   1314.7163     -5696.1658     -5435.3072     -8955.2877      47028.125      308.32965    
     26210   1313.3211     -5694.713      -5434.1313     -8765.2584      47008.985      308.01147    
     26220   1317.0865     -5694.0762     -5432.7473     -9049.504       46990.516      307.74365    
     26230   1301.0115     -5689.3381     -5431.1988     -8935.5474      46972.944      307.56052    
     26240   1279.1395     -5683.2986     -5429.499      -8477.0515      46956.189      307.44344    
     26250   1314.0276     -5688.3647     -5427.6429     -8608.1897      46939.856      307.36108    
     26260   1339.2908     -5691.4871     -5425.7526     -8831.5071      46923.619      307.30113    
     26270   1358.9337     -5693.7473     -5424.1154     -8630.2501      46907.545      307.28486    
     26280   1366.3461     -5693.9465     -5422.8439     -8303.2452      46891.728      307.30399    
     26290   1362.1082     -5692.2242     -5421.9625     -8094.3802      46876.32       307.31709    
     26300   1364.5522     -5692.1283     -5421.3816     -8582.7541      46861.671      307.35615    
     26310   1374.0657     -5693.7371     -5421.1027     -9310.4925      46847.911      307.46499    
     26320   1348.8038     -5688.6768     -5421.0548     -9427.0229      46834.868      307.63175    
     26330   1347.5314     -5688.5541     -5421.1845     -9659.324       46822.108      307.81425    
     26340   1349.715      -5689.2026     -5421.3999     -9176.8243      46809.244      308.00448    
     26350   1353.6009     -5690.3093     -5421.7355     -8290.7351      46796.481      308.15776    
     26360   1331.4849     -5686.3575     -5422.1719     -7237.7656      46784.397      308.20955    
     26370   1327.4714     -5686.0419     -5422.6525     -6916.5959      46773.435      308.18386    
     26380   1325.6885     -5686.192      -5423.1564     -7257.9753      46763.74       308.13165    
     26390   1321.1638     -5685.8177     -5423.6799     -7810.5219      46755.427      308.08268    
     26400   1319.4957     -5686.0155     -5424.2087     -8176.1015      46748.557      308.03328    
     26410   1351.4831     -5692.9479     -5424.7943     -8701.6965      46743.122      307.94193    
     26420   1369.6971     -5697.278      -5425.5104     -8832.1007      46738.603      307.83936    
     26430   1363.7619     -5697.0022     -5426.4123     -8401.4748      46734.524      307.77063    
     26440   1351.6145     -5695.6479     -5427.4683     -8315.9764      46730.676      307.75229    
     26450   1346.7492     -5695.7999     -5428.5856     -8809.8246      46726.667      307.77354    
     26460   1350.8367     -5697.8243     -5429.799      -8982.6139      46722.269      307.8228     
     26470   1325.5436     -5694.0286     -5431.0217     -8053.159       46717.681      307.88527    
     26480   1306.3935     -5691.3486     -5432.1415     -7155.0441      46713.501      307.97391    
     26490   1318.3153     -5694.7441     -5433.1715     -6905.8516      46710.304      308.11443    
     26500   1307.8691     -5693.603      -5434.1031     -7093.2731      46708.411      308.33043    
     26510   1290.3078     -5690.9019     -5434.8863     -7403.7667      46707.975      308.54279    
     26520   1301.4343     -5693.7836     -5435.5604     -7921.6545      46709.051      308.71477    
     26530   1285.6125     -5691.197      -5436.1131     -7749.4599      46711.548      308.90744    
     26540   1300.3325     -5694.5695     -5436.5649     -7842.5485      46715.419      309.14472    
     26550   1331.998      -5701.251      -5436.9635     -8286.6979      46720.303      309.46639    
     26560   1337.5933     -5702.8187     -5437.4211     -8793.9777      46725.582      309.86886    
     26570   1333.3004     -5702.4998     -5437.9539     -9334.8605      46730.532      310.31486    
     26580   1320.1218     -5700.4911     -5438.56       -9886.9524      46734.669      310.76098    
     26590   1274.4361     -5692.0126     -5439.1462     -9915.2596      46737.778      311.15424    
     26600   1268.9285     -5691.4003     -5439.6267     -9729.6796      46739.955      311.49392    
     26610   1280.374      -5694.0161     -5439.9716     -9534.7552      46741.446      311.78524    
     26620   1288.5191     -5695.864      -5440.2034     -9411.9261      46742.252      312.0261     
     26630   1310.4807     -5700.4442     -5440.4261     -9570.4744      46742.237      312.24698    
     26640   1285.0485     -5695.5945     -5440.6224     -9374.1437      46741.179      312.46063    
     26650   1303.6324     -5699.4781     -5440.8188     -9381.7814      46739.169      312.65141    
     26660   1314.105      -5701.7388     -5441.0015     -8992.5478      46736.326      312.81109    
     26670   1290.1603     -5697.1886     -5441.2023     -8255.9353      46733.03       312.9029     
     26680   1294.1178     -5698.1814     -5441.4099     -8234.9008      46730.075      312.94179    
     26690   1297.7084     -5699.0753     -5441.5914     -8607.8272      46728.052      312.97339    
     26700   1292.9378     -5698.3066     -5441.7693     -8824.5782      46726.798      313.001      
     26710   1295.4443     -5698.9794     -5441.9447     -8876.8137      46725.941      313.08818    
     26720   1301.9455     -5700.4358     -5442.1111     -8813.006       46725.186      313.31384    
     26730   1302.159      -5700.6691     -5442.3021     -8462.5577      46724.484      313.61649    
     26740   1328.1875     -5706.0842     -5442.5528     -8458.5135      46724.039      313.88689    
     26750   1332.1664     -5707.2345     -5442.9136     -8651.1184      46723.818      314.07814    
     26760   1311.7947     -5703.7394     -5443.4605     -8850.0143      46723.788      314.17762    
     26770   1283.9457     -5698.8655     -5444.1123     -9166.5096      46724.077      314.27373    
     26780   1274.1879     -5697.6116     -5444.7945     -9391.9707      46724.749      314.4053     
     26790   1276.5138     -5698.771      -5445.4924     -9512.0852      46725.614      314.56147    
     26800   1257.1996     -5695.6655     -5446.2191     -8903.2862      46726.475      314.69546    
     26810   1254.554      -5695.8289     -5446.9074     -8780.9062      46727.45       314.78377    
     26820   1274.0012     -5700.3746     -5447.5946     -9106.3689      46728.469      314.85089    
     26830   1262.3067     -5698.7373     -5448.2776     -9057.6736      46729.384      314.91601    
     26840   1254.0749     -5697.7738     -5448.9474     -9164.3888      46730.421      314.96689    
     26850   1252.3482     -5698.0862     -5449.6024     -9358.725       46731.49       315.01349    
     26860   1248.2563     -5697.8317     -5450.1597     -9357.4233      46732.339      315.12339    
     26870   1249.6899     -5698.6113     -5450.6549     -9443.5076      46733.063      315.30359    
     26880   1271.2718     -5703.3237     -5451.0852     -9521.9396      46733.752      315.46265    
     26890   1282.9452     -5706.0352     -5451.4805     -9393.1916      46734.277      315.55361    
     26900   1275.7173     -5705.0131     -5451.8925     -9299.3877      46734.574      315.59849    
     26910   1291.2674     -5708.5291     -5452.3231     -9920.4302      46734.505      315.64579    
     26920   1280.386      -5706.8269     -5452.78       -9911.2363      46733.733      315.71297    
     26930   1238.5003     -5698.9775     -5453.2413     -8927.3778      46732.428      315.80005    
     26940   1222.0333     -5696.0336     -5453.5647     -8503.1377      46731.178      315.92963    
     26950   1229.1208     -5697.5581     -5453.6829     -8906.8648      46729.947      316.0536     
     26960   1258.5063     -5703.3201     -5453.6144     -9439.866       46728.541      316.13457    
     26970   1263.1522     -5704.0291     -5453.4016     -9565.02        46726.898      316.18619    
     26980   1254.0776     -5701.8893     -5453.0623     -9294.5188      46724.886      316.24627    
     26990   1255.034      -5701.5641     -5452.5474     -8948.5477      46722.732      316.35997    
     27000   1264.3498     -5702.7253     -5451.8602     -8657.3923      46720.737      316.56028    
     27010   1275.56       -5704.0946     -5451.0052     -8668.0402      46718.764      316.82354    
     27020   1321.568      -5712.2604     -5450.0423     -9479.3149      46716.558      317.07187    
     27030   1314.2947     -5709.8694     -5449.0945     -9600.0354      46713.875      317.24897    
     27040   1266.4546     -5699.4741     -5448.1914     -8823.7677      46710.911      317.38614    
     27050   1266.7868     -5698.6121     -5447.2634     -8569.9296      46708.124      317.55341    
     27060   1264.8111     -5697.1699     -5446.2133     -8851.4711      46705.557      317.74771    
     27070   1272.6058     -5697.5951     -5445.0919     -9181.2086      46703.066      317.9317     
     27080   1261.8868     -5694.2889     -5443.9125     -8837.3126      46700.597      318.11389    
     27090   1277.0301     -5696.0914     -5442.7104     -8487.6217      46698.456      318.32492    
     27100   1307.6907     -5700.9906     -5441.526      -8125.5834      46696.756      318.54526    
     27110   1317.6953     -5701.9138     -5440.4642     -7592.3494      46695.446      318.77786    
     27120   1326.4052     -5702.759      -5439.5812     -7574.9817      46695.09       318.99062    
     27130   1325.6467     -5701.9808     -5438.9536     -7768.5147      46696.011      319.14245    
     27140   1299.7821     -5696.3723     -5438.4769     -7902.972       46698.049      319.25743    
     27150   1272.0234     -5690.4752     -5438.0876     -8207.5943      46701.107      319.34929    
     27160   1281.3298     -5691.9573     -5437.7231     -8894.5821      46705.191      319.43561    
     27170   1306.5792     -5696.6133     -5437.3693     -9366.2567      46710.029      319.56156    
     27180   1316.9966     -5698.4052     -5437.0942     -9087.7718      46715.372      319.78991    
     27190   1286.9651     -5692.2762     -5436.9239     -8524.3648      46721.37       320.09573    
     27200   1284.2212     -5691.616      -5436.8081     -8261.8274      46728.08       320.41433    
     27210   1301.2892     -5694.8789     -5436.6845     -8079.2369      46735.256      320.75042    
     27220   1316.4238     -5697.8232     -5436.6259     -7938.5774      46742.625      321.07448    
     27230   1311.6931     -5696.9297     -5436.671      -7674.1246      46750.138      321.34433    
     27240   1328.4813     -5700.4336     -5436.8439     -8031.665       46758.315      321.57119    
     27250   1335.3226     -5702.1266     -5437.1794     -8717.9592      46767.349      321.84793    
     27260   1332.1421     -5702.0288     -5437.7127     -9154.7599      46776.964      322.23296    
     27270   1347.1599     -5705.7623     -5438.4665     -9701.9584      46786.594      322.66082    
     27280   1332.0356     -5703.7328     -5439.4378     -9878.7115      46795.71       323.10644    
     27290   1308.5356     -5700.2113     -5440.5791     -9886.7809      46804.311      323.55067    
     27300   1282.0634     -5696.1482     -5441.7684     -9752.7568      46812.469      323.94857    
     27310   1267.1915     -5694.356      -5442.927      -9535.8363      46820.072      324.30323    
     27320   1259.7945     -5693.9187     -5443.9574     -9371.9512      46827.104      324.64346    
     27330   1269.3352     -5696.6949     -5444.8407     -9233.0945      46833.76       324.98709    
     27340   1273.6488     -5698.3191     -5445.6089     -9108.0166      46840.108      325.34885    
     27350   1253.5814     -5694.9727     -5446.2441     -8908.4589      46846.125      325.68865    
     27360   1242.0061     -5693.1248     -5446.693      -8814.3798      46851.949      325.99812    
     27370   1256.7583     -5696.3544     -5446.9955     -8950.5769      46857.663      326.28836    
     27380   1243.9274     -5693.9696     -5447.1566     -8801.8502      46863.452      326.51884    
     27390   1255.7908     -5696.3811     -5447.2142     -8958.9315      46869.345      326.66501    
     27400   1261.7763     -5697.5145     -5447.16       -8935.424       46874.972      326.79661    
     27410   1305.3476     -5706.0978     -5447.0981     -8916.3703      46880.315      326.92868    
     27420   1316.056      -5708.2401     -5447.1158     -8517.1879      46885.63       327.0842     
     27430   1310.8511     -5707.3389     -5447.2472     -8374.0563      46891.143      327.29577    
     27440   1315.2837     -5708.4679     -5447.4968     -8473.2186      46896.527      327.56164    
     27450   1314.2636     -5708.6027     -5447.8339     -8622.2493      46901.449      327.8956     
     27460   1288.6544     -5703.9353     -5448.2478     -8619.3426      46905.982      328.27807    
     27470   1285.6269     -5703.7515     -5448.6647     -8638.5352      46910.435      328.65948    
     27480   1288.5668     -5704.745      -5449.0749     -8607.5966      46914.897      328.99989    
     27490   1298.704      -5707.1755     -5449.4941     -8616.3586      46919.635      329.29846    
     27500   1299.9434     -5707.8838     -5449.9564     -8663.7151      46925.087      329.5865     
     27510   1270.3525     -5702.4961     -5450.44       -8601.9555      46931.55       329.89099    
     27520   1281.0604     -5705.0922     -5450.9114     -8892.1782      46939.173      330.23577    
     27530   1280.3549     -5705.4016     -5451.3609     -9011.0258      46947.679      330.59487    
     27540   1270.355      -5703.8474     -5451.7908     -8849.4066      46956.361      330.96405    
     27550   1260.447      -5702.2793     -5452.1886     -8927.7519      46964.829      331.3147     
     27560   1243.0103     -5699.1335     -5452.5025     -9206.3393      46972.97       331.63686    
     27570   1255.1681     -5701.775      -5452.7317     -9715.2334      46980.828      331.96067    
     27580   1234.5627     -5697.8031     -5452.8482     -9652.6332      46988.376      332.3043     
     27590   1246.8238     -5700.2607     -5452.873      -9608.9949      46995.92       332.64141    
     27600   1241.8059     -5699.1793     -5452.7872     -9339.2648      47004.077      332.94764    
[...]
     48200   1193.4283     -5726.1808     -5489.3875     -262.11942      47221.241      929.3641     
     48210   1192.2505     -5726.0028     -5489.4432     -429.21835      47236.066      930.1015     
     48220   1179.1401     -5723.4258     -5489.4675     -213.62296      47249.884      930.86405    
     48230   1176.302      -5722.8087     -5489.4136      82.936751      47263.201      931.70492    
     48240   1185.0521     -5724.4175     -5489.2862      179.41028      47276.726      932.67513    
     48250   1200.9304     -5727.3871     -5489.1053     -32.362185      47290.703      933.75085    
     48260   1210.6231     -5729.1431     -5488.9381     -337.40002      47304.587      934.86128    
     48270   1198.484      -5726.5756     -5488.7792     -418.32267      47317.696      935.90731    
     48280   1225.695      -5731.8607     -5488.6653     -949.6124       47329.576      936.83371    
     48290   1210.7929     -5728.8446     -5488.6059     -911.31111      47339.121      937.63581    
     48300   1179.8945     -5722.7003     -5488.5923     -400.88214      47346.406      938.32475    
     48310   1187.1462     -5724.0824     -5488.5356     -335.01778      47352.534      938.91266    
     48320   1201.808      -5726.8755     -5488.4196     -510.11019      47357.732      939.47651    
     48330   1199.8202     -5726.3551     -5488.2936     -668.1763       47361.603      940.06436    
     48340   1207.3334     -5727.731      -5488.1787     -905.53282      47363.673      940.61597    
     48350   1187.8997     -5723.7437     -5488.0473     -714.1485       47363.468      941.09842    
     48360   1196.5464     -5725.2927     -5487.8808     -776.8856       47361.295      941.47038    
     48370   1226.4424     -5731.0408     -5487.697      -954.02934      47357.032      941.67568    
     48380   1221.3678     -5729.9154     -5487.5785     -544.67385      47350.404      941.72355    
     48390   1225.1028     -5730.6317     -5487.5538     -390.15189      47342.228      941.68997    
     48400   1214.4619     -5728.5919     -5487.6253     -253.89962      47333.011      941.70539    
     48410   1196.2744     -5725.136      -5487.778      -5.7015785      47323.151      941.89265    
     48420   1205.9904     -5727.2527     -5487.9669     -44.342864      47313.179      942.31409    
     48430   1215.9535     -5729.4921     -5488.2295     -89.614257      47303.069      942.85763    
     48440   1221.7022     -5731.0276     -5488.6244      50.158079      47292.743      943.31701    
     48450   1209.4034     -5729.1401     -5489.1772      421.14631      47282.576      943.5955     
     48460   1188.1402     -5725.6227     -5489.8786      666.81739      47273.402      943.71458    
     48470   1186.7944     -5726.1445     -5490.6675      757.398        47265.965      943.74914    
     48480   1192.2683     -5728.1041     -5491.541       984.64315      47260.534      943.79005    
     48490   1176.5373     -5725.9061     -5492.4643      1525.2438      47257.749      943.83389    
     48500   1179.3499     -5727.4065     -5493.4066      1517.532       47258.839      943.89446    
     48510   1175.3763     -5727.5347     -5494.3232      1301.8994      47263.9        944.03256    
     48520   1180.5585     -5729.4492     -5495.2095      704.31867      47272.302      944.30892    
     48530   1181.5332     -5730.4885     -5496.0554      84.594653      47282.609      944.78943    
     48540   1190.7184     -5733.1333     -5496.8777     -217.33471      47293.292      945.47839    
     48550   1187.2301     -5733.2501     -5497.6867      63.001614      47303.634      946.29831    
     48560   1159.0561     -5728.4073     -5498.434       462.95096      47314.253      947.11743    
     48570   1171.3486     -5731.4692     -5499.0569      121.6275       47325.964      947.90652    
     48580   1190.0149     -5735.6917     -5499.5756     -356.66098      47338.002      948.67842    
     48590   1188.0918     -5735.7869     -5500.0524     -358.15919      47349.256      949.40255    
     48600   1163.1017     -5731.2455     -5500.4694     -106.83988      47359.667      950.07392    
     48610   1145.6459     -5728.0598     -5500.7473     -31.210786      47369.838      950.78284    
     48620   1166.9529     -5732.3943     -5500.8541     -687.39007      47379.806      951.57816    
     48630   1169.383      -5732.8484     -5500.826      -974.43129      47388.125      952.37006    
     48640   1148.6253     -5728.574      -5500.6703     -661.28686      47394.018      953.02715    
     48650   1132.5944     -5725.0408     -5500.3178     -11.474349      47398.287      953.48895    
     48660   1135.3189     -5724.9467     -5499.6831      507.40632      47402.583      953.79891    
     48670   1182.1504     -5733.3354     -5498.7799      377.18817      47408.083      954.05161    
     48680   1191.6034     -5734.1118     -5497.6806      513.11595      47414.758      954.29676    
     48690   1200.9015     -5734.8091     -5496.533       246.03077      47422.785      954.56023    
     48700   1203.2389     -5734.0759     -5495.3361     -298.83657      47431.491      954.8134     
     48710   1194.158      -5731.0928     -5494.1547     -751.71448      47439.509      955.04328    
     48720   1183.8179     -5727.8606     -5492.9742     -830.0441       47445.729      955.28265    
     48730   1189.4941     -5727.8119     -5491.7992     -645.6847       47449.842      955.58191    
     48740   1184.4754     -5725.6487     -5490.6318      19.919336      47452.432      955.96301    
     48750   1205.8298     -5728.7684     -5489.5145      620.55804      47455.082      956.3973     
     48760   1230.8268     -5732.7162     -5488.5025      1073.1019      47459.358      956.89006    
     48770   1212.5311     -5728.2759     -5487.6923      1863.3767      47466.639      957.48842    
     48780   1206.2325     -5726.395      -5487.0612      1918.8101      47478.775      958.20035    
     48790   1197.6506     -5724.1567     -5486.5257      1600.7643      47496.135      958.90779    
     48800   1190.1463     -5722.1993     -5486.0573      1120.4844      47518.017      959.51939    
     48810   1208.4873     -5725.396      -5485.6148      487.40189      47543.176      960.03777    
     48820   1226.635      -5728.6219     -5485.24        416.68939      47570.085      960.55957    
     48830   1210.1688     -5725.1177     -5485.0029      896.68327      47598.562      961.20794    
     48840   1187.4905     -5720.4467     -5484.8315      1386.3455      47629.841      962.01253    
     48850   1195.5892     -5721.8921     -5484.6701      1015.5251      47665.028      962.96293    
     48860   1186.7581     -5719.9479     -5484.4781      547.82997      47703.459      964.11588    
     48870   1193.4299     -5721.0571     -5484.2635     -224.9749       47743.801      965.51837    
     48880   1194.7048     -5721.0586     -5484.0121     -885.89996      47784.111      967.05093    
     48890   1194.1754     -5720.6953     -5483.7538     -1185.1289      47822.635      968.55849    
     48900   1195.4468     -5720.6774     -5483.4836     -1099.2613      47858.547      969.94476    
     48910   1215.3932     -5724.3812     -5483.2298     -976.19651      47891.971      971.19622    
     48920   1224.9244     -5726.0632     -5483.0207     -964.09412      47923.141      972.35617    
     48930   1223.6867     -5725.7102     -5482.9132     -872.77761      47952.112      973.45117    
     48940   1206.5057     -5722.2869     -5482.8988     -603.00214      47979.141      974.50273    
     48950   1186.9339     -5718.4208     -5482.9161     -579.50737      48004.8        975.60837    
     48960   1183.8909     -5717.7902     -5482.8892     -763.98349      48029.158      976.80661    
     48970   1202.5744     -5721.4186     -5482.8106     -946.81177      48051.702      978.05727    
     48980   1213.4804     -5723.5063     -5482.7345     -701.11899      48072.045      979.31808    
     48990   1200.7447     -5720.9253     -5482.6803     -347.62877      48090.751      980.52955    
     49000   1205.8694     -5721.9192     -5482.6574     -442.76761      48108.637      981.64944    
     49010   1215.182      -5723.7579     -5482.6484     -846.25118      48125.42       982.65227    
     49020   1216.167      -5723.9982     -5482.6932     -1000.729       48140.143      983.51415    
     49030   1214.2084     -5723.7334     -5482.8171     -1119.2628      48152.279      984.20076    
     49040   1219.6731     -5725.0195     -5483.0189     -1175.0996      48161.461      984.74688    
     49050   1230.6078     -5727.5204     -5483.3502     -1091.7055      48167.512      985.25193    
     49060   1223.4769     -5726.6235     -5483.8682     -856.55979      48170.641      985.76445    
     49070   1204.7693     -5723.5975     -5484.554      -401.92181      48171.538      986.29522    
     49080   1199.6797     -5723.4419     -5485.4083     -91.029385      48171.317      986.83245    
     49090   1188.1743     -5722.1726     -5486.4218      24.316021      48170.781      987.35082    
     49100   1178.3061     -5721.3992     -5487.6064     -115.339        48170.232      987.86626    
     49110   1168.7582     -5720.8224     -5488.924      -304.58971      48169.364      988.40512    
     49120   1156.3536     -5719.7435     -5490.3064     -390.91759      48167.672      988.92207    
     49130   1167.0431     -5723.2837     -5491.7256     -538.53096      48164.867      989.36061    
     49140   1171.6543     -5725.6154     -5493.1424     -491.94073      48160.615      989.71856    
     49150   1171.4685     -5726.9476     -5494.5115     -359.17252      48154.972      990.04889    
     49160   1183.7792     -5730.7302     -5495.8515     -211.15573      48148.269      990.38457    
     49170   1164.5875     -5728.1576     -5497.0868      68.131756      48140.963      990.74772    
     49180   1166.9667     -5729.7253     -5498.1824     -138.30442      48133.627      991.10918    
     49190   1160.8783     -5729.4346     -5499.0997     -512.85616      48125.796      991.47155    
     49200   1152.5051     -5728.4996     -5499.8261     -985.61473      48116.402      991.83661    
     49210   1146.3214     -5727.7808     -5500.3342     -1245.3059      48104.217      992.10889    
     49220   1123.8967     -5723.6045     -5500.6073     -1034.2607      48088.549      992.18713    
     49230   1116.9476     -5722.2026     -5500.5842     -856.79059      48069.829      992.0731     
     49240   1150.0466     -5728.4718     -5500.2861     -1236.7457      48048.351      991.85044    
     49250   1157.9866     -5729.5649     -5499.8038     -1158.3903      48023.341      991.59104    
     49260   1137.2123     -5724.7939     -5499.1547     -645.65601      47994.927      991.35012    
     49270   1139.7853     -5724.4812     -5498.3315     -515.60988      47964.255      991.18275    
     49280   1148.0932     -5725.1195     -5497.3214     -608.37325      47931.724      991.07382    
     49290   1152.5404     -5724.8591     -5496.1786     -687.0312       47897.078      990.96935    
     49300   1152.1049     -5723.558      -5494.9639     -491.95794      47860.228      990.80448    
     49310   1170.0122     -5725.8867     -5493.7395     -470.10466      47821.541      990.56833    
     49320   1181.0699     -5726.907      -5492.5658     -296.34165      47781.168      990.26445    
     49330   1192.8616     -5728.2177     -5491.5368     -317.0798       47739.452      989.94761    
     49340   1184.0864     -5725.6132     -5490.6735     -223.82808      47696.493      989.66266    
     49350   1193.0369     -5726.6876     -5489.972      -599.66232      47652.321      989.41797    
     49360   1210.411      -5729.5624     -5489.3995     -1075.0982      47606.063      989.14446    
     49370   1207.8598     -5728.6318     -5488.9752     -1012.6379      47556.622      988.72541    
     49380   1218.9663     -5730.5149     -5488.6545     -570.64289      47504.133      988.09816    
     49390   1236.63       -5733.8071     -5488.442       65.446138      47449.749      987.3192     
     49400   1236.8552     -5733.7698     -5488.36        884.22865      47395.182      986.50861    
     49410   1222.2186     -5730.9056     -5488.4         1487.4446      47342.535      985.7986     
     49420   1218.2071     -5730.2336     -5488.5239      1576.3465      47293.375      985.25489    
     49430   1223.9384     -5731.5688     -5488.7219      1321.1214      47248.025      984.81712    
     49440   1222.5054     -5731.5787     -5489.0161      1150.5008      47205.969      984.39824    
     49450   1215.2389     -5730.4893     -5489.3684      1024.0241      47166.785      984.0247     
     49460   1210.8935     -5730.0359     -5489.7773      885.92341      47130.139      983.7285     
     49470   1213.8318     -5731.0803     -5490.2387      781.57608      47095.685      983.5324     
     49480   1230.7979     -5735.0061     -5490.7982      701.53667      47063.143      983.49053    
     49490   1218.5876     -5733.2417     -5491.4565      931.40131      47032.422      983.58647    
     49500   1203.6147     -5730.988      -5492.1736      1183.7197      47004.071      983.70807    
     49510   1199.216      -5730.8485     -5492.9069      1136.2245      46978.69       983.8252     
     49520   1217.5656     -5735.2661     -5493.6837      685.67327      46956.144      983.96982    
     49530   1203.2003     -5733.2563     -5494.5242      489.21612      46935.431      984.16733    
     49540   1185.0947     -5730.4893     -5495.3495      384.30242      46915.983      984.48063    
     49550   1194.1838     -5733.0773     -5496.1341     -114.59577      46897.4        984.96045    
     49560   1177.2932     -5730.4409     -5496.8491     -272.50628      46878.609      985.53546    
     49570   1178.9178     -5731.3945     -5497.4803     -412.29076      46859.072      986.10637    
     49580   1184.7947     -5733.1066     -5498.0263     -353.88323      46838.523      986.67691    
     49590   1166.0632     -5729.8488     -5498.4851      176.67924      46817.237      987.24808    
     49600   1163.0358     -5729.5587     -5498.7958      397.70737      46796.413      987.77365    
     49610   1192.393      -5735.592      -5499.0042      28.715668      46776.562      988.23758    
     49620   1198.8422     -5737.0565     -5499.1891     -80.050377      46756.92       988.60119    
     49630   1183.8901     -5734.2719     -5499.3711      274.33089      46737.283      988.81183    
     49640   1177.1206     -5733.0491     -5499.4915      533.99582      46718.443      988.90463    
     49650   1201.3359     -5737.9047     -5499.5424      286.11023      46700.927      988.92532    
     49660   1195.0614     -5736.6954     -5499.5781      567.86775      46684.437      988.91112    
     49670   1191.0244     -5735.9235     -5499.6072      896.40401      46669.551      988.94125    
     49680   1211.5385     -5739.9987     -5499.6121      989.91321      46657.025      989.06137    
     49690   1216.3102     -5740.9893     -5499.6559      1135.6205      46647.147      989.31603    
     49700   1188.2204     -5735.4998     -5499.7398      1520.4786      46640.35       989.70375    
     49710   1187.3118     -5735.3679     -5499.7883      1180.1325      46637.284      990.18478    
     49720   1196.8989     -5737.292      -5499.8101      514.43066      46637.199      990.75629    
     49730   1187.4225     -5735.4075     -5499.8058      140.04117      46638.544      991.38354    
     49740   1186.0229     -5735.1031     -5499.7792     -355.70189      46640.195      991.99048    
     49750   1164.6938     -5730.7771     -5499.6852     -521.99658      46640.975      992.50579    
     49760   1156.4169     -5728.8713     -5499.4217     -517.95582      46640.447      992.95497    
     49770   1171.8884     -5731.4385     -5498.919      -577.03552      46638.562      993.33919    
     49780   1172.1606     -5730.7643     -5498.1908     -97.482069      46635.359      993.59794    
     49790   1160.9852     -5727.583      -5497.2269      620.34031      46632.055      993.71136    
     49800   1198.6962     -5733.858      -5496.0195      528.09255      46630.167      993.74328    
     49810   1201.4859     -5733.0256     -5494.6336      712.69648      46629.771      993.84946    
     49820   1189.9406     -5729.295      -5493.1938      956.579        46631.227      994.13383    
     49830   1199.8278     -5729.785      -5491.722       734.81822      46634.985      994.61846    
     49840   1203.9325     -5729.131      -5490.2535      457.14013      46640.575      995.25342    
     49850   1210.0159     -5728.9592     -5488.8747      187.13671      46647.244      995.93626    
     49860   1217.4469     -5729.1932     -5487.6343     -78.100004      46654.254      996.57871    
     49870   1209.2295     -5726.4694     -5486.5409     -115.42844      46660.982      997.14732    
     49880   1216.983      -5727.0806     -5485.6137     -179.85858      46667.266      997.66154    
     49890   1193.6254     -5721.6178     -5484.7854      142.95277      46673.113      998.14349    
     49900   1203.352      -5722.8047     -5484.0424     -75.149232      46679.082      998.62118    
     49910   1218.4293     -5725.088      -5483.3342     -549.66169      46684.714      999.06708    
     49920   1224.9913     -5725.8007     -5482.7448     -731.52959      46688.95       999.41151    
     49930   1225.6324     -5725.4773     -5482.2943     -623.59794      46691.303      999.65942    
     49940   1208.9023     -5721.8057     -5481.9421     -228.5734       46692.092      999.91905    
     49950   1208.2478     -5721.3922     -5481.6585     -54.421014      46692.239      1000.1919    
     49960   1199.3464     -5719.3766     -5481.4091      357.80889      46692.313      1000.377     
     49970   1205.682      -5720.399      -5481.1745      815.63286      46693.292      1000.4526    
     49980   1225.3799     -5724.1011     -5480.9681      1132.6134      46696.339      1000.4959    
     49990   1229.6914     -5724.847      -5480.8587      1379.6391      46702.224      1000.6249    
     50000   1235.9422     -5726.083      -5480.8544      1175.5681      46711.378      1000.9466    
Loop time of 8625.4 on 1 procs for 20000 steps with 1536 atoms

Performance: 0.200 ns/day, 119.797 hours/ns, 2.319 timesteps/s, 3.562 katom-step/s
121.0% CPU use with 1 MPI tasks x 1 OpenMP threads

MPI task timing breakdown:
Section |  min time  |  avg time  |  max time  |%varavg| %total
---------------------------------------------------------------
Pair    | 8519.8     | 8519.8     | 8519.8     |   0.0 | 98.78
Bond    | 0.018652   | 0.018652   | 0.018652   |   0.0 |  0.00
Neigh   | 6.1697     | 6.1697     | 6.1697     |   0.0 |  0.07
Comm    | 0.87882    | 0.87882    | 0.87882    |   0.0 |  0.01
Output  | 96.675     | 96.675     | 96.675     |   0.0 |  1.12
Modify  | 1.6178     | 1.6178     | 1.6178     |   0.0 |  0.02
Other   |            | 0.261      |            |       |  0.00

Nlocal:           1536 ave        1536 max        1536 min
Histogram: 1 0 0 0 0 0 0 0 0 0
Nghost:           3245 ave        3245 max        3245 min
Histogram: 1 0 0 0 0 0 0 0 0 0
Neighs:              0 ave           0 max           0 min
Histogram: 1 0 0 0 0 0 0 0 0 0
FullNghs:        51928 ave       51928 max       51928 min
Histogram: 1 0 0 0 0 0 0 0 0 0

Total # of neighbors = 51928
Ave neighs/atom = 33.807292
Ave special neighs/atom = 0
Neighbor list builds = 2000
Dangerous builds = 2000
unfix           3

write_data      structure.end.data
System init for write_data ...
write_restart   structure.end
System init for write_restart ...
                    
Total wall time: 3:40:28
