LAMMPS (29 Sep 2021 - Update 3)
OMP_NUM_THREADS environment is not set. Defaulting to 1 thread. (src/comm.cpp:98)
  using 1 OpenMP thread(s) per MPI task
units	metal
atom_style	full

read_data	mixed.data
Reading data file ...
  orthogonal box = (0.0000000 0.0000000 0.0000000) to (18.492711 18.368364 83.044081)
  2 by 1 by 8 MPI processor grid
  reading atoms ...
  864 atoms
Finding 1-2 1-3 1-4 neighbors ...
  special bond factors lj:    0        0        0       
  special bond factors coul:  0        0        0       
     0 = max # of 1-2 neighbors
     0 = max # of 1-3 neighbors
     0 = max # of 1-4 neighbors
     1 = max # of special neighbors
  special bonds CPU = 0.001 seconds
  read_data CPU = 0.008 seconds

pair_style	quip
pair_coeff	* * /ocean/projects/cts180021p/wuziqi/clease/mint-PD/PhaseDiagram-Clease/Liquid/GAP_potential/gap_LiKCl.xml "Potential xml_label=GAP_2021_9_27_0_1_17_37_618" 17 19 3

neighbor	0.3 bin
neigh_modify	delay 10

timestep	0.001
compute	msd all msd
thermo_style	custom step temp pe etotal press vol c_msd[4]
thermo	10
dump	1 all custom 10 xyz-mix.dump type id x y z
dump	2 all custom 10 force-mix.dump type id fx fy fz

fix     1 all nve
run     2000
Neighbor list info ...
  update every 1 steps, delay 10 steps, check yes
  max neighbors/atom: 2000, page size: 100000
  master list distance cutoff = 6.22
  ghost atom cutoff = 6.22
  binsize = 3.11, bins = 6 6 27
  1 neighbor lists, perpetual/occasional/extra = 1 0 0
  (1) pair quip, perpetual
      attributes: full, newton on
      pair build: full/bin
      stencil: full/bin/3d
      bin: standard
Per MPI rank memory allocation (min/avg/max) = 8.888 | 8.895 | 8.900 Mbytes
Step Temp PotEng TotEng Press Volume c_msd[4] 
       0            0   -7973.6696   -7973.6696   -2874.2394    28208.484            0 
      10    41.278351   -7978.2784   -7973.6737   -2959.4518    28208.484 0.00023887099 
      20    117.01377   -7986.7312   -7973.6782   -2971.9336    28208.484 0.0029537371 
      30    174.81925   -7993.1785   -7973.6771   -2824.2466    28208.484  0.010160551 
      40    218.44962    -7998.045   -7973.6766   -2720.6333    28208.484  0.020641735 
      50    256.00476   -8002.2349   -7973.6771   -2700.3711    28208.484  0.032489043 
      60    281.23595   -8005.0509   -7973.6786   -2720.3164    28208.484  0.045481137 
      70    279.84796   -8004.8936   -7973.6762   -2497.2427    28208.484  0.060875411 
      80    275.57271   -8004.4166   -7973.6761   -2346.6282    28208.484  0.078472831 
      90    275.14134   -8004.3684    -7973.676   -2375.5075    28208.484  0.097756432 
     100    277.97329   -8004.6843   -7973.6759   -2450.2098    28208.484   0.11838341 
     110    284.32121   -8005.3929   -7973.6764   -2585.3887    28208.484    0.1397563 
     120    288.42818   -8005.8514   -7973.6768   -2555.7238    28208.484   0.16133553 
     130    287.27066   -8005.7216   -7973.6761   -2379.8786    28208.484   0.18293983 
     140    286.58177   -8005.6454   -7973.6767   -2199.4073    28208.484   0.20440576 
     150    283.09159    -8005.256   -7973.6767   -2058.8623    28208.484   0.22545748 
     160    281.87093     -8005.12   -7973.6769   -2002.9487    28208.484   0.24504756 
     170    281.00839    -8005.024   -7973.6771   -2057.3307    28208.484   0.26222423 
     180    282.68046     -8005.21   -7973.6765   -2118.7926    28208.484   0.27648184 
     190    291.53832   -8006.1995   -7973.6779   -2237.0667    28208.484   0.28923786 
     200    293.64302   -8006.4325   -7973.6762   -2373.3356    28208.484   0.30372277 
     210    298.64228   -8006.9936   -7973.6796   -2435.1957    28208.484   0.32052492 
     220    292.65421   -8006.3221   -7973.6761   -2273.8456    28208.484   0.33666335 
     230    296.18967   -8006.7198   -7973.6794   -2277.4624    28208.484   0.34931106 
     240    282.07352   -8005.1401   -7973.6743   -2198.7147    28208.484   0.36070053 
     250    293.47873    -8006.417    -7973.679   -2346.9356    28208.484   0.37209929 
     260    294.86866   -8006.5718   -7973.6788   -2406.0825    28208.484   0.38456478 
     270    292.66954   -8006.3399   -7973.6921   -2371.6679    28208.484   0.39632792 
     280    288.22645   -8005.8424   -7973.6903   -2343.9303    28208.484   0.40740341 
     290    280.03766   -8004.9272   -7973.6886   -2399.6918    28208.484   0.41930862 
     300    280.42672   -8004.9707   -7973.6886   -2493.7264    28208.484   0.43203295 
     310    287.66524   -8005.7795     -7973.69   -2540.7382    28208.484   0.44617059 
     320    287.59248   -8005.7709   -7973.6895   -2479.6365    28208.484   0.46153129 
     330    287.30367   -8005.7384   -7973.6892   -2430.7941    28208.484   0.47558463 
     340      291.107   -8006.1632   -7973.6897   -2433.3574    28208.484   0.48761679 
     350    290.07985   -8006.0486   -7973.6898   -2407.8749    28208.484   0.49931209 
     360    283.46216   -8005.3096    -7973.689    -2324.857    28208.484   0.51138392 
     370    283.31611   -8005.2933    -7973.689   -2223.9029    28208.484   0.52363749 
     380    293.81781   -8006.4657   -7973.6899   -2201.7975    28208.484   0.53571675 
     390    300.79692   -8007.2454   -7973.6911   -2203.1603    28208.484   0.54763687 
     400    296.63974     -8006.78   -7973.6894   -2207.2978    28208.484   0.55946952 
     410     295.9675   -8006.7055   -7973.6899    -2389.454    28208.484   0.57119336 
     420    296.34311   -8006.7466   -7973.6891   -2528.2941    28208.484   0.58115249 
     430    302.08464   -8007.3879   -7973.6899   -2546.6384    28208.484   0.58802692 
     440    300.89773   -8007.2566    -7973.691   -2408.1467    28208.484   0.59313659 
     450    295.75798   -8006.6815   -7973.6893   -2201.4544    28208.484   0.59704421 
     460    298.71554   -8007.0127   -7973.6905   -2097.6901    28208.484   0.60034051 
     470    293.57038   -8006.4367   -7973.6885   -1853.8963    28208.484   0.60455383 
     480    299.68957   -8007.1205   -7973.6897   -1687.1392    28208.484   0.60898733 
     490    304.28303    -8007.634   -7973.6908   -1569.5251    28208.484   0.61372446 
     500    297.76534   -8006.9049   -7973.6887   -1520.9163    28208.484   0.61909997 
     510     298.0343    -8006.936   -7973.6898   -1578.3555    28208.484     0.624484 
     520    298.51386   -8006.9892   -7973.6895   -1617.2528    28208.484   0.63055005 
     530    299.67651    -8007.119   -7973.6896   -1583.6011    28208.484   0.63765456 
     540    301.93935   -8007.3714   -7973.6896    -1486.536    28208.484   0.64551302 
     550    304.04909   -8007.6074   -7973.6903   -1392.2763    28208.484    0.6536082 
     560    304.32541   -8007.6381   -7973.6901   -1287.1967    28208.484   0.66116979 
     570    303.65289   -8007.5627   -7973.6898   -1155.3607    28208.484   0.66831766 
     580    306.61685   -8007.8931   -7973.6895   -1197.3354    28208.484   0.67540713 
     590    314.13334   -8008.7329   -7973.6909   -1349.2051    28208.484   0.68183493 
     600    314.58012   -8008.7816   -7973.6897   -1383.1623    28208.484   0.68848067 
     610    313.36382   -8008.6461   -7973.6899   -1339.6031    28208.484   0.69624527 
     620     312.9428   -8008.5985   -7973.6893   -1300.0364    28208.484   0.70606469 
     630    317.72028    -8009.132   -7973.6899   -1341.7477    28208.484   0.71807814 
     640    322.57063   -8009.6733   -7973.6901   -1410.5145    28208.484   0.73069429 
     650    323.60168   -8009.7886   -7973.6903   -1540.2113    28208.484   0.74223138 
     660    318.39172   -8009.2068   -7973.6897   -1568.6259    28208.484   0.75263353 
     670    316.27474   -8008.9702   -7973.6892   -1586.0839    28208.484    0.7619451 
     680    320.95534   -8009.4935   -7973.6904   -1558.4885    28208.484   0.77150239 
     690    319.85933   -8009.3708     -7973.69    -1459.468    28208.484   0.78296875 
     700    315.81982   -8008.9199   -7973.6897   -1330.2989    28208.484   0.79605918 
     710    316.18394   -8008.9601   -7973.6893   -1285.6029    28208.484   0.80930055 
     720    321.99795   -8009.6098   -7973.6904   -1374.2337    28208.484   0.82124899 
     730    320.60154   -8009.4538   -7973.6902   -1440.5044    28208.484   0.83277534 
     740    316.58517   -8009.0043   -7973.6888   -1452.0725    28208.484    0.8439361 
     750    321.27163   -8009.5293    -7973.691   -1655.1798    28208.484     0.854338 
     760    314.38368   -8008.7598   -7973.6899   -1838.5562    28208.484   0.86584884 
     770     305.9368   -8007.8166   -7973.6889   -1999.9526    28208.484   0.87941766 
     780    305.71483   -8007.7927   -7973.6897   -2140.7584    28208.484   0.89394007 
     790    305.84031   -8007.8065   -7973.6896   -2209.2571    28208.484   0.90782838 
     800    306.48205   -8007.8784   -7973.6899   -2275.1918    28208.484   0.92026204 
     810    304.33355   -8007.6388   -7973.6899   -2343.4421    28208.484   0.93178116 
     820    297.82924   -8006.9125   -7973.6892   -2314.2529    28208.484    0.9431626 
     830    296.11711   -8006.7216   -7973.6893   -2340.1192    28208.484   0.95457823 
     840    299.50491   -8007.0998   -7973.6896   -2406.4366    28208.484   0.96506277 
     850    304.52466   -8007.6597   -7973.6895   -2460.7845    28208.484   0.97329313 
     860     310.8399   -8008.3649   -7973.6902   -2449.0401    28208.484   0.97916609 
     870    310.67413   -8008.3459   -7973.6897   -2327.6881    28208.484   0.98350092 
     880    309.42712   -8008.2065   -7973.6894   -2225.4629    28208.484   0.98651824 
     890    311.26126   -8008.4116   -7973.6899    -2248.854    28208.484   0.98981853 
     900    313.26109   -8008.6341   -7973.6893   -2271.1415    28208.484     0.995508 
     910    320.18937   -8009.4082   -7973.6906   -2399.0494    28208.484    1.0049166 
     920    319.06768   -8009.2826   -7973.6901    -2517.896    28208.484    1.0179539 
     930    311.48412   -8008.4358   -7973.6893   -2630.8665    28208.484    1.0322955 
     940    307.33364   -8007.9728   -7973.6893   -2692.4224    28208.484    1.0452919 
     950    306.79072   -8007.9125   -7973.6895   -2690.0291    28208.484    1.0559933 
     960    307.40028   -8007.9805   -7973.6895    -2685.778    28208.484    1.0648912 
     970    308.12458   -8008.0613   -7973.6895   -2650.3957    28208.484    1.0729687 
     980    308.40186   -8008.0924   -7973.6897   -2580.8757    28208.484    1.0808973 
     990    307.35297   -8007.9752   -7973.6895    -2481.356    28208.484    1.0887898 
    1000    307.21435     -8007.96   -7973.6898   -2353.6684    28208.484    1.0961224 
    1010    306.76152   -8007.9091   -7973.6894   -2248.7956    28208.484    1.1027335 
    1020    309.26646    -8008.189   -7973.6898   -2286.0041    28208.484    1.1099454 
    1030    310.25342   -8008.2989   -7973.6897   -2305.1256    28208.484    1.1183111 
    1040    307.62812   -8008.0062   -7973.6898    -2294.831    28208.484    1.1271276 
    1050    300.85261   -8007.2498   -7973.6892   -2274.7356    28208.484    1.1353455 
    1060    298.03491   -8006.9356   -7973.6894   -2274.0022    28208.484    1.1412949 
    1070     298.1827   -8006.9525   -7973.6898   -2240.2755    28208.484    1.1449307 
    1080    298.32389   -8006.9674   -7973.6889   -2186.0158    28208.484    1.1478628 
    1090    304.12167   -8007.6156   -7973.6903   -2224.5843    28208.484    1.1507358 
    1100    303.21342   -8007.5135   -7973.6896   -2273.1413    28208.484    1.1542182 
    1110    302.55349   -8007.4391   -7973.6888   -2350.8777    28208.484    1.1583885 
    1120    311.89752   -8008.4827   -7973.6901   -2437.4889    28208.484     1.162828 
    1130    317.78566     -8009.14   -7973.6905   -2446.8483    28208.484     1.167408 
    1140    311.56568   -8008.4454   -7973.6898   -2410.0182    28208.484    1.1717043 
    1150    303.07264   -8007.4971   -7973.6889   -2380.3816    28208.484    1.1751291 
    1160    303.70308   -8007.5677   -7973.6892    -2470.872    28208.484    1.1775178 
    1170    310.51899   -8008.3284   -7973.6895   -2617.7569    28208.484    1.1788381 
    1180    316.91994   -8009.0426   -7973.6898   -2682.3818    28208.484    1.1790698 
    1190    320.34041   -8009.4241   -7973.6896   -2666.8258    28208.484    1.1789053 
    1200    321.06279   -8009.5055   -7973.6905   -2603.0061    28208.484    1.1796194 
    1210    314.26027   -8008.7456   -7973.6894   -2485.4053    28208.484    1.1821764 
    1220    309.32884    -8008.196   -7973.6899    -2464.998    28208.484    1.1865082 
    1230    306.19371   -8007.8458   -7973.6895   -2530.8384    28208.484    1.1911967 
    1240    306.63151   -8007.8948   -7973.6896   -2616.4378    28208.484    1.1944331 
    1250    309.06475   -8008.1663   -7973.6897   -2607.8093    28208.484    1.1957913 
    1260    312.48643   -8008.5482   -7973.6898    -2462.899    28208.484    1.1957707 
    1270    312.94072   -8008.5995   -7973.6905   -2234.5909    28208.484    1.1949586 
    1280    309.44145   -8008.2076   -7973.6889   -2027.1289    28208.484    1.1941489 
    1290    314.87458   -8008.8149   -7973.6902   -1974.2087    28208.484    1.1943163 
    1300    319.36818   -8009.3159   -7973.6899   -1982.4404    28208.484     1.195877 
    1310    321.84143   -8009.5922   -7973.6903   -1943.5386    28208.484    1.1987306 
    1320    321.73486     -8009.58     -7973.69    -1845.706    28208.484    1.2036004 
    1330    320.53672   -8009.4466   -7973.6902   -1700.8294    28208.484    1.2106875 
    1340    314.45984   -8008.7682   -7973.6898   -1509.1942    28208.484    1.2186301 
    1350    308.88407   -8008.1459   -7973.6894   -1443.5528    28208.484    1.2257175 
    1360    308.85021   -8008.1421   -7973.6894   -1546.3935    28208.484    1.2310073 
    1370    314.64585   -8008.7893   -7973.6901   -1721.3694    28208.484     1.234708 
    1380    316.29012   -8008.9734   -7973.6908   -1817.9195    28208.484    1.2377498 
    1390    307.32275   -8007.9718   -7973.6895   -1803.5548    28208.484    1.2409119 
    1400    301.76471   -8007.3515   -7973.6892   -1859.1426    28208.484    1.2443267 
    1410    303.86241   -8007.5861   -7973.6897   -1936.9087    28208.484    1.2481193 
    1420    306.88628   -8007.9231   -7973.6894   -1917.1497    28208.484    1.2526965 
    1430    311.21927   -8008.4068   -7973.6898   -1887.7633    28208.484    1.2583105 
    1440    313.42496   -8008.6528   -7973.6898   -1851.4527    28208.484    1.2642026 
    1450     313.3569   -8008.6451   -7973.6897   -1798.7574    28208.484     1.269636 
    1460    313.21275   -8008.6295   -7973.6901   -1825.1156    28208.484    1.2754342 
    1470    309.64761   -8008.2313   -7973.6896   -1804.0626    28208.484    1.2823313 
    1480    309.40126   -8008.2029   -7973.6887   -1783.0935    28208.484    1.2890305 
    1490    320.42565   -8009.4341   -7973.6901   -1893.3186    28208.484    1.2938055 
    1500    328.10175   -8010.2905   -7973.6903   -1974.4184    28208.484    1.2976917 
    1510    327.81197   -8010.2577   -7973.6898    -1937.058    28208.484    1.3022885 
    1520     324.2243   -8009.8576   -7973.6899   -1828.5619    28208.484    1.3070588 
    1530    318.99753   -8009.2739   -7973.6893   -1744.3097    28208.484    1.3111416 
    1540    315.99968   -8008.9401   -7973.6899   -1679.5222    28208.484    1.3147163 
    1550    311.82694   -8008.4737   -7973.6889   -1676.3191    28208.484     1.318865 
    1560    315.99733   -8008.9396   -7973.6896   -1782.1266    28208.484    1.3245612 
    1570    321.70035   -8009.5765   -7973.6904   -1943.6277    28208.484    1.3315419 
    1580    318.91113   -8009.2648   -7973.6898   -1980.5418    28208.484     1.338424 
    1590    316.40503   -8008.9842   -7973.6888   -1871.1257    28208.484    1.3448929 
    1600    323.69059   -8009.7984   -7973.6903   -1863.2593    28208.484    1.3517889 
    1610    324.55521    -8009.895   -7973.6903   -1926.3043    28208.484    1.3589892 
    1620    317.22283   -8009.0757    -7973.689    -2033.451    28208.484    1.3640281 
    1630    315.56944   -8008.8917   -7973.6895   -2189.5743    28208.484    1.3650114 
    1640          316   -8008.9396   -7973.6894   -2246.5115    28208.484     1.363698 
    1650     317.3618   -8009.0917   -7973.6895   -2167.3771    28208.484    1.3628757 
    1660    317.92845   -8009.1553   -7973.6899   -2101.0814    28208.484    1.3639966 
    1670    314.61233   -8008.7852   -7973.6897   -2010.9785    28208.484    1.3669961 
    1680    312.18324   -8008.5133   -7973.6888   -2055.2147    28208.484     1.371293 
    1690    317.45918   -8009.1028   -7973.6897    -2191.224    28208.484    1.3761955 
    1700    321.08797   -8009.5076   -7973.6898   -2266.1824    28208.484    1.3813209 
    1710    322.36089   -8009.6492   -7973.6893   -2262.0514    28208.484    1.3861808 
    1720    325.18317   -8009.9643   -7973.6896   -2258.3202    28208.484    1.3904451 
    1730    326.15411   -8010.0728   -7973.6898    -2317.316    28208.484     1.394947 
    1740     323.8725   -8009.8181   -7973.6896   -2287.8062    28208.484    1.4007384 
    1750    320.41839   -8009.4325   -7973.6894   -2200.4994    28208.484    1.4075406 
    1760     319.2517   -8009.3028   -7973.6898   -2148.7833    28208.484     1.414045 
    1770    317.70647   -8009.1306     -7973.69    -2060.265    28208.484    1.4199919 
    1780    313.91842   -8008.7076   -7973.6895   -1900.1987    28208.484    1.4259827 
    1790    313.00692   -8008.6058   -7973.6894   -1752.6987    28208.484    1.4322179 
    1800     316.3606   -8008.9805     -7973.69   -1656.4741    28208.484    1.4376798 
    1810    317.06323    -8009.059   -7973.6901   -1611.9912    28208.484    1.4414287 
    1820    314.75826    -8008.801   -7973.6892    -1594.078    28208.484    1.4434919 
    1830    319.39788   -8009.3191   -7973.6898   -1580.2478    28208.484    1.4448335 
    1840    326.94741   -8010.1618   -7973.6903   -1586.0007    28208.484    1.4478206 
    1850     328.2751   -8010.3099   -7973.6903   -1510.9657    28208.484    1.4534245 
    1860    325.54844   -8010.0044    -7973.689   -1434.8489    28208.484    1.4597334 
    1870    330.22766   -8010.5276   -7973.6902   -1485.8246    28208.484    1.4649668 
    1880    331.47708   -8010.6665   -7973.6897   -1548.2944    28208.484    1.4702024 
    1890    330.21474   -8010.5256   -7973.6896   -1516.0861    28208.484    1.4764703 
    1900    331.58833   -8010.6782    -7973.689   -1442.8287    28208.484    1.4834549 
    1910    337.92691   -8011.3872    -7973.691   -1475.0881    28208.484    1.4904186 
    1920     332.3277   -8010.7614   -7973.6897   -1417.3686    28208.484    1.4973123 
    1930    326.40875   -8010.1005   -7973.6891    -1294.946    28208.484    1.5028962 
    1940    327.61985   -8010.2367   -7973.6902   -1344.4187    28208.484    1.5071937 
    1950    326.33555   -8010.0933   -7973.6901   -1454.2005    28208.484    1.5117741 
    1960    320.98412   -8009.4961   -7973.6898    -1539.947    28208.484    1.5179832 
    1970    316.38994    -8008.983   -7973.6892   -1494.5471    28208.484    1.5266599 
    1980    318.66568   -8009.2379   -7973.6903    -1430.619    28208.484     1.537506 
    1990    319.09324   -8009.2848   -7973.6895   -1383.3475    28208.484     1.548395 
    2000    324.20331   -8009.8559   -7973.6905   -1553.3118    28208.484     1.556546 
Loop time of 982.648 on 16 procs for 2000 steps with 864 atoms

Performance: 0.176 ns/day, 136.479 hours/ns, 2.035 timesteps/s
97.7% CPU use with 16 MPI tasks x 1 OpenMP threads

MPI task timing breakdown:
Section |  min time  |  avg time  |  max time  |%varavg| %total
---------------------------------------------------------------
Pair    | 696.83     | 854.6      | 966.77     | 266.8 | 86.97
Bond    | 0.00012469 | 0.00050335 | 0.0013609  |   0.0 |  0.00
Neigh   | 0.019142   | 0.034623   | 0.1849     |  21.4 |  0.00
Comm    | 15.443     | 123.81     | 284.34     | 687.0 | 12.60
Output  | 0.2935     | 4.1251     | 12.093     | 190.9 |  0.42
Modify  | 0.0081277  | 0.0089365  | 0.012244   |   1.1 |  0.00
Other   |            | 0.07184    |            |       |  0.01

Nlocal:        54.0000 ave          63 max          48 min
Histogram: 5 0 1 2 2 1 1 2 0 2
Nghost:        409.688 ave         449 max         386 min
Histogram: 3 3 1 3 2 1 1 0 0 2
Neighs:         0.00000 ave           0 max           0 min
Histogram: 16 0 0 0 0 0 0 0 0 0
FullNghs:      1604.62 ave        2106 max        1301 min
Histogram: 5 0 2 2 2 0 2 1 1 1

Total # of neighbors = 25674
Ave neighs/atom = 29.715278
Ave special neighs/atom = 0.0000000
Neighbor list builds = 199
Dangerous builds = 198
unfix   1

velocity    all create 525.0 1312343 dist gaussian
fix     2 all npt temp 525.0 525.0 $(100.0*dt) aniso 0.0 1.01325 $(1000.0*dt)
fix     2 all npt temp 525.0 525.0 0.10000000000000000555 aniso 0.0 1.01325 $(1000.0*dt)
fix     2 all npt temp 525.0 525.0 0.10000000000000000555 aniso 0.0 1.01325 1
run     3000
Per MPI rank memory allocation (min/avg/max) = 8.893 | 8.897 | 8.900 Mbytes
Step Temp PotEng TotEng Press Volume c_msd[4] 
    2000          525   -8009.8559   -7951.2913   -705.16447    28208.484     1.556546 
    2010    503.03193   -8007.3989    -7951.285    -623.0353    28207.186    1.5567544 
    2020    469.92003   -8003.6546   -7951.2343   -492.63098    28203.542    1.5569683 
    2030    449.23082   -8001.1944   -7951.0821   -243.96899    28198.083     1.556884 
    2040    438.09801   -7999.6596   -7950.7891     71.67799    28191.725    1.5582472 
    2050    432.65826   -7998.6032   -7950.3395    257.29616    28185.584    1.5631874 
    2060    432.81799   -7998.0292   -7949.7477    351.33886    28180.394    1.5722042 
    2070    431.27209   -7997.1819   -7949.0728    296.13186    28176.493    1.5836359 
    2080     436.3546   -7997.0773   -7948.4013    3.2815445    28173.646    1.5948564 
    2090    436.81173   -7996.5174   -7947.7903   -299.68348     28170.82    1.6053595 
    2100    427.75574   -7994.9661   -7947.2493   -429.75095    28166.904    1.6161456 
    2110    422.89265   -7993.9091   -7946.7348   -347.37517    28161.425    1.6267301 
    2120    422.91661   -7993.3746   -7946.1977   -179.09843    28154.657    1.6363308 
    2130     427.1798   -7993.2676    -7945.615   -142.75767    28147.154    1.6449999 
    2140    431.84782   -7993.1529   -7944.9796    -225.9288    28139.061    1.6526114 
    2150    442.92332   -7993.7068   -7944.2981   -328.23074    28130.098    1.6582906 
    2160    456.84228   -7994.5428   -7943.5814   -385.34665    28119.885    1.6620152 
    2170    468.26361   -7995.0929   -7942.8573   -439.16927    28108.185    1.6651262 
    2180    476.23649   -7995.2684   -7942.1435   -495.82857    28094.786    1.6695407 
    2190    474.74064   -7994.4056   -7941.4475   -403.23625    28079.539    1.6769768 
    2200    467.37967   -7992.8982   -7940.7613   -274.39756     28062.76    1.6871593 
    2210    464.92555   -7991.9314   -7940.0683   -240.20195    28044.889    1.6974416 
    2220     467.1345   -7991.4646    -7939.355   -257.71241    28026.061    1.7050301 
    2230     471.6633   -7991.2402   -7938.6255   -198.46295    28006.278    1.7090018 
    2240    477.92593   -7991.2007   -7937.8873    1.2238686     27985.78    1.7116286 
    2250    481.55629   -7990.8687   -7937.1504    298.93978    27965.296     1.716673 
    2260    485.47661   -7990.5772   -7936.4215    596.87562    27945.915    1.7257854 
    2270    482.13111   -7989.4873   -7935.7049    801.15224    27928.717    1.7389661 
    2280    477.94857   -7988.3145   -7934.9986     909.2856     27914.46    1.7556033 
    2290    481.40139   -7987.9907   -7934.2897    1018.0494    27903.594    1.7739526 
    2300    495.15202   -7988.8085   -7933.5735    1084.7963    27896.504    1.7906469 
    2310    502.26744   -7988.8918   -7932.8631    1080.7828    27893.426    1.8032852 
    2320    502.60001   -7988.2458     -7932.18     1039.974     27894.37    1.8111011 
    2330    511.26735   -7988.5544   -7931.5217    835.60437    27899.139    1.8146223 
    2340    515.33821    -7988.373   -7930.8863    525.19405    27907.023    1.8158081 
    2350     513.1573   -7987.5265    -7930.283    267.44936    27916.923    1.8159987 
    2360    514.40501   -7987.0863   -7929.7036    172.28382    27927.917    1.8165592 
    2370     517.6371   -7986.8845   -7929.1413    190.48563     27939.64    1.8194921 
    2380    517.39764   -7986.3155    -7928.599    291.19663    27952.164    1.8256654 
    2390    507.56607   -7984.6955   -7928.0758    330.79857    27965.822    1.8337198 
    2400    505.08153   -7983.8999   -7927.5573    295.64176    27980.758    1.8400497 
    2410    515.11008   -7984.4875   -7927.0262    328.91496    27996.912    1.8431805 
    2420    524.24912   -7984.9741   -7926.4933    387.65406    28014.394    1.8451377 
    2430    527.80023   -7984.8585   -7925.9816    409.66727    28033.427    1.8479367 
    2440    528.83972   -7984.4938    -7925.501    408.30464    28054.127    1.8518239 
    2450    529.25705   -7984.0906   -7925.0512    382.27512    28076.495    1.8563503 
    2460    531.33342   -7983.8998   -7924.6287    281.08217    28100.415    1.8620531 
    2470    536.34723   -7984.0657   -7924.2354     110.5462    28125.529    1.8696467 
    2480    537.23179   -7983.8024   -7923.8734   -43.697745    28151.241    1.8784204 
    2490    537.50182   -7983.5046   -7923.5455   -170.33749    28176.986    1.8866766 
    2500     543.5764   -7983.8845   -7923.2477    -416.3197     28202.23    1.8939002 
    2510    547.35784   -7984.0472   -7922.9886   -490.62468    28226.129    1.9013981 
    2520    543.59693   -7983.4203   -7922.7812   -347.08561    28248.386    1.9111482 
    2530    541.61963     -7983.04   -7922.6215   -271.18458     28269.43     1.924475 
    2540    543.19367   -7983.0959   -7922.5019    -366.8736    28289.505    1.9411928 
    2550    540.31003   -7982.6923   -7922.4199   -485.99989    28308.299     1.959081 
    2560     534.1815   -7981.9586   -7922.3698   -573.46734    28325.358    1.9742923 
    2570    533.76927   -7981.8847    -7922.342   -625.46034    28340.334    1.9837506 
    2580    533.73474   -7981.8746   -7922.3357   -627.64312    28353.002    1.9882462 
    2590    524.29367   -7980.8357   -7922.3499   -449.04223    28363.411    1.9916237 
    2600    516.21129   -7979.9549   -7922.3707   -344.02477    28372.136    1.9969542 
    2610    511.66732   -7979.4533    -7922.376   -453.82811    28379.537    2.0052196 
    2620    516.09856   -7979.9313   -7922.3597   -736.24723    28385.185    2.0150618 
    2630    521.39208    -7980.488    -7922.326   -925.75977    28388.068    2.0249558 
    2640    524.80328   -7980.8293   -7922.2867   -999.68909    28387.443    2.0341393 
    2650      522.103   -7980.4866   -7922.2452   -1142.4145    28382.926    2.0419095 
    2660    517.35225   -7979.9079   -7922.1965   -1361.3758    28373.947    2.0467195 
    2670      516.008   -7979.6973   -7922.1359   -1658.4899    28359.627    2.0481113 
    2680    514.82065   -7979.4892   -7922.0602   -1841.4894    28338.875    2.0494245 
    2690    516.99476    -7979.639   -7921.9675   -1772.0462    28311.018    2.0537653 
    2700    515.82888   -7979.3895    -7921.848   -1438.4023     28276.36    2.0619669 
    2710     520.1692   -7979.7269   -7921.7012   -1153.1465    28236.093    2.0724325 
    2720    523.05553    -7979.881   -7921.5334   -938.36651     28191.37    2.0824573 
    2730    525.67089   -7979.9961   -7921.3567   -815.67168    28143.068    2.0903727 
    2740    529.16063   -7980.2065   -7921.1779   -813.52831    28091.728     2.097021 
    2750    533.52494    -7980.518   -7921.0025   -673.93809    28037.535    2.1041292 
    2760    535.18265   -7980.5296   -7920.8292   -327.98805     27981.14    2.1126367 
    2770     543.0034   -7981.2402   -7920.6674    74.567342    27923.883    2.1228418 
    2780    546.31964   -7981.4682   -7920.5254    607.45097    27867.397    2.1353236 
    2790    548.42065   -7981.5932   -7920.4161    1056.8206     27813.63    2.1501419 
    2800    552.42079   -7981.9775   -7920.3542      1225.97    27764.209    2.1663795 
    2810    550.04332   -7981.7195   -7920.3613     1194.943    27719.762    2.1833346 
    2820    530.54821   -7979.6069   -7920.4234    1201.2073    27680.215    2.1999378 
    2830    527.38435   -7979.3428   -7920.5123    1058.0201    27645.457    2.2131894 
    2840    536.41887   -7980.4602   -7920.6219    869.64821     27614.95    2.2219116 
    2850    532.67201    -7980.179   -7920.7586    816.78906    27588.011    2.2279707 
    2860     531.2013   -7980.1764     -7920.92    838.98482    27564.375    2.2333158 
    2870    540.86108    -7981.443   -7921.1092    888.72258    27544.062    2.2396856 
    2880    545.49084   -7982.1913    -7921.341    1073.5349    27527.235    2.2482887 
    2890    545.40071   -7982.4647   -7921.6244    1357.7443    27514.508    2.2588283 
    2900    539.95165   -7982.1884    -7921.956    1604.0811    27506.817    2.2704325 
    2910    531.29901   -7981.5881   -7922.3209    1735.9003    27504.974    2.2817633 
    2920    524.25714   -7981.1762   -7922.6946    1735.8036    27509.366    2.2914758 
    2930    529.73436   -7982.1645   -7923.0718    1636.6648    27519.953    2.2996779 
    2940     537.4713   -7983.4161   -7923.4604    1367.5334    27536.275    2.3083172 
    2950    539.83693   -7984.0878   -7923.8682    1098.0511    27557.396    2.3183537 
    2960    539.57206   -7984.4782   -7924.2881    683.76968    27582.239     2.328848 
    2970     540.8867   -7985.0517   -7924.7149    291.87256    27609.327     2.338933 
    2980    538.52858   -7985.2163   -7925.1427    120.76816     27637.28    2.3489064 
    2990    541.67943   -7986.0022   -7925.5771    14.023882    27665.408    2.3591441 
    3000    535.80374    -7985.785   -7926.0152   -16.155982    27693.332    2.3697266 
    3010    520.61696   -7984.5089   -7926.4333     10.99574    27720.905    2.3796257 
    3020    510.62701    -7983.761   -7926.7998   -11.986964    27748.185    2.3881995 
    3030    510.86359   -7984.0931   -7927.1055   -163.90877    27775.043    2.3959395 
    3040    509.07552   -7984.1415   -7927.3533   -308.26788     27800.99    2.4038845 
    3050    505.53943   -7983.9436   -7927.5499   -459.81243    27825.478    2.4124189 
    3060    497.29944   -7983.1684   -7927.6939   -387.89632    27848.056    2.4215469 
    3070    489.82376   -7982.4182   -7927.7776   -270.98716    27868.936    2.4306579 
    3080    489.53351   -7982.4015   -7927.7933   -99.561335      27888.6    2.4391019 
    3090    493.82757   -7982.8246   -7927.7374   -70.050396    27907.605    2.4471451 
    3100    501.62048   -7983.5725   -7927.6159   -282.41603    27926.016     2.455265 
    3110    503.82773   -7983.6396   -7927.4369   -461.29419    27943.178    2.4634445 
    3120     507.4245    -7983.815   -7927.2111    -607.1264    27958.411    2.4713318 
    3130    509.19532   -7983.7449   -7926.9434    -625.7082    27971.226      2.47889 
    3140      509.959    -7983.529   -7926.6423    -506.4596    27981.607    2.4848659 
    3150    512.54647   -7983.4873    -7926.312   -394.90351    27989.966    2.4872674 
    3160    524.11235   -7984.4256   -7925.9601   -307.66231    27996.747    2.4853019 
    3170    538.71638    -7985.704   -7925.6093   -240.26709    28002.289    2.4806432 
    3180    539.74743    -7985.502   -7925.2923   0.39308479    28006.938    2.4762743 
    3190    530.92415    -7984.245   -7925.0196    381.81462    28011.596     2.473566 
    3200    530.91972   -7984.0004   -7924.7755    553.02309    28017.547    2.4711918 
    3210    536.32568   -7984.3807   -7924.5527    460.91689    28025.403    2.4684117 
    3220    534.44925   -7983.9774   -7924.3588    323.75266    28034.871    2.4664088 
    3230    530.21393    -7983.341   -7924.1948    305.13633    28045.484    2.4659715 
    3240    529.93903    -7983.167   -7924.0515    326.32387    28057.127    2.4675093 
    3250    533.06682   -7983.3891   -7923.9247     317.4955     28069.84    2.4716279 
    3260    537.10304   -7983.7323   -7923.8176    306.33142    28083.591    2.4782909 
    3270    536.42129   -7983.5759   -7923.7373    315.05266    28098.344    2.4866283 
    3280     530.2085   -7982.8277   -7923.6822    262.65822    28114.092    2.4946596 
    3290    530.27444   -7982.7954   -7923.6425    216.77816    28130.652    2.5001551 
    3300    536.78866   -7983.4958   -7923.6162    235.24575     28147.87    2.5028689 
    3310    540.56092   -7983.9139   -7923.6135    184.71047    28165.749    2.5044056 
    3320    537.13366   -7983.5604   -7923.6423     176.6329    28184.139     2.506399 
    3330    531.05067   -7982.9356   -7923.6961    103.27893    28202.943    2.5096721 
    3340    528.31921   -7982.7018    -7923.767   -57.365159    28221.862    2.5142324 
    3350    523.18404   -7982.2123   -7923.8503   -227.96456    28240.321    2.5196101 
    3360    516.79148    -7981.584   -7923.9352   -367.95799    28257.675    2.5253978 
    3370    511.08452   -7981.0172    -7924.005   -378.82517    28273.439    2.5315379 
    3380    515.05267   -7981.5072   -7924.0523   -460.88732    28287.496    2.5383416 
    3390    511.97614   -7981.1867    -7924.075   -452.39985    28299.632    2.5473323 
    3400    509.06472   -7980.8583   -7924.0714   -263.55795    28309.937    2.5600197 
    3410    518.17097   -7981.8367    -7924.034   -193.77863    28319.024    2.5753579 
    3420    524.22679   -7982.4479   -7923.9696   -154.99201    28327.237    2.5910068 
    3430    531.98213   -7983.2363   -7923.8929   -79.174572    28334.756     2.605217 
    3440    538.19779   -7983.8535   -7923.8167   -36.328838    28341.853    2.6180131 
    3450    539.50352   -7983.9418   -7923.7594   -107.96635     28348.66    2.6296154 
    3460    532.68939   -7983.1478   -7923.7255   -140.67221     28354.96    2.6395059 
    3470    527.51742   -7982.5574    -7923.712   -117.03108    28360.632    2.6477755 
    3480    511.94153   -7980.8079   -7923.7001   -25.972714    28365.793    2.6559828 
    3490    505.67899   -7980.0713   -7923.6621   -79.622321     28370.72    2.6640046 
    3500    522.01584   -7981.8129   -7923.5812   -297.62896    28375.209    2.6716636 
    3510    541.54963   -7983.8901   -7923.4795   -522.82113    28378.489    2.6810083 
    3520    546.68649   -7984.3823   -7923.3986   -718.62734    28379.726     2.693014 
    3530    541.98144   -7983.8189     -7923.36   -864.64184    28378.223    2.7058608 
    3540    535.41015   -7983.0865   -7923.3606   -874.22957    28373.509    2.7180305 
    3550    527.01906   -7982.1758   -7923.3861   -839.86085    28365.559    2.7304834 
    3560    522.32877   -7981.6898   -7923.4233   -799.76219    28354.545    2.7434801 
    3570    514.22324   -7980.8174    -7923.455   -722.50872    28340.679    2.7555373 
    3580    510.68984   -7980.4359   -7923.4676   -633.44012    28324.296    2.7650261 
    3590    508.89004   -7980.2155   -7923.4481   -528.74709    28305.784    2.7724181 
    3600    510.86942   -7980.3789   -7923.3906   -386.02865    28285.593    2.7794906 
    3610    518.94286   -7981.1868   -7923.2979   -161.59862    28264.309     2.787525 
    3620    523.41117   -7981.5657   -7923.1784    154.40504    28242.805    2.7969128 
    3630    524.61683   -7981.5633   -7923.0415    517.92464    28222.261    2.8067687 
    3640    522.02644   -7981.1196   -7922.8868     980.4976    28204.055    2.8164303 
    3650    527.25036   -7981.5327   -7922.7171     1332.147    28189.822    2.8254201 
    3660    531.09136   -7981.7844   -7922.5404    1518.8701      28180.8    2.8325457 
    3670    535.16677   -7982.0692   -7922.3706    1557.6288    28177.614    2.8372721 
    3680     540.3578    -7982.498   -7922.2203    1423.1429    28180.303    2.8410496 
    3690    538.89106   -7982.2116   -7922.0975     1366.129    28188.363     2.845688 
    3700    546.54428   -7982.9765   -7922.0086    1224.1561    28201.438    2.8516895 
    3710      547.248    -7983.009   -7921.9627    1047.9317    28218.941    2.8598696 
    3720    529.76614   -7981.0543   -7921.9581    963.40668    28240.221    2.8703908 
    3730    519.46736   -7979.9163   -7921.9689    649.14509     28264.77    2.8822264 
    3740    515.80436   -7979.5027    -7921.964    250.32017    28291.406    2.8953019 
    3750    518.10628   -7979.7317   -7921.9362   -45.816763    28318.638    2.9092378 
    3760    514.60863   -7979.2887   -7921.8833    -157.2398    28345.355     2.922637 
    3770    514.30515   -7979.1751   -7921.8036   -184.45843     28371.11    2.9336181 
    3780    514.87556   -7979.1254   -7921.6903   -205.41384    28395.762    2.9415048 
    3790    513.69957   -7978.8433   -7921.5394   -84.365177    28419.308    2.9471788 
    3800     521.1496   -7979.4863   -7921.3512   -89.608047    28442.126    2.9530629 
    3810    521.08532   -7979.2546   -7921.1268   -208.30654    28464.198    2.9624772 
    3820    525.44509   -7979.4897   -7920.8755   -346.61999    28485.109     2.974696 
    3830    533.92185   -7980.1607   -7920.6009   -509.42392    28504.337    2.9864743 
    3840    533.52953   -7979.8301   -7920.3141   -650.19114     28521.29    2.9960244 
    3850    530.03341   -7979.1527   -7920.0267   -750.07373    28535.475    3.0026597 
    3860    530.39302   -7978.9018   -7919.7356   -879.59754    28546.504    3.0052616 
    3870    535.64262   -7979.1958   -7919.4441   -999.49972    28553.935    3.0038679 
    3880    531.76403   -7978.4777   -7919.1586   -989.95176    28557.419    3.0010829 
    3890    531.01735   -7978.1187    -7918.883   -926.36393    28557.044    3.0003355 
    3900    532.77677   -7978.0468   -7918.6148   -968.99086    28553.062    3.0031463 
    3910    529.81164   -7977.4592   -7918.3579   -987.95899    28545.439    3.0072019 
    3920    528.92428   -7977.1116   -7918.1093   -967.53949    28534.167    3.0094239 
    3930    538.17398   -7977.8996   -7917.8655   -836.67062    28519.437    3.0082313 
    3940    561.16648   -7980.2434   -7917.6445   -665.41983    28501.785    3.0035002 
    3950    576.34517   -7981.7867   -7917.4945    -412.6381    28481.959    2.9972945 
    3960    572.31684   -7981.3015   -7917.4587    -180.4541    28460.922    2.9915611 
    3970    566.51907   -7980.7372   -7917.5411    25.203523    28439.605     2.985622 
    3980    560.74858   -7980.2785   -7917.7261    177.46845     28418.79    2.9775513 
    3990    552.02306   -7979.5835   -7918.0045    341.49093    28399.084    2.9666715 
    4000    544.77191   -7979.1302   -7918.3601     554.0159    28381.123    2.9543017 
    4010      545.394   -7979.6232   -7918.7837    649.65418    28365.617    2.9419757 
    4020    539.09845    -7979.405   -7919.2677    658.61851    28352.885    2.9305629 
    4030     528.3971   -7978.7251   -7919.7816    616.71838    28342.928    2.9205467 
    4040    524.90614   -7978.8448   -7920.2907    397.22065    28335.459    2.9132877 
    4050    523.28279   -7979.1388   -7920.7658    315.01338    28329.724    2.9087876 
    4060    520.38957   -7979.2339   -7921.1836    240.02235    28325.303    2.9044695 
    4070    521.29073   -7979.6814   -7921.5306    128.32248    28321.897    2.8979729 
    4080    526.95898   -7980.6008   -7921.8178    47.727155    28319.066    2.8891073 
    4090    528.36833   -7980.9965   -7922.0562    97.145788    28316.535     2.879324 
    4100    533.01205   -7981.7188   -7922.2605    128.68936    28314.423    2.8696804 
    4110    537.32235   -7982.3826   -7922.4435    166.49727    28312.854    2.8615197 
    4120    540.02925    -7982.862   -7922.6209    172.57046    28311.939    2.8559756 
    4130     533.8464    -7982.348   -7922.7967    175.61784    28311.714    2.8531939 
    4140    520.65592   -7981.0373   -7922.9574    239.03832    28312.207     2.851851 
    4150     518.8437   -7980.9676   -7923.0898    269.74275     28313.59     2.849913 
    4160     518.2949   -7981.0115   -7923.1949    514.99348    28316.065    2.8466952 
    4170    514.00095   -7980.6123   -7923.2747    776.97982     28320.47     2.842358 
    4180    516.29128   -7980.9232   -7923.3302       713.17    28327.645    2.8364144 
    4190    523.09908   -7981.7189   -7923.3665    407.55615    28337.352    2.8292649 
    4200    528.08819   -7982.3027   -7923.3936    116.93229    28348.468    2.8221355 
    4210    530.55215   -7982.6099    -7923.426    17.172784     28359.92    2.8162969 
    4220     527.7416   -7982.3404     -7923.47    75.461863    28371.322     2.812724 
    4230    520.10719    -7981.538   -7923.5193    227.82508    28382.883    2.8119126 
    4240    520.39514   -7981.6118   -7923.5609    309.95542    28395.136    2.8129524 
    4250    524.45188   -7982.0959   -7923.5925    205.18382     28408.34    2.8136578 
    4260    518.31687    -7981.434   -7923.6149     19.40047    28422.132    2.8126187 
    4270     511.0488   -7980.6269   -7923.6187   -250.42708    28435.779    2.8106545 
    4280    510.97905   -7980.5923   -7923.5918   -512.65897    28448.275    2.8093595 
    4290    510.18366   -7980.4432   -7923.5315   -639.16952    28458.669    2.8088715 
    4300    508.28534    -7980.137    -7923.437   -677.07084    28466.503    2.8088761 
    4310     513.6248   -7980.6031   -7923.3075   -781.86241    28471.603    2.8100862 
    4320     516.5025   -7980.7627   -7923.1461   -800.14731    28473.663     2.813105 
    4330    516.76985   -7980.6033   -7922.9569   -768.77499    28472.624    2.8169955 
    4340    526.33999   -7981.4496   -7922.7356    -833.1994    28468.611    2.8203857 
    4350    535.03258   -7982.1763   -7922.4926    -885.4359    28461.452    2.8230419 
    4360    529.36552   -7981.2993   -7922.2478    -691.3784     28451.09    2.8252089 
    4370    521.01186   -7980.1188   -7921.9991   -518.36126    28438.199    2.8260618 
    4380     518.2355   -7979.5389   -7921.7289   -422.52014    28423.482    2.8251359 
    4390     521.3891   -7979.5879   -7921.4261   -306.23679    28407.366    2.8230639 
    4400    517.21784   -7978.7844    -7921.088  -0.21098422    28390.393    2.8213999 
    4410    521.33186   -7978.8744    -7920.719    288.35219    28373.659    2.8224278 
    4420    527.57303    -7979.175   -7920.3235    500.53206    28358.247    2.8281954 
    4430    535.12904   -7979.6158   -7919.9214    599.24162    28344.939     2.838452 
    4440     544.3023   -7980.2563   -7919.5386    619.63256    28334.078    2.8521003 
    4450     542.6374   -7979.7289   -7919.1969    660.54758    28325.748    2.8683234 
    4460    545.70427   -7979.7824   -7918.9082    475.97589    28319.964    2.8855957 
    4470    540.48417   -7978.9624   -7918.6705    263.72291    28316.079    2.9022445 
    4480    537.37047   -7978.4238   -7918.4793     81.72251    28313.276    2.9154555 
    4490    548.67667   -7979.5353   -7918.3296   -37.411431    28310.846    2.9231476 
    4500    551.98588    -7979.808   -7918.2331    22.066605    28308.386    2.9269866 
    4510    555.91553     -7980.22   -7918.2068    81.375676     28306.05    2.9294756 
    4520     555.4771   -7980.2185   -7918.2542     110.1513    28304.047    2.9328246 
    4530    548.46835   -7979.5515    -7918.369    128.20228    28302.489     2.938732 
    4540    543.83663   -7979.2013   -7918.5355     77.40568    28301.427    2.9467818 
    4550    545.48116    -7979.592   -7918.7427    -48.20136    28300.653    2.9542919 
    4560    552.41203    -7980.615   -7918.9926   -168.98789    28299.705    2.9585113 
    4570    563.37718   -7982.1487   -7919.3031   -152.33434    28298.193    2.9600835 
    4580    563.59321   -7982.5547    -7919.685   -119.82215    28296.133    2.9624399 
    4590    551.89947   -7981.6772    -7920.112   -174.95487    28293.612    2.9668604 
    4600    550.58657   -7981.9633   -7920.5446   -331.48814    28290.408    2.9721413 
    4610    551.37027   -7982.4666   -7920.9604   -374.58627    28286.016    2.9784603 
    4620    542.29455   -7981.8296   -7921.3358   -221.52567    28280.319     2.986864 
    4630    535.85764   -7981.4235   -7921.6478   -141.03429    28273.798    2.9961727 
    4640    543.98077   -7982.5862   -7921.9044   -175.23641    28266.768    3.0035969 
    4650    554.21895   -7983.9648   -7922.1408   -217.02623    28259.144    3.0087366 
    4660    546.22933   -7983.3106   -7922.3779   -193.37555    28250.777    3.0137732 
    4670    530.87463   -7981.8227   -7922.6029   -177.97997    28241.737    3.0201481 
    4680    524.46184    -7981.307   -7922.8025    -310.0823    28232.036    3.0276649 
    4690    524.73464   -7981.5158   -7922.9808   -573.91958     28221.17    3.0353456 
    4700    523.92522   -7981.5919   -7923.1473   -702.79342    28208.235    3.0417783 
    4710    524.05552   -7981.7605   -7923.3013   -739.39457    28192.731    3.0462967 
    4720    531.26776   -7982.7148   -7923.4511   -707.70526    28174.542    3.0496831 
    4730    529.97142   -7982.7212   -7923.6021   -520.94957    28153.823    3.0534515 
    4740    528.22803   -7982.6794   -7923.7548   -319.13015    28131.255    3.0568252 
    4750    529.53193   -7982.9825   -7923.9125     -103.547    28107.627    3.0592982 
    4760    530.39061   -7983.2413   -7924.0754    90.168833    28083.733     3.061851 
    4770    535.12811   -7983.9463   -7924.2519    203.61714    28060.274    3.0660144 
    4780    534.95179    -7984.118   -7924.4434    457.04441    28037.763    3.0726997 
    4790    539.24526   -7984.8112   -7924.6576     515.7684    28017.002    3.0795578 
    4800    536.99005   -7984.7992   -7924.8971    500.82704    27998.285    3.0840661 
    4810    544.14265   -7985.8717   -7925.1718    445.33559    27981.532    3.0855326 
    4820    552.36876   -7987.1176   -7925.5001    427.59126    27966.538    3.0853549 
    4830     545.7671   -7986.7653   -7925.8842    402.58923    27953.212    3.0851842 
    4840    536.85217   -7986.1918   -7926.3051    189.15981    27941.381    3.0856191 
    4850    525.36459   -7985.3318   -7926.7266    13.008996    27930.326    3.0870087 
    4860     523.9251   -7985.5707   -7927.1261   -80.471228    27919.384    3.0892468 
    4870     522.9121    -7985.827   -7927.4953   -90.383462    27908.213    3.0924071 
    4880    513.00723   -7985.0517    -7927.825    88.837943    27896.819    3.0960414 
    4890    503.01841   -7984.2082   -7928.0958    250.72113     27885.77    3.0990211 
    4900    502.18095   -7984.3189   -7928.2999    303.70997    27875.629    3.1011576 
    4910    504.38556   -7984.7094   -7928.4444    399.48597    27866.666    3.1050592 
    4920    500.38366   -7984.3512   -7928.5327    506.79236    27859.208    3.1131629 
    4930    504.02243   -7984.7916   -7928.5671    571.99398    27853.637    3.1241984 
    4940     512.8572   -7985.7685   -7928.5586     609.8104    27850.187    3.1353815 
    4950    506.04139   -7984.9685   -7928.5188    792.56317    27849.064    3.1442719 
    4960     497.5811   -7983.9491   -7928.4432    973.43537    27850.887    3.1492674 
    4970    501.71633   -7984.2856   -7928.3184    1056.8145    27856.295    3.1511033 
    4980    511.57045   -7985.2098   -7928.1434    1065.7197    27865.605    3.1523133 
    4990     524.9532    -7986.494   -7927.9347    1081.7144    27878.898    3.1559231 
    5000    537.30131   -7987.6595   -7927.7227    1014.2461     27896.19    3.1637844 
Loop time of 1531.83 on 16 procs for 3000 steps with 864 atoms

Performance: 0.169 ns/day, 141.836 hours/ns, 1.958 timesteps/s
97.7% CPU use with 16 MPI tasks x 1 OpenMP threads

MPI task timing breakdown:
Section |  min time  |  avg time  |  max time  |%varavg| %total
---------------------------------------------------------------
Pair    | 1232.1     | 1403.7     | 1492.8     | 222.3 | 91.63
Bond    | 0.00017166 | 0.00075369 | 0.0019214  |   0.0 |  0.00
Neigh   | 0.028884   | 0.032597   | 0.036154   |   1.2 |  0.00
Comm    | 20.093     | 102.24     | 293.32     | 777.3 |  6.67
Output  | 0.42762    | 0.43587    | 0.55796    |   4.8 |  0.03
Modify  | 4.5274     | 25.428     | 62.74      | 385.4 |  1.66
Other   |            | 0.01154    |            |       |  0.00

Nlocal:        54.0000 ave          59 max          47 min
Histogram: 1 0 2 1 4 1 0 2 1 4
Nghost:        411.438 ave         434 max         395 min
Histogram: 1 1 5 2 2 1 1 1 1 1
Neighs:         0.00000 ave           0 max           0 min
Histogram: 16 0 0 0 0 0 0 0 0 0
FullNghs:      1623.25 ave        1884 max        1386 min
Histogram: 2 3 1 1 1 1 1 3 2 1

Total # of neighbors = 25972
Ave neighs/atom = 30.060185
Ave special neighs/atom = 0.0000000
Neighbor list builds = 300
Dangerous builds = 300
unfix   2

fix     3 all npt temp 525.0 525.0 $(100.0*dt) aniso 1.01325 1.01325 $(1000.0*dt)
fix     3 all npt temp 525.0 525.0 0.10000000000000000555 aniso 1.01325 1.01325 $(1000.0*dt)
fix     3 all npt temp 525.0 525.0 0.10000000000000000555 aniso 1.01325 1.01325 1
run     20000
Per MPI rank memory allocation (min/avg/max) = 8.897 | 8.898 | 8.900 Mbytes
Step Temp PotEng TotEng Press Volume c_msd[4] 
    5000    537.30131   -7987.6595   -7927.7227    1014.2461     27896.19    3.1637844 
    5010    535.43545   -7987.4651   -7927.7365    1045.7212    27898.094    3.1739412 
    5020     536.9829   -7987.6815   -7927.7803    996.26715    27903.869    3.1829143 
    5030    539.48372   -7988.0346   -7927.8544    927.72935     27913.37    3.1884325 
    5040    536.60579   -7987.8241   -7927.9649    814.81641     27926.33    3.1900648 
    5050    525.97252    -7986.776    -7928.103    717.71482     27942.38    3.1891504 
    5060    517.67946   -7985.9957   -7928.2478    555.42232    27961.124    3.1893867 
    5070    512.95169   -7985.6042   -7928.3837    392.60222    27981.985    3.1942495 
    5080    492.01169   -7983.3762   -7928.4916    431.90458    28004.442    3.2038181 
    5090    476.39478   -7981.6778   -7928.5352    440.75827    28028.582    3.2141354 
    5100    487.22661   -7982.8366   -7928.4857    176.69983    28054.359    3.2219163 
    5110    498.81166    -7983.981   -7928.3378   -11.843507    28080.917    3.2279228 
    5120    501.85228   -7984.0861   -7928.1037   -4.5032911    28107.583     3.233801 
    5130    511.57796   -7984.8528   -7927.7855   -58.074341    28134.284    3.2396409 
    5140    520.62342   -7985.4597   -7927.3834   -33.311621    28160.862    3.2454178 
    5150    523.40317    -7985.307   -7926.9206    81.453164    28187.419    3.2512542 
    5160    521.50511   -7984.5874   -7926.4128    96.428652    28214.326    3.2571068 
    5170    520.15201   -7983.9002   -7925.8765    46.851571    28241.678     3.263508 
    5180    527.64452   -7984.1857   -7925.3262   -169.74554    28269.243    3.2712924 
    5190    531.65638   -7984.1017   -7924.7947   -272.77536    28296.296     3.279812 
    5200    534.15238   -7983.9059   -7924.3204   -299.87856    28322.415    3.2867433 
    5210    542.66455   -7984.4561   -7923.9211   -390.26848    28347.449    3.2911865 
    5220     553.0046    -7985.301   -7923.6125   -546.78079    28371.025    3.2955961 
    5230    547.36812   -7984.4671   -7923.4074   -520.43748    28392.626    3.3019274 
    5240    534.82643   -7982.9454   -7923.2847   -418.66536    28412.306    3.3074562 
    5250    543.42605   -7983.8324   -7923.2124   -507.92227    28430.356    3.3102332 
    5260    550.10147   -7984.5493   -7923.1847   -634.61979    28446.508    3.3122715 
    5270    545.88779   -7984.1038   -7923.2092   -738.03965    28460.269    3.3138416 
    5280    532.18212   -7982.6334   -7923.2677   -792.99028    28471.227    3.3155585 
    5290    521.07705   -7981.4608   -7923.3339   -868.62684    28479.137    3.3185185 
    5300    521.50355   -7981.5633   -7923.3888   -901.90077    28483.709    3.3220831 
    5310     532.0275   -7982.7859   -7923.4375   -825.12268    28484.823    3.3247382 
    5320    536.69138   -7983.3689   -7923.5002   -692.48007    28482.745    3.3263074 
    5330     526.8559   -7982.3505    -7923.579   -483.46723     28478.01    3.3271647 
    5340    527.31625   -7982.4873   -7923.6644   -394.61204    28471.326    3.3267977 
    5350    533.03933   -7983.2145   -7923.7531   -283.74278    28463.114    3.3260681 
    5360     540.3942   -7984.1427   -7923.8609   -276.74423    28453.732     3.326111 
    5370    542.64005   -7984.5362   -7924.0039   -236.57218    28443.258    3.3268802 
    5380    539.15774   -7984.3263   -7924.1825   -61.788884    28431.863    3.3282673 
    5390    540.45716    -7984.681   -7924.3922    141.00146    28420.185    3.3303044 
    5400    538.70279   -7984.7225   -7924.6294    268.15352    28408.975    3.3336582 
    5410    535.82281   -7984.6612   -7924.8894    225.81735     28398.69    3.3387142 
    5420      534.442   -7984.7864   -7925.1686    152.50374    28389.233    3.3446897 
    5430    527.77078   -7984.3324   -7925.4587    98.902699    28380.323    3.3498495 
    5440    524.32319   -7984.2347   -7925.7457    54.736784    28371.764    3.3529487 
    5450    530.41368   -7985.1973   -7926.0288   -50.891356    28363.364    3.3546647 
    5460    536.36145   -7986.1476   -7926.3157    -244.4605    28354.698    3.3570399 
    5470       537.64    -7986.591   -7926.6165   -353.78739    28345.085    3.3614086 
    5480    529.88435   -7986.0319   -7926.9225     -322.259    28334.097     3.368021 
    5490    522.94627    -7985.547   -7927.2116   -266.83617    28321.783     3.375976 
    5500    522.26869   -7985.7306   -7927.4707   -138.18463    28308.399    3.3836365 
    5510    519.48897   -7985.6434   -7927.6937    67.623588    28294.443    3.3890977 
    5520    520.22766   -7985.9133   -7927.8811    278.27922    28280.647    3.3915996 
    5530    516.58819   -7985.6611   -7928.0349     565.1125     28267.88    3.3919708 
    5540    511.20323    -7985.173   -7928.1475    702.76257     28257.16    3.3905983 
    5550    517.83195   -7985.9905   -7928.2255    664.11692    28249.009    3.3876071 
    5560    514.12093   -7985.6256   -7928.2746    674.37724    28243.374    3.3849049 
    5570     510.2722   -7985.2162   -7928.2946    660.29937    28240.263    3.3837619 
    5580    514.39632    -7985.667   -7928.2853    594.28423    28239.651    3.3844282 
    5590    515.55532   -7985.7676   -7928.2566    507.87528    28241.309    3.3862004 
    5600    514.98095   -7985.6607   -7928.2138     438.1676    28244.937    3.3872309 
    5610    516.53521   -7985.7781   -7928.1578    352.00224    28250.278    3.3864469 
    5620    514.17716   -7985.4449   -7928.0876    320.46883    28257.049    3.3847228 
    5630    519.45288   -7985.9501   -7928.0044    356.43285    28265.131    3.3824323 
    5640    532.40001    -7987.311    -7927.921    497.77499    28274.701    3.3794087 
    5650    534.47801    -7987.479   -7927.8571    522.38689    28286.241    3.3765535 
    5660    533.71144   -7987.3564   -7927.8201    206.46255     28299.79    3.3742344 
    5670    532.02839   -7987.1505    -7927.802   -188.54589    28314.265    3.3716307 
    5680    528.70818   -7986.7746   -7927.7964    -574.1198    28328.174    3.3680278 
    5690    529.11038   -7986.8224   -7927.7994   -834.40941    28340.075    3.3654447 
    5700     524.0105   -7986.2647   -7927.8105   -888.63226    28348.959     3.366411 
    5710    509.79482   -7984.6849   -7927.8166   -743.51042    28354.578     3.370486 
    5720    508.36585   -7984.5037   -7927.7947    -511.3452    28357.426    3.3754345 
    5730    527.93274   -7986.6391   -7927.7474   -382.90575    28358.295    3.3794706 
    5740    535.22812   -7987.4068   -7927.7013   -138.06736     28357.75    3.3810057 
    5750    531.45628   -7986.9635   -7927.6788    160.84887    28356.687    3.3782959 
    5760    523.14361   -7986.0271   -7927.6696    252.97473    28356.149    3.3727535 
    5770    516.69208   -7985.2943   -7927.6565    248.45363    28356.548    3.3676571 
    5780    516.54241   -7985.2465   -7927.6254    281.76795    28357.947    3.3639597 
    5790    517.46871   -7985.2997   -7927.5753    318.02359    28360.453      3.36148 
    5800    511.95552   -7984.6168   -7927.5074    413.90331    28364.253    3.3597199 
    5810    504.43062   -7983.6797   -7927.4097    506.55605    28369.724    3.3578543 
    5820    515.39228    -7984.766   -7927.2732    469.30541    28377.198    3.3552403 
    5830    525.21119   -7985.6933   -7927.1052    573.60163    28386.657    3.3542555 
    5840    522.92604   -7985.2582    -7926.925    770.96176    28398.527    3.3569407 
    5850    528.96282   -7985.7422   -7926.7356    671.80928    28413.488    3.3623297 
    5860    541.06918   -7986.8958   -7926.5387    373.03834    28431.254    3.3690635 
    5870    544.63099   -7987.1079   -7926.3535    160.43674    28450.825    3.3765285 
    5880     538.1958   -7986.2279   -7926.1913    67.434457    28471.423    3.3834449 
    5890    530.59184   -7985.2275   -7926.0392    59.188648    28492.675    3.3886473 
    5900    527.57578   -7984.7262   -7925.8743    125.30565    28514.557    3.3926277 
    5910    524.38869   -7984.1677   -7925.6713    210.85681    28537.316    3.3974245 
    5920    533.80202   -7984.9638   -7925.4173    218.98222    28561.271     3.404397 
    5930    535.23975   -7984.8115   -7925.1047    198.77819     28586.52    3.4143684 
    5940    537.47803   -7984.6915    -7924.735    126.33872    28612.985    3.4266327 
    5950    540.40198   -7984.5828   -7924.3001    112.66163    28640.442    3.4392702 
    5960    551.17619   -7985.2986   -7923.8141    68.728415    28668.819    3.4488846 
    5970    558.34958   -7985.5919   -7923.3072   -30.648444    28697.943    3.4541408 
    5980    548.85712   -7984.0523   -7922.8265   -94.319999    28727.452    3.4570729 
    5990    542.58362   -7982.9116   -7922.3856   -112.38555    28757.106    3.4603884 
    6000    548.22656   -7983.1328   -7921.9773   -172.60148    28786.785    3.4669909 
    6010     550.1484    -7982.978   -7921.6081    -180.0188    28816.282    3.4791658 
    6020    548.86954   -7982.5216   -7921.2944   -173.66575    28845.539    3.4961063 
    6030     548.7741    -7982.257   -7921.0404   -286.81127    28874.526    3.5160544 
    6040    543.34525    -7981.453   -7920.8421   -571.94096    28902.755     3.538835 
    6050    534.49404   -7980.3102   -7920.6866   -921.92605    28929.113    3.5625624 
    6060     531.8941   -7979.8888   -7920.5552   -1228.0287    28952.196    3.5835977 
    6070    539.51826    -7980.627    -7920.443   -1497.2953    28970.689    3.6001476 
    6080    536.81255   -7980.2428   -7920.3606    -1569.978    28983.487    3.6138572 
    6090    528.12378   -7979.2207   -7920.3077   -1529.2464    28990.166    3.6257107 
    6100    529.84926   -7979.3736   -7920.2681    -1398.047    28990.805    3.6352702 
    6110    544.67972   -7981.0061   -7920.2463   -1303.5015    28985.768    3.6427753 
    6120    549.38125   -7981.5487   -7920.2644   -1120.5257     28975.42    3.6501178 
    6130     548.7038   -7981.5475   -7920.3388   -998.09131    28960.361    3.6568858 
    6140    556.98145   -7982.6186   -7920.4864   -1135.9646    28940.932    3.6594047 
    6150    553.61825    -7982.484   -7920.7271   -1198.8557     28916.67    3.6548405 
    6160    545.22274   -7981.8828   -7921.0624   -1122.7104    28887.281    3.6429754 
    6170    542.34856   -7981.9798     -7921.48   -1022.3682    28852.957    3.6264379 
    6180    542.11007   -7982.4465   -7921.9733   -840.15635    28814.073    3.6086203 
    6190    537.54156   -7982.4885   -7922.5249   -582.08206    28771.318    3.5932698 
    6200    538.04358   -7983.1237   -7923.1041   -290.52547    28725.696    3.5829011 
    6210    544.56205   -7984.4423   -7923.6956     -102.012    28678.289    3.5787867 
    6220    535.64383   -7984.0175   -7924.2657    184.34221    28629.949    3.5796329 
    6230    521.09884   -7982.8851   -7924.7557     435.7201     28581.78     3.579392 
    6240    521.69346   -7983.3396   -7925.1439    502.16773    28534.742    3.5725389 
    6250    530.83561   -7984.6686   -7925.4531    533.47526    28489.188    3.5591484 
    6260    532.54118   -7985.1155   -7925.7097    555.98183    28445.256    3.5437967 
    6270    529.57959   -7985.0044    -7925.929    566.25956    28403.061    3.5308333 
    6280    528.60042   -7985.0844   -7926.1182    616.00697    28362.693    3.5216579 
    6290    529.96766   -7985.4023   -7926.2836    685.43184    28324.345    3.5157248 
    6300    532.15379   -7985.7996    -7926.437     745.7049    28288.302    3.5118847 
    6310    529.98866   -7985.7055   -7926.5845    737.29831    28254.813    3.5095019 
    6320    530.63103   -7985.9233   -7926.7306    675.51395    28223.866    3.5081018 
    6330    533.05372   -7986.3444   -7926.8815      618.185    28195.251    3.5064636 
    6340    527.34727   -7985.8654    -7927.039    687.78815    28168.825    3.5035937 
    6350    515.84817    -7984.731   -7927.1874    788.11306    28144.831    3.4986658 
    6360    518.06147   -7985.1015   -7927.3109    814.90638    28123.632    3.4924705 
    6370       532.44   -7986.8161   -7927.4216    837.02515    28105.391    3.4886366 
    6380    535.21822   -7987.2447   -7927.5403    858.29837    28090.207    3.4889556 
    6390    532.76587   -7987.1106   -7927.6798    885.00061    28078.184    3.4913606 
    6400    525.08139   -7986.4083   -7927.8347    935.73047    28069.475    3.4942713 
    6410    516.54594    -7985.613   -7927.9915    884.25866    28064.229    3.4974366 
    6420    510.37147   -7985.0627     -7928.13    780.58219    28062.282    3.5004195 
    6430    511.43971   -7985.2924   -7928.2405     669.0757    28063.268    3.5026195 
    6440    511.01982   -7985.3299   -7928.3249    730.61706    28066.853    3.5055757 
    6450     508.6043   -7985.1164   -7928.3808    996.64376    28073.295    3.5103828 
    6460    521.36415   -7986.5715   -7928.4126    1072.0016    28083.463     3.515301 
    6470    533.46473   -7987.9465   -7928.4377    1090.6314    28097.753    3.5197426 
    6480    537.14477   -7988.4014   -7928.4821    1095.9398    28116.257     3.525365 
    6490    537.59662   -7988.5286   -7928.5588    1064.5044    28139.016     3.533641 
    6500     531.3447   -7987.9407   -7928.6684    1013.2797    28165.943    3.5447331 
    6510    520.03475    -7986.808   -7928.7973    1017.5081    28196.904    3.5578549 
    6520    516.70192   -7986.5694   -7928.9305    886.22519     28231.85    3.5720919 
    6530    516.26523   -7986.6456   -7929.0555    560.23103    28270.292    3.5873631 
    6540     515.4382   -7986.6613   -7929.1634    60.752003    28310.988    3.6022178 
    6550    511.22539   -7986.2738   -7929.2458   -440.76476    28352.065    3.6155991 
    6560    509.16299   -7986.0985   -7929.3006   -756.08585    28391.627      3.62804 
    6570    501.67355   -7985.2881   -7929.3257   -730.37158    28428.477    3.6406909 
    6580    493.01694    -7984.302   -7929.3052   -543.67657    28462.611     3.653126 
    6590    501.89285   -7985.2085   -7929.2216   -535.49996    28494.602    3.6631178 
    6600    500.50718   -7984.8945   -7929.0622   -544.13736    28524.557    3.6704595 
    6610    501.52878   -7984.7709   -7928.8246   -654.13192    28552.365    3.6756896 
    6620    515.37302   -7985.9899   -7928.4992   -900.64136    28577.576    3.6813617 
    6630    518.22268   -7985.9084   -7928.0999   -1091.8635    28599.284    3.6906326 
    6640    508.41404   -7984.3628   -7927.6485   -1057.9865    28616.797    3.7017463 
    6650    513.20969   -7984.3925   -7927.1431   -1043.6467    28630.151    3.7107395 
    6660    530.81425   -7985.8061    -7926.593   -1065.7865    28639.396    3.7172623 
    6670     534.1744   -7985.6406   -7926.0526   -891.58393    28644.538    3.7223573 
    6680    529.96591    -7984.686   -7925.5676   -642.39712    28646.205     3.725538 
    6690    530.14709   -7984.2792   -7925.1405   -399.92945    28645.365    3.7260148 
    6700    536.30663   -7984.5958     -7924.77    -241.2227    28642.928    3.7226016 
    6710    535.88438   -7984.2405   -7924.4618   -132.26668     28639.55    3.7167359 
    6720    535.32829   -7983.9313   -7924.2146   -191.32588    28635.606    3.7113933 
    6730    544.80437   -7984.7961   -7924.0224   -309.10963    28630.901    3.7082149 
    6740    552.72841   -7985.5487    -7923.891   -329.44468     28625.03    3.7076473 
    6750    556.86154   -7985.9522   -7923.8335   -321.91259    28617.884    3.7099283 
    6760    563.39662   -7986.7027    -7923.855   -562.42058    28609.363    3.7148502 
    6770     566.7243   -7987.1868   -7923.9679   -764.81234    28598.651    3.7204149 
    6780    553.77592   -7985.9379   -7924.1634   -630.00198    28585.062    3.7223859 
    6790    545.12787   -7985.2228   -7924.4129   -410.11651    28569.008    3.7179355 
    6800    539.55715    -7984.879   -7924.6906   -187.59217    28551.347    3.7083806 
    6810    526.35658   -7983.6914   -7924.9755   -10.208929    28532.929    3.6964681 
    6820    507.46312   -7981.8413   -7925.2331   -25.338043    28514.367    3.6849154 
    6830    503.64947   -7981.6209    -7925.438   -192.40164    28495.602    3.6757889 
    6840    511.86954   -7982.6919   -7925.5921   -179.75396    28476.097    3.6693867 
    6850    511.37503   -7982.7499   -7925.7052    52.970194    28455.934     3.665085 
    6860     513.6165   -7983.0817    -7925.787    115.41644    28435.867    3.6613916 
    6870    516.84845   -7983.4993   -7925.8441    30.073869    28416.131    3.6576845 
    6880    520.05374   -7983.8976   -7925.8848    4.5806483    28396.481     3.653375 
    6890    527.60048   -7984.7717    -7925.917   -101.64245    28376.753    3.6478297 
    6900    531.04038   -7985.1911   -7925.9528   -242.39079    28356.566    3.6417868 
    6910    535.90759   -7985.7838   -7926.0025   -337.23522    28335.392    3.6351755 
    6920    545.06717    -7986.882   -7926.0789   -278.01602    28312.915    3.6279399 
    6930    555.88768   -7988.2167   -7926.2066   -186.01605    28289.316    3.6210458 
    6940    559.73823    -7988.851   -7926.4114    69.651926    28265.023    3.6152553 
    6950    554.75966   -7988.5822   -7926.6979    364.56474    28240.956    3.6094606 
    6960    546.00437   -7987.9578   -7927.0502    593.62761    28218.205    3.6022253 
    6970    534.01633   -7987.0101   -7927.4398    766.72939    28197.636    3.5943589 
    6980     526.5243   -7986.5766    -7927.842    819.36773    28179.889    3.5876462 
    6990    521.97823   -7986.4646   -7928.2372    833.67341    28165.217     3.583469 
    7000    520.53083   -7986.6772   -7928.6112    772.45731    28153.649    3.5810822 
    7010     511.4956   -7986.0042   -7928.9461    860.12969     28145.06    3.5788219 
    7020    504.71126   -7985.5222   -7929.2209    1021.6543    28139.739    3.5754619 
    7030    507.02174   -7985.9883   -7929.4293    1118.1005    28138.269    3.5720604 
    7040    516.30213   -7987.1751   -7929.5808    1050.7013    28140.987     3.571389 
    7050    519.51366   -7987.6422   -7929.6897    1084.9347    28147.749    3.5756471 
    7060    518.47021   -7987.6011    -7929.765    1092.1229    28158.628    3.5830317 
    7070    524.09116   -7988.2791   -7929.8159    922.45411    28173.604    3.5900821 
    7080    528.59784   -7988.8176   -7929.8517    585.89883    28192.049    3.5945897 
    7090    531.89743   -7989.2185   -7929.8845    249.91794    28212.753    3.5961286 
    7100    528.78381   -7988.9066     -7929.92    170.54474    28234.527    3.5959937 
    7110    523.76386   -7988.3824   -7929.9557    151.12922    28256.985    3.5954506 
    7120    524.16534   -7988.4595    -7929.988    37.854637    28280.004    3.5969538 
    7130    515.02165   -7987.4614     -7930.01    122.40324    28303.256    3.6037008 
    7140    508.04548   -7986.6838   -7930.0106    340.96659    28327.037    3.6150918 
    7150    512.84878   -7987.1907   -7929.9816    426.88222    28352.085    3.6285748 
    7160    518.03721   -7987.7161   -7929.9283    351.70867    28378.745    3.6415695 
    7170    525.49358   -7988.4848   -7929.8652    121.94942    28406.726     3.650561 
    7180    522.80968   -7988.1223   -7929.8021    59.631865    28435.256    3.6542161 
    7190    522.81918   -7988.0642   -7929.7429    44.631918    28464.036    3.6531371 
    7200    518.83951   -7987.5588   -7929.6814   -12.283072    28492.983    3.6497471 
    7210    507.35995   -7986.2036   -7929.6068    -88.11053    28521.875    3.6470515 
    7220    501.50583   -7985.4455   -7929.5018   -114.03319    28550.455    3.6476013 
    7230    501.01742   -7985.2392     -7929.35   -155.40095    28578.607    3.6524061 
    7240    517.09023   -7986.8357   -7929.1536   -423.96852    28606.055    3.6606854 
    7250    525.68376   -7987.5736   -7928.9328   -625.92193    28631.873    3.6727674 
    7260    518.27989   -7986.5282   -7928.7133    -726.7013    28655.273    3.6883646 
    7270    509.76339   -7985.3536   -7928.4887   -841.71449    28675.817    3.7048947 
    7280    510.41935   -7985.1792   -7928.2411   -1074.1379    28692.998    3.7190842 
    7290    515.26235   -7985.4481   -7927.9698   -1208.6033    28705.971     3.729455 
    7300    518.20129   -7985.4948   -7927.6886   -1160.0107    28714.252    3.7364892 
    7310    526.59867   -7986.1511   -7927.4082   -1125.3365    28717.952    3.7406896 
    7320    530.67188   -7986.3375   -7927.1403   -1027.5825    28717.229    3.7426922 
    7330    524.41449   -7985.3944   -7926.8952   -769.29511    28712.521    3.7442923 
    7340    520.85026   -7984.7683   -7926.6667   -638.79781    28704.738    3.7464599 
    7350    519.29136   -7984.3729   -7926.4452   -627.08172    28694.414    3.7502659 
    7360    519.18159   -7984.1478   -7926.2323   -458.14629    28681.721    3.7562444 
    7370    520.30379   -7984.0713   -7926.0307   -134.84301    28667.347    3.7637515 
    7380    520.97178   -7983.9606   -7925.8454    78.776129    28652.445      3.77161 
    7390     524.0954   -7984.1405   -7925.6769    219.59434    28637.892    3.7789928 
    7400    530.66108   -7984.7208   -7925.5247    183.49317    28624.207    3.7849918 
    7410    539.90526   -7985.6229   -7925.3956    23.423023    28611.281    3.7883427 
    7420    549.28793   -7986.5795   -7925.3056   -177.33534    28598.529    3.7888943 
    7430    551.03848     -7986.74   -7925.2708   -320.26224    28585.227     3.788269 
    7440    546.09594   -7986.2113   -7925.2935   -566.25976    28570.748    3.7885325 
    7450    538.00568   -7985.3776   -7925.3623   -784.91844    28554.231    3.7924172 
    7460    532.99441   -7984.9157   -7925.4594   -832.06486    28534.921    3.8015612 
    7470    525.24122   -7984.1568   -7925.5654   -750.71055    28512.668    3.8140316 
    7480    511.75087   -7982.7427   -7925.6561   -613.93704    28487.838    3.8249163 
    7490    498.78632   -7981.3424    -7925.702   -570.07614    28460.997    3.8307182 
    7500    501.29966   -7981.6139   -7925.6931   -654.17686     28432.37    3.8321017 
    7510    511.41019   -7982.6886     -7925.64   -728.92259    28401.743    3.8312086 
    7520    517.78961   -7983.3245   -7925.5642   -648.47296    28368.994    3.8278589 
    7530    522.67101   -7983.7836   -7925.4789   -541.52328    28334.451    3.8204783 
    7540    531.90898   -7984.7267   -7925.3915   -245.53127    28298.705    3.8112431 
    7550     546.5927   -7986.2972    -7925.324   -86.853884    28262.824     3.803542 
    7560    548.62179   -7986.4997   -7925.3001    173.79797    28227.579    3.7975952 
    7570     547.2141   -7986.3656    -7925.323    513.70015    28193.946    3.7912742 
    7580    556.45051   -7987.4697   -7925.3968    775.97671    28163.151    3.7836039 
    7590    552.51048   -7987.1644    -7925.531    1028.4981    28136.158    3.7757705 
    7600    539.74846     -7985.92   -7925.7103    1237.7259    28113.804        3.768 
    7610    540.08668   -7986.1655    -7925.918    1231.0414    28096.677    3.7592635 
    7620    541.05622   -7986.5044   -7926.1488    1169.6153    28084.642    3.7492347 
    7630     539.3339   -7986.5644   -7926.4009    1055.7883    28077.331    3.7379446 
    7640    528.96975   -7985.6651   -7926.6577    907.02581    28074.171    3.7254817 
    7650    519.70776   -7984.8706   -7926.8965    841.97582    28074.515    3.7126381 
    7660    519.10059   -7985.0115    -7927.105    670.68701    28077.941    3.7021429 
    7670      519.564   -7985.2424   -7927.2843    468.89596    28083.735    3.6971483 
    7680    519.04153   -7985.3356   -7927.4358    291.71945    28091.083    3.6979192 
    7690    518.80518   -7985.4373   -7927.5638    227.33747    28099.294    3.7014582 
    7700    507.70795   -7984.2963   -7927.6607    405.15063    28108.155    3.7044882 
    7710    504.83361   -7984.0302   -7927.7152    606.91005    28118.225    3.7053383 
    7720    513.04772   -7984.9606   -7927.7294    695.94205    28130.168    3.7056047 
    7730     508.5178   -7984.4392   -7927.7132    739.45542     28144.27    3.7074535 
    7740    506.32906   -7984.1488   -7927.6671    685.42176    28160.611    3.7090355 
    7750    520.09225   -7985.6102   -7927.5931    534.62216      28178.9    3.7087237 
    7760     525.9287   -7986.1765   -7927.5084     436.2185    28198.578    3.7086812 
    7770     533.3204   -7986.9251   -7927.4324    216.81264     28219.18    3.7107037 
    7780    539.88252    -7987.605   -7927.3803    69.932333    28239.923    3.7158409 
    7790    527.15523   -7986.1633   -7927.3584    198.58587    28260.322    3.7249535 
    7800    522.37087   -7985.6221   -7927.3509    185.01453    28280.703    3.7366645 
    7810     527.6172   -7986.1996   -7927.3431     122.9907    28301.074    3.7494492 
    7820    522.77634   -7985.6539   -7927.3374    122.29178    28321.235     3.763035 
    7830    518.99339   -7985.2215    -7927.327    137.04138      28341.2    3.7761707 
    7840    526.50747     -7986.04   -7927.3073   -43.083994    28360.937    3.7879982 
    7850    526.13454   -7985.9776   -7927.2865   -172.43553     28379.87    3.7987777 
    7860      517.476   -7984.9899   -7927.2647   -303.32339    28397.526    3.8088761 
    7870    519.65832   -7985.1985   -7927.2299    -603.2021    28413.396    3.8187762 
    7880    524.50214   -7985.6923   -7927.1833   -814.10686    28426.504    3.8292057 
    7890    519.44783   -7985.0796   -7927.1344   -756.84298    28436.186    3.8407025 
    7900    513.98072    -7984.416   -7927.0807   -536.08143    28442.722     3.853133 
    7910    519.42806    -7984.956    -7927.013   -392.50214     28446.99    3.8653906 
    7920    528.00313    -7985.838   -7926.9384   -327.74388    28449.606    3.8756554 
    7930    523.66709    -7985.284   -7926.8681   -218.01551    28450.918    3.8819216 
    7940    515.94203   -7984.3531    -7926.799   -332.90447    28451.283    3.8835508 
    7950    506.55603   -7983.2174   -7926.7103   -582.26167    28450.322    3.8823698 
    7960    508.27696   -7983.2886   -7926.5895   -695.16347    28447.213    3.8805645 
    7970    517.63068   -7984.1806   -7926.4381   -699.28198    28441.576    3.8803165 
    7980    515.54792    -7983.778   -7926.2678   -540.96167    28433.493    3.8828983 
    7990    516.89877   -7983.7458    -7926.085   -351.81421    28423.595    3.8870729 
    8000    525.53477   -7984.5143   -7925.8901   -230.50218    28412.603    3.8915297 
    8010    530.73827   -7984.9039   -7925.6993   -59.794806    28401.055    3.8960931 
    8020    533.25066   -7985.0134   -7925.5285    122.34715    28389.608    3.9010829 
    8030    540.10538    -7985.635   -7925.3854    121.36398     28378.87    3.9071643 
    8040    554.36433   -7987.1298   -7925.2897   -18.090585    28368.818    3.9153648 
    8050    550.89646   -7986.7144    -7925.261    49.328954    28359.005    3.9264856 
    8060    539.85552   -7985.5094   -7925.2877    289.26258    28349.663    3.9379914 
    8070    544.18526   -7986.0559   -7925.3512    371.65985    28341.574    3.9462395 
    8080    535.09257   -7985.1275   -7925.4371    497.78925    28335.132    3.9514365 
    8090    520.38985   -7983.5748   -7925.5245    511.62543    28330.701    3.9534934 
    8100    511.63852   -7982.6595   -7925.5854     378.6864    28328.258    3.9533363 
    8110    505.63545    -7982.012   -7925.6076     325.7937    28327.343    3.9537511 
    8120     500.4411   -7981.4132   -7925.5883    288.91005    28327.701    3.9565591 
    8130    502.23047   -7981.5547   -7925.5302    305.19353    28329.188    3.9619279 
    8140    510.98542   -7982.4474   -7925.4462    332.39982    28331.821    3.9693941 
    8150    514.44111   -7982.7373   -7925.3507    300.42591    28335.665      3.97777 
    8160    519.27937   -7983.1791   -7925.2527     95.45753    28340.528    3.9842447 
    8170    527.89448   -7984.0469   -7925.1594    -127.1549    28345.674     3.988106 
    8180    530.04799   -7984.2077   -7925.0801    -122.9711    28350.351    3.9921846 
    8190    530.81089    -7984.232   -7925.0193    30.394799    28354.551    3.9973041 
    8200    535.52771   -7984.7174   -7924.9785    189.04419    28358.813    4.0022832 
    8210    542.35346   -7985.4655   -7924.9652    330.57979    28363.747    4.0070805 
    8220    547.33452   -7986.0478   -7924.9918    513.25615      28369.9    4.0127302 
    8230    547.49036   -7986.1417   -7925.0683    733.74238    28377.953    4.0196225 
    8240     541.1104   -7985.5578   -7925.1961    901.96021    28388.707    4.0264296 
    8250    529.85639   -7984.4642    -7925.358    851.09959    28402.733    4.0305121 
    8260    525.04849   -7984.0992   -7925.5293    606.23774    28419.812     4.031852 
    8270    527.29901   -7984.5208   -7925.6998     477.9133    28439.097    4.0341619 
    8280    529.49611   -7984.9421    -7925.876    364.03142    28460.028    4.0404718 
    8290    525.26114   -7984.6529   -7926.0593    136.03925    28482.124    4.0518404 
    8300    525.09114    -7984.818   -7926.2432   -269.44692    28504.483    4.0670535 
    8310    530.17179   -7985.5703   -7926.4288   -689.00594    28525.598    4.0837653 
    8320    527.57335   -7985.4785   -7926.6269   -823.92367    28543.954    4.1003155 
    8330     517.6207   -7984.5733    -7926.832    -645.4343    28559.074    4.1156698 
    8340    513.06502   -7984.2615   -7927.0283   -451.85386    28571.578    4.1277998 
    8350    508.95339   -7983.9765    -7927.202   -385.52697    28582.192    4.1360787 
    8360    506.21523   -7983.8127   -7927.3436   -355.60131    28591.229    4.1418977 
    8370    514.98086   -7984.9027   -7927.4559   -402.19131    28598.801    4.1458884 
    8380    517.24458   -7985.2489   -7927.5495   -433.09227    28604.789    4.1493814 
    8390    513.42226   -7984.9005   -7927.6275   -595.91379    28609.019    4.1537131 
    8400    518.06335   -7985.4799   -7927.6891   -870.73978    28610.868    4.1585624 
    8410    516.56554   -7985.3598   -7927.7362   -1025.5174    28609.364    4.1642607 
    8420    513.31275    -7985.032   -7927.7712   -1159.9176    28603.861    4.1717223 
    8430    507.71184   -7984.4196   -7927.7836   -1152.4873     28593.92      4.18029 
    8440    507.01747   -7984.3197   -7927.7612   -1029.2832    28579.595    4.1882464 
    8450    515.21601    -7985.172   -7927.6988   -1120.0746    28561.252    4.1948035 
    8460    513.67047   -7984.9023   -7927.6016   -1130.5959     28538.69     4.201352 
    8470    501.94339   -7983.4546   -7927.4621   -951.84308    28511.919    4.2091382 
[...]
   22890    537.21829   -7986.0143   -7926.0868   -529.97669    28224.825    9.2946361 
   22900     531.8008   -7985.3728   -7926.0496   -427.41981    28203.739    9.2870794 
   22910     534.6197   -7985.6697   -7926.0321   -497.45553    28181.158    9.2805035 
   22920     539.3595   -7986.2014    -7926.035    -613.2592    28156.876    9.2708974 
   22930    539.41347   -7986.2406   -7926.0682   -574.31446    28130.542    9.2549202 
   22940    539.88966   -7986.3617   -7926.1362     -405.368    28102.323    9.2337107 
   22950    537.16853   -7986.1615   -7926.2395   -147.81095    28072.871    9.2135332 
   22960    527.31097   -7985.1915   -7926.3691    81.408819    28043.138    9.2000373 
   22970    523.81996   -7984.9447   -7926.5117    201.29045    28013.969    9.1965481 
   22980    531.43023   -7985.9516   -7926.6698    235.52137    27985.806    9.2043889 
   22990    537.13372   -7986.7819   -7926.8638      279.563    27958.813    9.2218628 
   23000    530.55071   -7986.2898    -7927.106    317.30305    27933.117    9.2443062 
   23010     525.9259   -7986.0571   -7927.3892    227.32545    27908.812    9.2651946 
   23020      526.233   -7986.4132   -7927.7111    82.996408    27885.574    9.2796928 
   23030    522.71958   -7986.3734   -7928.0633   -4.6959508     27862.89    9.2871451 
   23040    525.95632    -7987.115   -7928.4438    -52.84289    27840.419    9.2902989 
   23050    524.85834   -7987.4002   -7928.8514   -92.334411    27817.957    9.2935243 
   23060    522.31413   -7987.5435   -7929.2786   -153.99582    27795.356    9.3009648 
   23070     520.5384   -7987.7783   -7929.7115   -91.591311    27772.446    9.3164697 
   23080    516.35712    -7987.731   -7930.1305     111.9817    27749.452    9.3395253 
   23090    507.45817   -7987.1175   -7930.5098    454.27614    27727.114    9.3642709 
   23100    502.67314   -7986.9001   -7930.8261    838.64744    27706.656    9.3836702 
   23110    507.15642   -7987.6515   -7931.0774    1029.6344    27689.399    9.3953175 
   23120    516.48904   -7988.8942   -7931.2791    990.39132    27675.993    9.4014606 
   23130    522.08439   -7989.6907   -7931.4514     916.9408    27666.314    9.4059901 
   23140    516.30392   -7989.1937   -7931.5993    1001.5707    27660.125     9.408137 
   23150    513.47072   -7988.9993   -7931.7209    1055.8975    27657.614    9.4056216 
   23160    511.50953    -7988.871   -7931.8113    1043.5663    27658.955    9.3997268 
   23170    502.39504   -7987.9076   -7931.8646    1045.9003      27664.1    9.3936189 
   23180    500.54164   -7987.7089   -7931.8727    981.20503    27672.994    9.3898494 
   23190    511.59339   -7988.9064   -7931.8373    812.69255    27685.386    9.3897744 
   23200    517.79094   -7989.5353   -7931.7749    607.25177     27700.68    9.3951936 
   23210    515.96291   -7989.2564      -7931.7    443.70683    27718.115    9.4055442 
   23220    511.27476   -7988.6461   -7931.6127    400.67795    27737.105    9.4156879 
   23230    507.87116   -7988.1584   -7931.5046     455.3014    27757.508    9.4225019 
   23240    514.66262   -7988.7867   -7931.3753    398.63021    27779.446    9.4273267 
   23250    517.78232   -7988.9918   -7931.2324    202.55022    27802.701    9.4334193 
   23260    516.02324   -7988.6488   -7931.0856   -49.931955    27826.578    9.4429809 
   23270    518.33205    -7988.757   -7930.9362    -178.0477    27850.217    9.4543854 
   23280    522.13999   -7989.0343   -7930.7888   -224.94727    27873.115    9.4637947 
   23290    529.48685   -7989.7213   -7930.6563   -214.19574    27895.094    9.4703144 
   23300    527.88687   -7989.4353   -7930.5488    -195.8685    27916.183    9.4742967 
   23310    523.72713    -7988.888   -7930.4655   -269.64134    27936.427    9.4754333 
   23320    523.12374   -7988.7507   -7930.3955   -433.07493    27955.551    9.4734603 
   23330    521.91071   -7988.5525   -7930.3326   -470.59808     27973.02    9.4688441 
   23340    522.23874   -7988.5318   -7930.2753   -290.47656     27988.74    9.4627232 
   23350    532.11909   -7989.5852   -7930.2265   -62.318956    28003.317    9.4553734 
   23360    539.32173   -7990.3619   -7930.1998    310.72225    28017.667    9.4454825 
   23370    537.29166   -7990.1428   -7930.2071    588.99896    28033.096    9.4310295 
   23380    530.49997   -7989.4202   -7930.2421    750.39567    28050.644    9.4127616 
   23390    522.01442   -7988.5162   -7930.2847    755.61386    28070.902    9.3940932 
   23400    522.14667   -7988.5657   -7930.3194    506.48085    28093.843    9.3767231 
   23410    520.04172   -7988.3507   -7930.3392    197.10976     28118.58    9.3614378 
   23420    514.53493   -7987.7397   -7930.3425    28.329294    28143.998    9.3480331 
   23430    513.52282   -7987.6019   -7930.3176   -85.033157    28169.437     9.334934 
   23440    523.75534   -7988.6898   -7930.2641   -408.34481    28194.364    9.3211844 
   23450    531.95467   -7989.5399   -7930.1995   -743.40879    28217.614    9.3071877 
   23460    523.58986    -7988.552   -7930.1448   -802.84836    28237.999      9.29595 
   23470    511.73331   -7987.1776    -7930.093   -721.44983    28255.265     9.290179 
   23480    507.68297   -7986.6568    -7930.024   -735.98368    28269.647    9.2898865 
   23490     502.3189    -7985.957   -7929.9225   -723.99899    28281.168    9.2915684 
   23500    496.88759   -7985.2074   -7929.7788   -685.19322    28289.892    9.2925421 
   23510    497.33144     -7985.06   -7929.5819   -734.66663     28295.94    9.2929102 
   23520    509.83201   -7986.2033   -7929.3308   -977.69349    28299.073    9.2919599 
   23530    522.55982   -7987.3393   -7929.0469   -1167.2755    28298.466    9.2903904 
   23540    523.71634     -7987.18   -7928.7587   -1092.4275    28293.493    9.2898034 
   23550    520.37976   -7986.5264   -7928.4773   -926.43956    28284.398    9.2898543 
   23560    518.35464   -7986.0184   -7928.1952   -831.65207    28271.786     9.286776 
   23570     520.7837   -7986.0063   -7927.9121    -734.5678    28256.059     9.278188 
   23580    518.13113   -7985.4296   -7927.6313   -501.61441    28237.649    9.2683724 
   23590    522.36002   -7985.6295   -7927.3594   -258.40395    28217.406     9.262141 
   23600    529.71818   -7986.1933   -7927.1024    1.2778919    28196.282    9.2605945 
   23610     530.8449   -7986.0922   -7926.8756    332.06848    28175.297    9.2627793 
   23620    526.05028   -7985.3625   -7926.6808    511.60559    28155.614    9.2664564 
   23630    535.88761   -7986.2961    -7926.517    425.82547    28137.867    9.2682895 
   23640    541.11985   -7986.7546   -7926.3919    297.33987    28121.799    9.2694743 
   23650    538.53671     -7986.39   -7926.3154    303.51662    28106.996    9.2724549 
   23660    547.03921     -7987.31   -7926.2869    93.609959    28093.341    9.2764621 
   23670    554.29653   -7988.1451   -7926.3125   -211.17551    28080.078     9.281885 
   23680    543.36105   -7987.0015   -7926.3887   -330.63445    28066.167    9.2903813 
   23690     538.4427   -7986.5586   -7926.4945   -435.38475    28051.108    9.3003868 
   23700    545.77518   -7987.5014   -7926.6194   -656.20293    28034.462    9.3078302 
   23710    549.25486   -7988.0459   -7926.7757   -815.29031    28015.469    9.3099432 
   23720    538.56892     -7987.04   -7926.9618   -750.02463    27993.636    9.3077117 
   23730    518.61755   -7984.9966   -7927.1441   -563.18826    27969.191    9.3037927 
   23740    508.81572   -7984.0469   -7927.2878   -429.70529    27942.783    9.2987026 
   23750    510.21517   -7984.2989   -7927.3837   -335.86012    27914.961    9.2915844 
   23760    509.70522   -7984.2957   -7927.4374   -204.84671     27886.12    9.2826188 
   23770     504.9341   -7983.7739   -7927.4478    39.605356    27856.799    9.2745938 
   23780    506.51622   -7983.9156   -7927.4129    249.03825    27827.866    9.2701143 
   23790    514.78105   -7984.7609   -7927.3363    421.33645    27800.104    9.2672481 
   23800    529.66712   -7986.3228   -7927.2376    548.83588    27774.145     9.263123 
   23810    542.48056   -7987.6652   -7927.1506    604.72618    27750.406    9.2576634 
   23820    539.77105    -7987.309   -7927.0968    861.67857    27729.176    9.2504891 
   23830    535.78207    -7986.845   -7927.0777    1160.9568    27711.319    9.2398036 
   23840    529.60971   -7986.1621   -7927.0833    1426.9868    27697.885    9.2267778 
   23850    523.21858   -7985.4673   -7927.1014    1530.5708    27689.725    9.2153378 
   23860    529.02732   -7986.1398    -7927.126    1335.7368    27687.123     9.206945 
   23870    534.66662   -7986.8069    -7927.164    1027.0304    27689.386    9.1997419 
   23880    531.06595   -7986.4644   -7927.2232    823.28535    27695.417    9.1902275 
   23890    530.59918   -7986.4898   -7927.3007    750.67477    27704.469    9.1734282 
   23900    540.37405   -7987.6824   -7927.4029    606.95783     27716.18    9.1489267 
   23910    541.00543   -7987.8962   -7927.5463    460.35886     27730.05     9.122231 
   23920    529.67703   -7986.8183   -7927.7321    424.26719    27745.554    9.0989061 
   23930    523.18586   -7986.3067   -7927.9446    411.78885    27762.524    9.0832764 
   23940    525.46961   -7986.7899   -7928.1729    356.82019    27780.916    9.0773014 
   23950    531.14284   -7987.6716   -7928.4219    151.83511    27800.481    9.0773329 
   23960    533.75203   -7988.2463   -7928.7055   -50.959281    27820.513    9.0767858 
   23970    527.91477   -7987.9198   -7929.0301   -74.415027    27840.324     9.072187 
   23980    522.18763   -7987.6365   -7929.3857   -86.773481    27859.761    9.0632525 
   23990    522.35133   -7988.0358   -7929.7668   -196.84076    27878.723    9.0508232 
   24000    513.09676   -7987.4001   -7930.1634   -232.61779    27896.865    9.0358554 
   24010    502.28235   -7986.5732   -7930.5428   -268.02168    27914.036    9.0196809 
   24020    516.01958   -7988.4647    -7930.902   -562.39225    27929.993    9.0047545 
   24030     515.9595    -7988.812    -7931.256   -681.08049    27943.813    8.9922683 
   24040    497.77949   -7987.1196   -7931.5916   -514.97926    27955.107    8.9779483 
   24050    496.38469   -7987.2559   -7931.8834   -498.01285    27964.343    8.9572544 
   24060    503.42132   -7988.2837   -7932.1263   -493.48879    27971.645     8.932421 
   24070    510.50681   -7989.2821   -7932.3343   -418.89572    27977.072    8.9101884 
   24080    514.85017   -7989.9576   -7932.5252   -394.03084    27980.886    8.8958734 
   24090    509.24577   -7989.5081    -7932.701    -390.4504    27983.207     8.891062 
   24100    508.63345    -7989.593   -7932.8541   -508.32016    27984.016    8.8939612 
   24110    518.55175   -7990.8361   -7932.9908   -665.32189    27982.906     8.901327 
   24120    514.08067   -7990.4678   -7933.1214   -640.51416    27979.395    8.9085791 
   24130    511.31588   -7990.2853   -7933.2473   -749.35645    27973.468    8.9088667 
   24140    511.16892   -7990.3804   -7933.3587   -860.43304    27964.804    8.9016116 
   24150    511.93907   -7990.5613   -7933.4537   -845.73462    27953.048    8.8910475 
   24160    515.43453   -7991.0379   -7933.5404   -731.06942    27938.268    8.8807818 
   24170    508.97425   -7990.3945   -7933.6177   -504.61398    27920.947    8.8744824 
   24180    511.28866   -7990.7187   -7933.6837   -461.09882    27901.837    8.8752536 
   24190    511.87137   -7990.8368   -7933.7367   -591.22024    27881.129    8.8858071 
   24200    509.45322   -7990.6094   -7933.7791     -677.212    27858.437    8.9043338 
   24210    504.29101   -7990.0546   -7933.8002   -627.57157    27833.465    8.9250438 
   24220    494.93389   -7988.9837   -7933.7731   -316.84326    27806.502    8.9403462 
   24230    492.90438   -7988.6544   -7933.6702   -11.330924    27778.607    8.9415597 
   24240    491.58897   -7988.3116   -7933.4741    241.70249    27750.909      8.92639 
   24250    493.50153    -7988.232   -7933.1812    367.94993    27724.318    8.9041103 
   24260    506.88217   -7989.3424    -7932.799    385.83346    27699.283    8.8869016 
   24270    512.87449     -7989.56   -7932.3481    565.93419    27675.954    8.8807746 
   24280    510.89248   -7988.8505   -7931.8597    845.66745    27654.931     8.883923 
   24290    511.14832   -7988.3712   -7931.3518    990.16963    27637.117    8.8906872 
   24300    518.86143   -7988.7195   -7930.8397    1048.7346    27623.058    8.8936015 
   24310    537.25236   -7990.2791   -7930.3478    930.42763    27612.858    8.8875464 
   24320    540.30332   -7990.1843   -7929.9127    924.22094    27606.171    8.8751426 
   24330    525.54011   -7988.1765   -7929.5517    1105.9857    27602.981    8.8622459 
   24340    519.80849   -7987.2219   -7929.2365    1155.5603    27603.801    8.8517769 
   24350    526.18714   -7987.6391   -7928.9422    1030.0625    27608.741    8.8460144 
   24360    527.97193   -7987.5636   -7928.6676    1082.3743    27617.471    8.8463999 
   24370    536.16446   -7988.2302   -7928.4203    937.17382    27630.011    8.8501056 
   24380    538.50335   -7988.2743   -7928.2035    662.79604     27645.86    8.8525672 
   24390     540.2515   -7988.2878   -7928.0219    456.14439    27664.075    8.8513132 
   24400    545.81321   -7988.7668   -7927.8805    408.46551    27683.909    8.8456847 
   24410    545.84622   -7988.6782   -7927.7883    509.20675    27705.201    8.8359516 
   24420     542.4269    -7988.256   -7927.7475     550.6846     27728.24    8.8249466 
   24430    534.81287   -7987.4076   -7927.7484    547.61653    27753.188    8.8153144 
   24440    527.56537   -7986.6217    -7927.771    487.78284    27780.028    8.8062756 
   24450    528.29557   -7986.7334   -7927.8012    432.45146    27808.556    8.7974639 
   24460    529.90302   -7986.9467   -7927.8352    273.75481    27838.534    8.7895889 
   24470    535.45555   -7987.6092   -7927.8783   -138.24465    27869.307    8.7825823 
   24480    531.90805   -7987.2728   -7927.9377    -360.4342    27899.511     8.776617 
   24490    520.14552   -7986.0347   -7928.0117   -394.70124    27928.299     8.772002 
   24500    510.73841   -7985.0528   -7928.0792   -402.12907    27955.501     8.768884 
   24510    507.77287   -7984.7622   -7928.1193   -369.01599    27981.101    8.7688869 
   24520      518.277   -7985.9441   -7928.1295    -336.4466    28005.212    8.7722665 
   24530    533.06829    -7987.592   -7928.1274   -352.31566    28027.937    8.7773317 
   24540    536.60943   -7988.0003   -7928.1407   -386.01896     28049.23    8.7824701 
   24550    532.54233   -7987.5868   -7928.1809    -290.3078    28069.048    8.7889171 
   24560    530.12901   -7987.3809   -7928.2442   -142.47979    28087.717     8.800114 
   24570    533.36773   -7987.8279   -7928.3299   -95.538991    28105.762    8.8176737 
   24580    537.03392   -7988.3509    -7928.444   -239.27036    28123.323    8.8391581 
   24590    532.36224   -7987.9804   -7928.5945   -329.17936     28139.95    8.8605087 
   24600    520.06153   -7986.7839   -7928.7703   -357.56709      28155.3    8.8783588 
   24610    512.44861   -7986.1163   -7928.9519   -422.06664    28169.237    8.8914347 
   24620    509.16014   -7985.9169   -7929.1194   -500.45663     28181.55     8.902653 
   24630    518.78875   -7987.1474   -7929.2757   -678.61593    28191.903    8.9160237 
   24640    518.62508   -7987.2857   -7929.4323   -785.40491    28199.684    8.9329515 
   24650    505.27949   -7985.9456   -7929.5809   -741.79693    28204.526    8.9521573 
   24660    505.78654   -7986.1282    -7929.707   -733.25587    28206.531    8.9718156 
   24670    508.57921   -7986.5369   -7929.8041   -699.01429    28205.763    8.9908837 
   24680    505.61985    -7986.275   -7929.8723   -544.71701    28202.381    9.0085287 
   24690    504.09288   -7986.1381   -7929.9058   -403.34482    28196.921    9.0225143 
   24700    506.80607   -7986.4329   -7929.8979   -296.82551    28189.926    9.0301593 
   24710    514.59137   -7987.2542   -7929.8507   -262.86867     28181.78    9.0315801 
   24720    514.73487   -7987.1896   -7929.7702   -191.43878     28172.65    9.0304152 
   24730    503.20957   -7985.7833   -7929.6495    19.635738    28162.863    9.0286379 
   24740    504.50495   -7985.7491   -7929.4709    177.88196    28153.146    9.0274686 
   24750    514.79103   -7986.6488   -7929.2231    248.25307    28144.081    9.0303784 
   24760    515.63201   -7986.4349   -7928.9153    319.74513    28135.969     9.039295 
   24770    523.26896   -7986.9305    -7928.559    174.10502    28128.985    9.0528615 
   24780    529.71335   -7987.2519   -7928.1615   -12.348975    28122.649    9.0687104 
   24790    525.99779   -7986.4242   -7927.7484    20.249997    28116.349    9.0831109 
   24800    530.73479   -7986.5363    -7927.332      106.488    28110.165    9.0914387 
   24810    543.09681   -7987.5083    -7926.925    -14.97552    28104.313    9.0933378 
   24820      545.931   -7987.4586   -7926.5592   -40.128834    28098.454    9.0940269 
   24830    549.56026    -7987.562   -7926.2578    19.975662    28092.474    9.1008479 
   24840    541.29477   -7986.4045   -7926.0222    178.75616    28086.609    9.1189888 
   24850    531.45803   -7985.1211   -7925.8362    318.77807    28081.421    9.1460947 
   24860    537.63089   -7985.6521   -7925.6786    324.87085    28077.408    9.1740269 
   24870    535.87478   -7985.3227   -7925.5451    298.33083    28074.625    9.1974531 
   24880    526.38717   -7984.1528   -7925.4336     349.5932    28073.011    9.2140052 
   24890    522.10621    -7983.568   -7925.3263    361.87604    28072.713    9.2236772 
   24900    524.80737   -7983.7539   -7925.2108    204.15751    28073.723    9.2300472 
   24910     535.0241   -7984.7761   -7925.0933    90.970288    28075.527    9.2386516 
   24920    544.43227   -7985.7286   -7924.9964    203.23232    28077.763     9.252087 
   24930    549.80157   -7986.2758   -7924.9446    312.73876    28080.751    9.2680284 
   24940    546.95939   -7985.9639   -7924.9497    444.95226    28084.934    9.2832508 
   24950    541.79348    -7985.448   -7925.0101    611.96719    28090.816    9.2971908 
   24960    538.91947   -7985.2354   -7925.1181     771.1895    28099.005    9.3095278 
   24970    529.09532   -7984.2848   -7925.2634    948.46861    28110.103    9.3192071 
   24980     521.8372   -7983.6393   -7925.4276    1026.4594    28124.739    9.3258203 
   24990    531.67493   -7984.9178   -7925.6086    890.00785    28143.159     9.330034 
   25000    539.82197   -7986.0483   -7925.8304    680.99864    28164.907    9.3340181 
Loop time of 10128.7 on 16 procs for 20000 steps with 864 atoms

Performance: 0.171 ns/day, 140.677 hours/ns, 1.975 timesteps/s
97.6% CPU use with 16 MPI tasks x 1 OpenMP threads

MPI task timing breakdown:
Section |  min time  |  avg time  |  max time  |%varavg| %total
---------------------------------------------------------------
Pair    | 7944.9     | 9234.6     | 9843.8     | 509.7 | 91.17
Bond    | 0.0012281  | 0.0050761  | 0.0081666  |   3.0 |  0.00
Neigh   | 0.19708    | 0.21549    | 0.22921    |   1.8 |  0.00
Comm    | 231.07     | 748.87     | 1950.7     |1647.1 |  7.39
Output  | 1.2888     | 1.3185     | 1.7513     |   9.7 |  0.01
Modify  | 52.275     | 143.59     | 239.3      | 615.5 |  1.42
Other   |            | 0.0769     |            |       |  0.00

Nlocal:        54.0000 ave          59 max          50 min
Histogram: 2 0 3 2 3 2 1 1 1 1
Nghost:        411.812 ave         428 max         396 min
Histogram: 1 1 0 4 2 2 2 3 0 1
Neighs:         0.00000 ave           0 max           0 min
Histogram: 16 0 0 0 0 0 0 0 0 0
FullNghs:      1607.88 ave        1852 max        1488 min
Histogram: 4 3 2 1 2 1 1 1 0 1

Total # of neighbors = 25726
Ave neighs/atom = 29.775463
Ave special neighs/atom = 0.0000000
Neighbor list builds = 2000
Dangerous builds = 2000
unfix   3
                
Total wall time: 3:30:48
