LAMMPS (29 Sep 2021 - Update 3)
OMP_NUM_THREADS environment is not set. Defaulting to 1 thread. (src/comm.cpp:98)
  using 1 OpenMP thread(s) per MPI task
Reading data file ...
  orthogonal box = (0.0000000 0.0000000 0.0000000) to (15.969932 15.719106 81.083077)
  2 by 1 by 8 MPI processor grid
  reading atoms ...
  864 atoms
Finding 1-2 1-3 1-4 neighbors ...
  special bond factors lj:    0        0        0       
  special bond factors coul:  0        0        0       
     0 = max # of 1-2 neighbors
     0 = max # of 1-3 neighbors
     0 = max # of 1-4 neighbors
     1 = max # of special neighbors
  special bonds CPU = 0.001 seconds
  read_data CPU = 0.381 seconds
Neighbor list info ...
  update every 1 steps, delay 10 steps, check yes
  max neighbors/atom: 2000, page size: 100000
  master list distance cutoff = 6.22
  ghost atom cutoff = 6.22
  binsize = 3.11, bins = 6 6 27
  1 neighbor lists, perpetual/occasional/extra = 1 0 0
  (1) pair quip, perpetual
      attributes: full, newton on
      pair build: full/bin
      stencil: full/bin/3d
      bin: standard
Setting up Verlet run ...
  Unit style    : metal
  Current step  : 0
  Time step     : 0.001
Per MPI rank memory allocation (min/avg/max) = 8.888 | 8.903 | 8.913 Mbytes
Step Temp PotEng TotEng Press Volume c_msd[4] 
       0            0   -6930.8241   -6930.8241   -4495.9065    20354.533            0 
      10    65.904237   -6938.1841   -6930.8324   -5379.5912    20354.533 0.0005000384 
      20    168.73131   -6949.6632    -6930.841   -6364.5261    20354.533 0.0061479459 
      30    200.57733   -6953.2127    -6930.838   -5696.6671    20354.533  0.020662009 
      40    199.55606   -6953.0935   -6930.8327   -4580.1506    20354.533   0.03833664 
      50    226.88579   -6956.1474   -6930.8379   -4419.7801    20354.533  0.051806208 
      60    238.47957   -6957.4392   -6930.8365   -4645.7272    20354.533  0.061424452 
      70    236.06355   -6957.1692   -6930.8359    -4807.043    20354.533  0.069853138 
      80    232.99362   -6956.8259   -6930.8351    -5036.908    20354.533  0.079308594 
      90    234.23747   -6956.9654   -6930.8358   -5260.6038    20354.533  0.090830495 
     100    232.00556   -6956.7159   -6930.8353   -5208.0306    20354.533   0.10432197 
     110    232.79067   -6956.8033   -6930.8352   -5031.3164    20354.533   0.11840709 
     120    238.30149    -6957.419   -6930.8361   -4942.2097    20354.533   0.13201584 
     130    238.74514   -6957.4687   -6930.8363   -4988.8033    20354.533   0.14538478 
     140    232.54984   -6956.7771   -6930.8358   -4942.4536    20354.533   0.15867927 
     150    225.40044   -6955.9792   -6930.8355   -4787.8719    20354.533   0.17110203 
     160    224.38726   -6955.8659   -6930.8352   -4620.0724    20354.533    0.1817825 
     170    231.86358   -6956.7009   -6930.8362   -4442.3359    20354.533   0.19072597 
     180    237.58036   -6957.3391   -6930.8366   -4192.2572    20354.533   0.19889867 
     190    235.69365   -6957.1279    -6930.836   -3927.7806    20354.533   0.20710191 
     200    234.44619   -6956.9885   -6930.8356   -3773.8119    20354.533   0.21513007 
     210    236.73114   -6957.2437    -6930.836   -3777.5502    20354.533   0.22305549 
     220    238.14425   -6957.4012   -6930.8359   -3899.9101    20354.533    0.2315521 
     230     238.4388   -6957.4341   -6930.8359   -4006.5782    20354.533   0.24098695 
     240    239.23886    -6957.523   -6930.8356   -3984.7528    20354.533   0.25141959 
     250     242.0724   -6957.8401   -6930.8366   -3793.3442    20354.533   0.26265129 
     260       239.05   -6957.5024    -6930.836   -3540.3897    20354.533   0.27417391 
     270    235.84511    -6957.145   -6930.8361   -3272.6541    20354.533   0.28493922 
     280    231.62838   -6956.6748   -6930.8363   -2948.2435    20354.533   0.29437431 
     290    226.51317   -6956.1028    -6930.835   -2633.8875    20354.533   0.30220439 
     300    232.88912   -6956.8151    -6930.836   -2478.1682    20354.533   0.30835486 
     310    239.65399   -6957.5709   -6930.8371   -2317.7128    20354.533   0.31386348 
     320    236.98534   -6957.2718   -6930.8357   -2020.1819    20354.533   0.31985126 
     330    235.73864   -6957.1329   -6930.8359   -1957.4113    20354.533   0.32664959 
     340    236.09186   -6957.1723   -6930.8359   -2003.6376    20354.533   0.33435107 
     350    237.19352   -6957.2955   -6930.8363   -2145.8328    20354.533   0.34289663 
     360     235.6501   -6957.1226   -6930.8355   -2186.0282    20354.533   0.35153924 
     370      237.245   -6957.3009   -6930.8359   -2246.4379    20354.533   0.35886165 
     380     239.0727   -6957.5047   -6930.8358   -2396.5837    20354.533   0.36451066 
     390    241.64207   -6957.7913   -6930.8358   -2701.0958    20354.533   0.36907283 
     400    244.68963   -6958.1321   -6930.8366    -3058.184    20354.533   0.37340775 
     410    240.84575   -6957.7024   -6930.8357   -3233.9135    20354.533   0.37836011 
     420    237.91038    -6957.375   -6930.8357   -3296.1667    20354.533    0.3837999 
     430    237.53548   -6957.3335    -6930.836     -3297.92    20354.533   0.38923076 
     440    236.65311   -6957.2351   -6930.8361   -3132.9159    20354.533   0.39408345 
     450    236.54722   -6957.2227   -6930.8355   -2838.3736    20354.533   0.39819744 
     460    240.22636   -6957.6339   -6930.8363   -2750.9298    20354.533   0.40204023 
     470    240.52465   -6957.6669    -6930.836   -2995.4918    20354.533   0.40599969 
     480    237.66852   -6957.3482   -6930.8359   -3342.9489    20354.533   0.40967234 
     490     233.8587   -6956.9231   -6930.8358   -3484.3142    20354.533   0.41268728 
     500    232.08796   -6956.7258   -6930.8361   -3205.4816    20354.533   0.41521326 
     510    230.70203   -6956.5715   -6930.8364   -2716.5526    20354.533   0.41731564 
     520    228.05602   -6956.2759   -6930.8359   -2363.5724    20354.533   0.41870774 
     530    227.97164    -6956.267   -6930.8365   -2215.6832    20354.533   0.41939371 
     540    224.82248   -6955.9152   -6930.8359   -2142.5726    20354.533   0.41965215 
     550    224.12424   -6955.8368   -6930.8354   -2230.4398    20354.533   0.41896539 
     560    230.14975   -6956.5094   -6930.8358   -2549.6413    20354.533   0.41694428 
     570    236.18881   -6957.1833   -6930.8361   -2919.3179    20354.533   0.41431605 
     580    239.11248   -6957.5092   -6930.8358   -3311.7801    20354.533   0.41218239 
     590    240.41038    -6957.654   -6930.8359   -3417.9605    20354.533   0.41128732 
     600     241.9108   -6957.8213   -6930.8358   -3319.9933    20354.533   0.41181297 
     610    244.71998   -6958.1355   -6930.8366   -3218.6172    20354.533   0.41378595 
     620     241.0794   -6957.7291   -6930.8363   -3147.9995    20354.533   0.41727735 
     630    235.50013   -6957.1059   -6930.8355   -3135.0665    20354.533   0.42154918 
     640    235.11112   -6957.0634   -6930.8364   -3257.6948    20354.533   0.42544554 
     650    231.17765   -6956.6238   -6930.8356   -3363.2824    20354.533   0.42831027 
     660    230.96587      -6956.6   -6930.8354    -3278.616    20354.533   0.42962018 
     670    236.71051   -6957.2418   -6930.8364   -3057.6575    20354.533   0.43008462 
     680    237.89077   -6957.3735   -6930.8365   -2729.6334    20354.533   0.43147958 
     690    233.77068   -6956.9134    -6930.836   -2455.8007    20354.533   0.43467882 
     700    232.73214   -6956.7972   -6930.8356   -2458.1317    20354.533   0.43896836 
     710     238.6713   -6957.4612    -6930.837     -2772.14    20354.533   0.44306523 
     720    238.40713   -6957.4307    -6930.836    -2807.083    20354.533   0.44626276 
     730     240.4682   -6957.6606    -6930.836   -2649.5036    20354.533   0.44805059 
     740    245.36669   -6958.2082   -6930.8372   -2598.8991    20354.533   0.44927166 
     750    241.62154   -6957.7892    -6930.836   -2531.0184    20354.533   0.45180545 
     760    240.83361   -6957.7015   -6930.8361   -2663.8574    20354.533   0.45609454 
     770    242.81641   -6957.9232   -6930.8366   -2904.7405    20354.533   0.46149917 
     780    240.55873   -6957.6716   -6930.8369   -3011.4883    20354.533   0.46731331 
     790    234.48344    -6956.992    -6930.835   -2984.9723    20354.533   0.47270083 
     800    241.36903   -6957.7616   -6930.8365   -3043.6074    20354.533   0.47702973 
     810    248.02611   -6958.5044   -6930.8367   -3212.7271    20354.533   0.48113406 
     820    247.07524   -6958.3983   -6930.8367   -3298.0857    20354.533   0.48604281 
     830    241.62282   -6957.7892   -6930.8358   -3451.0521    20354.533   0.49200069 
     840    241.09937   -6957.7309   -6930.8359   -3767.5583    20354.533    0.4980224 
     850    243.86884   -6958.0407   -6930.8367   -3969.0277    20354.533   0.50315689 
     860    240.67295   -6957.6839   -6930.8364   -3878.9651    20354.533   0.50749313 
     870    234.88256   -6957.0377   -6930.8362   -3705.4216    20354.533   0.51123394 
     880     230.9712   -6956.6008   -6930.8356   -3732.8653    20354.533   0.51418617 
     890    234.71187   -6957.0191   -6930.8366   -3903.3458    20354.533   0.51649556 
     900    236.69755   -6957.2408   -6930.8368   -4096.5729    20354.533   0.51925856 
     910    234.14135   -6956.9543   -6930.8355   -4214.9524    20354.533   0.52270274 
     920     239.2214   -6957.5215    -6930.836    -4371.806    20354.533    0.5260843 
     930    246.23434   -6958.3046   -6930.8368   -4388.3174    20354.533   0.52947161 
     940    244.93011   -6958.1585   -6930.8361    -4140.633    20354.533    0.5331014 
     950    244.54566   -6958.1146   -6930.8351   -3874.4856    20354.533   0.53608506 
     960     253.5944   -6959.1267   -6930.8378   -3771.8165    20354.533   0.53803089 
     970     248.3829   -6958.5442   -6930.8367   -3524.3442    20354.533   0.53986141 
     980    238.35135   -6957.4243   -6930.8358   -3260.4338    20354.533   0.54101785 
     990    236.50322   -6957.2181   -6930.8358   -3175.8957    20354.533   0.54134372 
    1000    241.19481   -6957.7423   -6930.8367   -3304.4267    20354.533   0.54225539 
    1010    241.95562   -6957.8272   -6930.8367   -3391.2596    20354.533   0.54502288 
    1020    240.16869   -6957.6269   -6930.8357   -3447.0496    20354.533   0.54930268 
    1030    245.53617   -6958.2267   -6930.8368   -3456.4918    20354.533   0.55419445 
    1040    247.77076    -6958.476   -6930.8368   -3298.5887    20354.533   0.55950896 
    1050     244.2442   -6958.0816   -6930.8358   -3136.4369    20354.533   0.56417367 
    1060    244.98518   -6958.1647   -6930.8363    -3248.508    20354.533   0.56688242 
    1070    245.91228   -6958.2687   -6930.8368   -3519.1406    20354.533   0.56812185 
    1080    243.86214    -6958.039   -6930.8358   -3692.2455    20354.533   0.56934968 
    1090    246.84293   -6958.3726   -6930.8369   -3906.5524    20354.533   0.57178329 
    1100      244.881   -6958.1533   -6930.8365   -4089.2355    20354.533   0.57651628 
    1110    240.43499   -6957.6569    -6930.836   -4077.0823    20354.533    0.5832495 
    1120    237.92872   -6957.3775   -6930.8362   -4003.4461    20354.533   0.59023617 
    1130    236.51172   -6957.2189   -6930.8357   -4042.4172    20354.533   0.59550452 
    1140    238.96444   -6957.4936   -6930.8368   -4040.0227    20354.533   0.59831056 
    1150    235.78148   -6957.1379   -6930.8361   -3879.2914    20354.533   0.59921996 
    1160    234.20341   -6956.9615   -6930.8358   -3837.8249    20354.533    0.5985221 
    1170    240.41902   -6957.6544   -6930.8353    -3935.141    20354.533   0.59722217 
    1180    255.54411   -6959.3435   -6930.8372     -4092.55    20354.533   0.59743217 
    1190    258.99242   -6959.7285   -6930.8375   -4046.2257    20354.533    0.6011544 
    1200    248.88394   -6958.5986   -6930.8352   -3714.2841    20354.533   0.60762836 
    1210    248.47025   -6958.5542    -6930.837   -3470.6197    20354.533   0.61448368 
    1220    244.95446   -6958.1613   -6930.8363   -3177.7538    20354.533   0.62050251 
    1230     241.8534   -6957.8153   -6930.8362   -3046.6572    20354.533   0.62473384 
    1240    239.93171   -6957.6017    -6930.837   -2953.8402    20354.533   0.62763822 
    1250    233.26136   -6956.8559   -6930.8352   -2777.3686    20354.533   0.63038166 
    1260    237.93988   -6957.3787   -6930.8361   -2775.1391    20354.533    0.6330371 
    1270    246.35675   -6958.3182   -6930.8368   -2888.4422    20354.533   0.63643977 
    1280    248.45813   -6958.5525   -6930.8366   -2920.0425    20354.533   0.64183599 
    1290    245.47675   -6958.2198   -6930.8365   -2685.1116    20354.533   0.64908358 
    1300    241.63357   -6957.7906    -6930.836   -2354.7632    20354.533   0.65669456 
    1310    242.43427   -6957.8804   -6930.8365   -2080.8148    20354.533   0.66291632 
    1320    245.28186   -6958.1979   -6930.8364   -1915.3295    20354.533    0.6669735 
    1330    248.60459   -6958.5691   -6930.8369   -2012.6907    20354.533   0.66938419 
    1340    247.35187   -6958.4291   -6930.8367   -2148.5782    20354.533   0.67162517 
    1350    244.12194   -6958.0683   -6930.8361   -1975.6824    20354.533   0.67460298 
    1360    246.17117   -6958.2975   -6930.8367   -1695.7314    20354.533   0.67795806 
    1370    247.81913   -6958.4815   -6930.8369   -1406.6961    20354.533   0.68155459 
    1380    246.54204   -6958.3387   -6930.8366   -1365.9532    20354.533   0.68550067 
    1390    245.37096   -6958.2083   -6930.8368   -1609.7263    20354.533   0.68946972 
    1400    243.36629   -6957.9841   -6930.8362   -2040.6718    20354.533   0.69316197 
    1410    243.94371   -6958.0489   -6930.8367    -2492.182    20354.533   0.69632692 
    1420    241.91407   -6957.8222   -6930.8364   -2641.5513    20354.533   0.69908731 
    1430    240.29252    -6957.641   -6930.8361   -2738.6597    20354.533   0.70169952 
    1440    243.00906   -6957.9446   -6930.8366   -2920.7186    20354.533   0.70454594 
    1450    244.25454   -6958.0838   -6930.8369   -3048.4377    20354.533   0.70795341 
    1460    242.09952    -6957.843   -6930.8364   -2976.5792    20354.533   0.71130224 
    1470    243.45842   -6957.9943   -6930.8362   -3081.8274    20354.533    0.7132231 
    1480    250.70065   -6958.8033   -6930.8373   -3338.8349    20354.533   0.71370178 
    1490    252.18388   -6958.9685    -6930.837   -3376.1382    20354.533    0.7144344 
    1500    251.43885   -6958.8853   -6930.8369   -3315.8008    20354.533   0.71637247 
    1510    251.24938    -6958.864   -6930.8368   -3301.7557    20354.533   0.71942223 
    1520    249.70733   -6958.6922    -6930.837   -3282.0336    20354.533   0.72323431 
    1530    244.44696   -6958.1054    -6930.837   -3302.2244    20354.533   0.72763008 
    1540    236.75683   -6957.2464   -6930.8358   -3274.9713    20354.533    0.7323608 
    1550    237.57971   -6957.3389   -6930.8365   -3428.4116    20354.533   0.73683196 
    1560    241.15015   -6957.7371   -6930.8364   -3593.4236    20354.533   0.74115804 
    1570    245.97302   -6958.2754   -6930.8368   -3733.6516    20354.533   0.74547586 
    1580    248.38573   -6958.5448    -6930.837   -3697.1233    20354.533   0.74963233 
    1590    246.86432   -6958.3746   -6930.8366   -3466.8015    20354.533   0.75351214 
    1600     247.7118   -6958.4687    -6930.836   -3388.9239    20354.533   0.75677589 
    1610    253.82537   -6959.1519   -6930.8373    -3531.034    20354.533   0.75955216 
    1620    251.92871   -6958.9401   -6930.8371   -3648.0728    20354.533   0.76294914 
    1630    244.66821   -6958.1291    -6930.836   -3657.5504    20354.533   0.76703359 
    1640    244.28177   -6958.0866   -6930.8366   -3671.0399    20354.533   0.77099433 
    1650    244.83575   -6958.1483   -6930.8365   -3788.3144    20354.533   0.77508445 
    1660    246.40424   -6958.3232   -6930.8364    -3813.853    20354.533   0.77989624 
    1670     250.2724    -6958.755   -6930.8367   -3565.9239    20354.533   0.78529205 
    1680    252.16532   -6958.9666   -6930.8372   -3320.4462    20354.533   0.79034429 
    1690    248.06278   -6958.5083   -6930.8366    -3241.467    20354.533   0.79410211 
    1700    246.18953   -6958.2989   -6930.8361   -3435.3007    20354.533   0.79613512 
    1710    251.37963   -6958.8788   -6930.8371   -3765.1983    20354.533   0.79697816 
    1720    252.49637   -6959.0036   -6930.8373   -4015.6546    20354.533   0.79809077 
    1730    246.19105   -6958.2991   -6930.8361   -4012.8085    20354.533   0.80001418 
    1740    244.72061   -6958.1349   -6930.8359   -3836.2711    20354.533   0.80174398 
    1750    250.77886   -6958.8116   -6930.8368   -3664.5304    20354.533   0.80300604 
    1760    253.23106   -6959.0851   -6930.8368   -3574.9487    20354.533   0.80474848 
    1770     250.9182   -6958.8268   -6930.8365   -3643.0638    20354.533   0.80759401 
    1780    248.19059    -6958.522   -6930.8359    -3925.933    20354.533   0.81194222 
    1790    251.50586   -6958.8923   -6930.8365   -4358.7518    20354.533   0.81788965 
    1800    254.74644   -6959.2547   -6930.8373   -4555.0094    20354.533   0.82537267 
    1810    250.83969   -6958.8178   -6930.8362   -4276.5786    20354.533   0.83331392 
    1820     251.8855   -6958.9345   -6930.8362   -4012.9598    20354.533   0.83972246 
    1830      255.594   -6959.3496   -6930.8377   -3901.3718    20354.533   0.84445553 
    1840    246.70995   -6958.3569   -6930.8361   -3626.6691    20354.533   0.84851616 
    1850    241.86654   -6957.8157   -6930.8351   -3456.7016    20354.533   0.85180041 
    1860    250.43531   -6958.7737   -6930.8372    -3514.864    20354.533    0.8548436 
    1870    251.67809   -6958.9117   -6930.8366    -3317.435    20354.533   0.85904271 
    1880    249.74232   -6958.6953   -6930.8361   -2814.4162    20354.533   0.86408884 
    1890    251.03758   -6958.8407    -6930.837   -2598.2462    20354.533   0.86903478 
    1900    247.47063   -6958.4421   -6930.8364   -2762.2368    20354.533   0.87371783 
    1910    246.41436   -6958.3238   -6930.8359   -3170.3298    20354.533   0.87809892 
    1920    252.32808   -6958.9847   -6930.8371   -3481.0709    20354.533    0.8826292 
    1930    251.70282   -6958.9148    -6930.837   -3522.0143    20354.533   0.88826081 
    1940    246.41342   -6958.3234   -6930.8356   -3409.4835    20354.533   0.89502972 
    1950     251.5574   -6958.8983   -6930.8367   -3383.3627    20354.533   0.90192896 
    1960    256.70331    -6959.473   -6930.8374   -3284.7665    20354.533   0.90797257 
    1970    251.99325   -6958.9465   -6930.8363   -3170.8424    20354.533   0.91214044 
    1980    249.36931   -6958.6536    -6930.836    -3268.664    20354.533   0.91382089 
    1990    253.19383   -6959.0808   -6930.8367   -3484.4565    20354.533   0.91429439 
    2000    255.75062   -6959.3664    -6930.837   -3645.8324    20354.533   0.91593526 
Loop time of 1097.58 on 16 procs for 2000 steps with 864 atoms

Performance: 0.157 ns/day, 152.441 hours/ns, 1.822 timesteps/s
97.5% CPU use with 16 MPI tasks x 1 OpenMP threads

MPI task timing breakdown:
Section |  min time  |  avg time  |  max time  |%varavg| %total
---------------------------------------------------------------
Pair    | 467.29     | 846.39     | 1091.2     | 582.3 | 77.11
Bond    | 0.00013566 | 0.00030714 | 0.00073028 |   0.0 |  0.00
Neigh   | 0.017669   | 0.027693   | 0.035879   |   3.5 |  0.00
Comm    | 5.9048     | 233.66     | 592.5      |1072.7 | 21.29
Output  | 0.25506    | 8.9812     | 19.365     | 248.8 |  0.82
Modify  | 0.0077808  | 0.0086847  | 0.01005    |   0.7 |  0.00
Other   |            | 8.511      |            |       |  0.78

Nlocal:        54.0000 ave          71 max          39 min
Histogram: 3 2 1 1 0 4 1 0 3 1
Nghost:        497.125 ave         591 max         387 min
Histogram: 1 2 1 1 1 3 2 1 2 2
Neighs:         0.00000 ave           0 max           0 min
Histogram: 16 0 0 0 0 0 0 0 0 0
FullNghs:      2382.00 ave        3956 max        1259 min
Histogram: 3 2 2 0 2 3 1 1 1 1

Total # of neighbors = 38112
Ave neighs/atom = 44.111111
Ave special neighs/atom = 0.0000000
Neighbor list builds = 199
Dangerous builds = 198
Setting up Verlet run ...
  Unit style    : metal
  Current step  : 2000
  Time step     : 0.001
Per MPI rank memory allocation (min/avg/max) = 8.897 | 8.905 | 8.914 Mbytes
Step Temp PotEng TotEng Press Volume c_msd[4] 
    2000          900   -6959.3664     -6858.97    125.43562    20354.533   0.91593526 
    2010    791.28356   -6947.2048    -6858.936    2352.0098    20354.849   0.92959638 
    2020    627.56714   -6928.7299   -6858.7238    5470.8693    20357.983   0.95423498 
    2030    574.87706   -6922.3315   -6858.2031    6180.2649    20367.197   0.97507039 
    2040    557.40679   -6919.4854   -6857.3058    5728.4407    20383.486   0.99087597 
    2050    537.97664   -6916.2078   -6856.1957    5075.3481    20406.439    1.0055781 
    2060    531.16426   -6914.3768   -6855.1246    4296.5153    20435.336    1.0207558 
    2070      565.234   -6917.2056   -6854.1529    3537.7746    20469.312    1.0368523 
    2080    580.53581     -6917.94   -6853.1804    3410.5211    20507.569    1.0560523 
    2090    559.61584   -6914.5966   -6852.1706    3449.1971    20549.903    1.0776557 
    2100     573.7499   -6915.0508   -6851.0481    2447.7837    20596.191    1.0972594 
    2110    594.68126   -6916.0672   -6849.7296    1299.3182    20645.321    1.1145227 
    2120    588.18109   -6913.9243   -6848.3118     458.3881    20695.911    1.1311658 
    2130    588.74943   -6912.5224   -6846.8465   -457.66804    20746.841     1.147793 
    2140    588.65495   -6910.9914   -6845.3261   -1041.3945     20796.99    1.1657242 
    2150    582.53735   -6908.7602   -6843.7773    -1258.252    20845.569    1.1849537 
    2160    578.70907   -6906.7556   -6842.1998   -1556.5032    20892.183    1.2043913 
    2170    590.71639   -6906.4748   -6840.5795   -1580.1814     20936.47    1.2240645 
    2180    607.08871   -6906.6247    -6838.903   -1293.3623    20978.361    1.2456063 
    2190    624.94378   -6906.9073   -6837.1939   -1117.4855    21018.135    1.2700137 
    2200    638.50129   -6906.6727   -6835.4469   -1203.3338    21055.959    1.2973947 
    2210    638.95206   -6904.9752   -6833.6991     -1365.45    21091.737    1.3262654 
    2220    636.97714   -6903.0024   -6831.9466    -1953.063    21125.219    1.3532198 
    2230    645.75982   -6902.2028   -6830.1673    -2685.806    21155.724    1.3760691 
    2240     667.9066   -6902.8477   -6828.3417   -3414.5717    21182.378    1.3949886 
    2250     675.7055   -6901.8463   -6826.4704   -3501.5008    21204.379    1.4112118 
    2260    665.57898   -6898.8675   -6824.6212   -2578.0203    21221.735    1.4261839 
    2270    679.91055   -6898.6143   -6822.7693   -1635.4783    21235.536     1.440003 
    2280    682.73189   -6897.0575   -6820.8978   -695.90473    21247.039    1.4550753 
    2290    679.22573   -6894.8181   -6819.0494   -586.88713    21257.338    1.4716245 
    2300    693.60477    -6894.562   -6817.1893    -1070.343    21266.629      1.48662 
    2310    696.26264   -6892.9702   -6815.3011   -1384.2864    21274.407    1.4992108 
    2320      699.099   -6891.4097   -6813.4242   -1438.9707    21280.317    1.5088093 
    2330    724.06103    -6892.297   -6811.5269   -1432.1415    21284.317    1.5164225 
    2340    732.99826   -6891.3691    -6809.602   -987.89933    21286.517    1.5266361 
    2350    731.43512   -6889.2904   -6807.6977    -687.4532    21287.421    1.5416257 
    2360    732.23735   -6887.4935   -6805.8114    -794.5112    21287.403    1.5596178 
    2370    719.38056   -6884.1815   -6803.9335   -885.98988     21286.41    1.5778132 
    2380    724.81812   -6882.9144   -6802.0599   -872.80552    21284.356    1.5916868 
    2390    755.61164   -6884.4181   -6800.1285   -913.89873    21281.255     1.600401 
    2400    785.84135   -6885.8136   -6798.1518   -870.86164    21277.082    1.6084334 
    2410    795.03643   -6884.8889   -6796.2014   -240.55312    21271.988    1.6199666 
    2420    796.99889   -6883.2167   -6794.3103    384.42126    21266.703    1.6350297 
    2430    813.90615   -6883.2451   -6792.4527    300.18963    21261.921     1.651316 
    2440    825.59272   -6882.7118   -6790.6157    112.55723    21257.614    1.6684457 
    2450    816.22309   -6879.8771   -6788.8262    586.77495    21253.637    1.6855472 
    2460    813.84869   -6877.8634   -6787.0774    961.38021    21250.481     1.699769 
    2470    824.72756   -6877.3207   -6785.3211    1058.1841    21248.581    1.7109003 
    2480    848.14004   -6878.1663    -6783.555    952.21601    21248.017    1.7226043 
    2490    860.28357   -6877.7677   -6781.8018    930.09286     21248.67    1.7385001 
    2500    871.83994   -6877.3642   -6780.1091    961.17679    21250.472    1.7586869 
    2510    879.30026     -6876.56   -6778.4728    1546.4442    21253.504    1.7828031 
    2520    873.03307    -6874.308   -6776.9198    2459.2988    21258.453    1.8113853 
    2530    874.47891   -6872.9842   -6775.4348    2809.6894    21266.312     1.842047 
    2540    876.54681   -6871.7704   -6773.9903    3118.6314    21277.554    1.8721225 
    2550    880.54033    -6870.817   -6772.5914    3242.4891    21292.463     1.899866 
    2560    887.32205   -6870.2143   -6771.2322    3127.9858    21311.123    1.9256624 
    2570    886.71749   -6868.8374   -6769.9227    3108.7358      21333.4    1.9516757 
    2580    897.57704   -6868.7799   -6768.6538    2609.4809     21359.14     1.979225 
    2590    910.69866   -6869.0069   -6767.4171    2000.2301    21387.703    2.0092927 
    2600    906.61586   -6867.3813   -6766.2469    1750.4474    21418.373    2.0399433 
    2610     885.8288   -6863.9525    -6765.137    1409.1685     21450.76    2.0673424 
    2620    885.88234   -6862.8785    -6764.057    740.04346    21484.373     2.089334 
    2630    923.32867   -6865.9509   -6762.9522   -5.9870845    21518.351    2.1092551 
    2640     921.1324   -6864.6361   -6761.8824     -240.765    21551.821    2.1330912 
    2650    925.22238    -6864.112   -6760.9021   -696.45583    21584.397    2.1617352 
    2660    923.41928   -6862.9845   -6759.9757   -1327.3842    21615.493     2.190761 
    2670    929.00318   -6862.7521   -6759.1204   -1350.2059    21644.388    2.2172025 
    2680    934.59701   -6862.6022   -6758.3465    -658.6029    21671.116    2.2426678 
    2690    920.52287   -6860.3499   -6757.6642   -50.862767    21696.501    2.2697842 
    2700    893.86726    -6856.768   -6757.0557     316.4037    21721.371    2.2981955 
    2710    898.81468   -6856.7206   -6756.4565   -97.309432    21746.129    2.3241959 
    2720    913.08105   -6857.7005    -6755.845   -421.81311    21770.355    2.3478114 
    2730     907.3593   -6856.4721   -6755.2548    -270.9839    21793.669    2.3715204 
    2740    905.05084   -6855.6549   -6754.6952   -115.43023    21816.237    2.3953576 
    2750    909.62392   -6855.6185   -6754.1486   -483.51366    21838.233     2.419723 
    2760    912.29294   -6855.3829   -6753.6153   -1133.0118    21859.209    2.4451231 
    2770    918.52711   -6855.5635   -6753.1004   -1643.2589    21878.397    2.4722734 
    2780    944.56048   -6857.9969   -6752.6297   -2057.1952    21895.144    2.5010576 
    2790    967.52069   -6860.1822   -6752.2538    -2289.522    21908.919    2.5310981 
    2800    946.99117   -6857.6628   -6752.0245    -1887.707    21919.528    2.5616476 
    2810    926.45843   -6855.2686   -6751.9208   -1470.2404    21927.477     2.588319 
    2820    917.45205   -6854.2267   -6751.8835   -1292.6074    21933.338    2.6085888 
    2830    917.24382   -6854.2073   -6751.8873   -1199.2069    21937.392    2.6250002 
    2840    929.65295   -6855.6428   -6751.9386   -1146.3347    21939.799    2.6430182 
    2850    947.47388    -6857.754   -6752.0619   -953.49186    21940.677    2.6676309 
    2860    952.70727   -6858.5768   -6752.3008   -750.07389    21940.277    2.6991035 
    2870    930.89723   -6856.4903   -6752.6473   -602.63577    21938.878    2.7331208 
    2880     921.1411   -6855.8239   -6753.0692   -551.83646    21936.662    2.7628507 
    2890    914.02927   -6855.4906   -6753.5293   -246.47942    21933.774    2.7846677 
    2900    935.42565   -6858.3853   -6754.0372   -226.31706    21930.548    2.8001326 
    2910    950.82918      -6860.7   -6754.6335   -377.44838    21927.043    2.8174688 
    2920    946.93599   -6860.9822   -6755.3501   -116.10997    21923.149    2.8421899 
    2930    936.98944   -6860.6809   -6756.1583    192.28771    21919.148    2.8717375 
    2940    937.70741    -6861.644   -6757.0413    133.13702    21915.397    2.9033201 
    2950     917.8968   -6860.3702   -6757.9774    107.25104    21911.866     2.936893 
    2960    875.16027   -6856.5187   -6758.8932    171.42872    21908.512    2.9704571 
    2970     860.4667   -6855.6997   -6759.7133    52.149362      21905.4    3.0018262 
    2980    862.67093   -6856.6602   -6760.4279   -113.45439    21902.387    3.0327999 
    2990    870.62999   -6858.1779   -6761.0578    -625.3883    21899.194    3.0637388 
    3000    871.67184   -6858.8603    -6761.624   -1005.6023    21895.201    3.0934062 
    3010    864.96265   -6858.6135   -6762.1256    -903.0892     21889.95    3.1214651 
    3020    851.41603   -6857.5093   -6762.5326   -680.73913    21883.561    3.1477897 
    3030    861.03912   -6858.9029   -6762.8527   -804.37215    21876.258    3.1742876 
    3040    872.14732   -6860.3903   -6763.1009   -734.79391    21867.949    3.2026317 
    3050     865.1161   -6859.7886   -6763.2836   -132.99983    21858.794    3.2310615 
    3060    859.47944   -6859.2683   -6763.3921    356.55727    21849.498    3.2554864 
    3070    859.89786   -6859.3349    -6763.412    646.80938    21840.712    3.2733704 
    3080    875.63422   -6861.0321   -6763.3538    679.22485    21832.813    3.2873583 
    3090    874.85239   -6860.8222   -6763.2311    1001.5301    21825.905    3.3046086 
    3100    846.20299   -6857.4361   -6763.0409    1699.5126    21820.405    3.3292743 
    3110    826.09595   -6854.8946   -6762.7424    1981.4644    21817.143    3.3593133 
    3120    854.67735    -6857.654   -6762.3135    1125.9675    21816.391    3.3906844 
    3130    886.91054    -6860.695   -6761.7588    133.94561    21817.137    3.4222983 
    3140    905.28901   -6862.1442   -6761.1579    -537.3425    21818.107    3.4547915 
    3150    908.41067   -6861.8976   -6760.5631   -921.84162    21818.394    3.4856756 
    3160    896.62994   -6860.0129   -6759.9925   -886.23321    21817.512    3.5093601 
    3170    886.87163   -6858.3661   -6759.4342   -554.55411     21815.51    3.5242363 
    3180    886.34299   -6857.7284   -6758.8555   -192.33294    21812.802    3.5339092 
    3190    906.24025   -6859.3382   -6758.2457   -364.73269    21809.799    3.5440231 
    3200    903.49154   -6858.4187   -6757.6329   -352.27492    21806.353    3.5607967 
    3210    882.04832   -6855.4349   -6757.0411    77.366031    21802.515    3.5872772 
    3220     887.8988   -6855.4864     -6756.44    179.33319    21798.749    3.6216599 
    3230    880.60115   -6854.0274    -6755.795    772.57521    21795.328    3.6580668 
    3240    911.85907   -6856.8458   -6755.1266     646.1364    21792.861     3.689277 
    3250    934.89111   -6858.7466   -6754.4581    197.70056    21791.226    3.7156128 
    3260    915.61103   -6856.0035   -6753.8657    507.51863     21789.96    3.7388065 
    3270    891.11219   -6852.7321   -6753.3272     901.1001    21789.392    3.7597823 
    3280    899.20234   -6853.1027   -6752.7953    350.24044    21789.902    3.7819299 
    3290    938.71999   -6856.9863   -6752.2707   -352.01663    21790.852     3.807018 
    3300    925.31682   -6855.0271   -6751.8067     79.41999    21791.473    3.8358851 
    3310    912.36822   -6853.1898   -6751.4137    264.86853    21792.163    3.8666072 
    3320    923.60911   -6854.0838   -6751.0539   -401.25848    21793.113    3.8955951 
    3330    921.33817   -6853.5175   -6750.7408   -880.10199    21793.562    3.9266674 
    3340     887.1766   -6849.4385   -6750.4726   -886.24472    21792.898    3.9612636 
    3350    888.82406   -6849.3471   -6750.1974   -869.26937     21791.08    3.9966487 
    3360     933.1558   -6853.9897   -6749.8947   -1228.8273    21788.085    4.0302314 
    3370    954.17298   -6856.0844    -6749.645   -1121.5707    21783.545    4.0622586 
    3380    922.97243   -6852.4465   -6749.4875   -151.44768    21777.672    4.0963839 
    3390    909.15717   -6850.7991   -6749.3813     252.2751    21771.575    4.1314299 
    3400    916.59714   -6851.5498   -6749.3021   -39.096635    21765.771    4.1653739 
    3410    912.83681   -6851.0944   -6749.2661   -171.68445    21759.999    4.1983803 
    3420    903.54851   -6850.0553   -6749.2631   -234.03802    21754.068    4.2292753 
    3430    912.40653    -6851.066   -6749.2857   -335.85423    21747.862    4.2560101 
    3440    913.00136   -6851.1848   -6749.3381   -101.49314    21741.291     4.280326 
    3450    904.69843   -6850.3409   -6749.4204    320.38593    21734.652    4.3055904 
    3460    904.91873   -6850.4647   -6749.5196    354.15572    21728.434     4.333609 
    3470     911.8782   -6851.3594    -6749.638    494.95382    21722.747    4.3641757 
    3480    915.92225   -6851.9538   -6749.7813    887.32522    21717.784    4.3960996 
    3490    912.97085   -6851.8062   -6749.9629    1524.2284    21714.059    4.4270957 
    3500    893.99419   -6849.8846   -6750.1582    2130.8925    21712.349    4.4537536 
    3510    925.95838   -6853.6656   -6750.3736    2000.7617    21713.367      4.47462 
    3520    943.11983   -6855.8587   -6750.6523    1391.9359    21716.952    4.4956052 
    3530    908.37876   -6852.3346   -6751.0036    1459.6185     21722.43    4.5223466 
    3540    896.21257   -6851.3381   -6751.3642    1665.0108    21729.807    4.5564301 
    3550    898.21159   -6851.9074   -6751.7106    1186.6456    21739.264    4.5989554 
    3560    886.89954    -6850.969   -6752.0341    521.40945    21750.222    4.6494966 
    3570    888.85809   -6851.4911   -6752.3377    57.493117    21761.818    4.7011047 
    3580    885.40223   -6851.3825   -6752.6145    51.007619     21773.48    4.7458149 
    3590    886.86298   -6851.8006   -6752.8697    233.46614    21785.162    4.7827916 
    3600    882.31441   -6851.5241   -6753.1006    460.99537    21797.093    4.8166092 
    3610    872.77971   -6850.6343   -6753.2744    270.03061    21809.521     4.852562 
    3620    916.00748   -6855.6001   -6753.4181   -852.89568    21822.098    4.8963315 
    3630    912.21448   -6855.3263   -6753.5674   -1085.0215    21833.594    4.9487287 
    3640    886.75944   -6852.6616   -6753.7422   -575.65349     21843.65    5.0035332 
    3650    884.52055   -6852.5667   -6753.8971   -296.96217    21852.842    5.0542751 
    3660    907.12416   -6855.2187   -6754.0276   -551.41137    21861.516    5.0976235 
    3670    923.53415   -6857.2078   -6754.1862   -1032.9456    21869.378     5.135069 
    3680    894.95739   -6854.2102   -6754.3764   -948.91118    21875.917    5.1702524 
    3690    897.19536   -6854.6652   -6754.5817   -1145.3554    21881.105    5.2059145 
    3700    891.37717   -6854.2102   -6754.7757   -1198.3234    21884.782    5.2421691 
    3710    873.78621   -6852.4247   -6754.9525   -1033.7048    21886.878    5.2762718 
    3720    863.74708   -6851.4229   -6755.0707    -776.5386    21887.611    5.3088105 
    3730    880.86682   -6853.3875   -6755.1254   -909.95577    21887.256    5.3443085 
    3740    888.46337   -6854.2438   -6755.1343   -776.94519    21885.737    5.3839902 
    3750    897.10623   -6855.1977   -6755.1241   -645.81317    21883.193    5.4273275 
    3760     911.3594   -6856.7821   -6755.1186   -592.32445    21879.805    5.4736799 
    3770    897.88825   -6855.2803   -6755.1195   -371.31402    21875.684    5.5151147 
    3780    894.03231   -6854.8383   -6755.1077   -337.04577    21871.084    5.5434302 
    3790    903.60419   -6855.8774    -6755.079   -501.30019    21866.048    5.5631179 
    3800    905.34098   -6856.0423   -6755.0502   -722.80946     21860.38    5.5831458 
    3810    918.07561   -6857.4564   -6755.0437   -910.87332    21853.778    5.6092256 
    3820    909.13267    -6856.479   -6755.0639    -700.1946    21846.043    5.6456879 
    3830    892.60901   -6854.6704   -6755.0985   -516.47142    21837.422    5.6888641 
    3840     901.6685   -6855.7121   -6755.1297   -798.31173     21828.11    5.7269781 
    3850    912.94719   -6857.0141   -6755.1735   -723.81987    21817.841    5.7539542 
    3860    906.80647   -6856.3883   -6755.2326   -73.100929    21806.748    5.7726869 
    3870    916.03904    -6857.504   -6755.3185    394.55204    21795.571    5.7925679 
    3880    912.26016   -6857.1866   -6755.4226    938.39628    21784.998    5.8184856 
    3890    916.18599   -6857.7698   -6755.5679    791.68027    21775.631    5.8494001 
    3900    898.73806   -6855.9997   -6755.7441    734.78731    21767.374     5.885909 
    3910     889.5557   -6855.1586   -6755.9273    973.49828    21760.195    5.9240108 
    3920    889.91389   -6855.3633   -6756.0921    1070.8043    21754.317     5.960952 
    3930    893.26648   -6855.8827   -6756.2375    1347.8827     21749.91    5.9974531 
    3940    891.95786    -6855.856   -6756.3568    1604.2946    21747.317    6.0331184 
    3950    914.85419   -6858.5298   -6756.4765    1350.3184    21746.764    6.0680916 
    3960    924.06457    -6859.713   -6756.6322    1107.1693    21748.013    6.1030223 
    3970     896.1283   -6856.7943   -6756.8298    1160.8068    21750.772    6.1321529 
    3980    889.72708   -6856.2818   -6757.0314    807.72099    21755.001    6.1490756 
    3990    894.90354   -6857.0433   -6757.2155    471.10903    21760.295    6.1598254 
    4000    888.13633   -6856.4572   -6757.3843    696.42798    21766.271    6.1759558 
    4010    877.04668     -6855.36   -6757.5242    1173.4108    21773.184    6.1997868 
    4020    882.49567   -6856.0698   -6757.6261    1690.3092    21781.656    6.2264397 
    4030    897.89425    -6857.854   -6757.6925    1493.8032    21792.279    6.2538669 
    4040    914.68266   -6859.7901   -6757.7559    1103.1283    21804.865    6.2804667 
    4050    924.02574   -6860.9312   -6757.8547    881.39934    21818.937    6.3071382 
    4060    913.43133    -6859.901   -6758.0064    805.03932    21834.195    6.3349693 
    4070    888.19831   -6857.2585   -6758.1786    797.71328    21850.549    6.3615199 
    4080    903.45194   -6859.1271   -6758.3457    314.90983    21867.897    6.3864821 
    4090    904.03406    -6859.355   -6758.5087    161.02369    21885.731    6.4184385 
    4100    892.62817   -6858.2519   -6758.6779   -336.36561    21903.739    6.4587285 
    4110    873.82285   -6856.2928   -6758.8166   -915.05768    21921.306    6.5014106 
    4120     857.2879   -6854.5201   -6758.8884   -1240.5931    21937.689     6.542692 
    4130    864.25599   -6855.2901    -6758.881   -1477.5881    21952.407    6.5845605 
    4140     879.5782   -6856.9161   -6758.7978   -1426.0522    21965.193    6.6281699 
    4150    890.49516   -6858.0023   -6758.6663   -1203.2256    21976.109    6.6712032 
    4160    899.12554   -6858.8184   -6758.5196   -1412.6146    21985.341    6.7108476 
    4170    897.59765   -6858.4915   -6758.3631     -1831.79    21992.655     6.741391 
    4180    895.33642   -6858.0809   -6758.2047   -2235.7696    21997.494    6.7597303 
    4190    898.31264   -6858.2459   -6758.0378   -2309.2445    21999.359    6.7723466 
    4200    894.14471   -6857.6069   -6757.8637   -2213.1239    21998.116    6.7864499 
    4210    886.81229   -6856.6001   -6757.6749    -1886.333    21993.916    6.8038987 
    4220    889.69834   -6856.7081   -6757.4609    -1676.383    21987.143    6.8223366 
    4230    894.75356    -6857.036   -6757.2249   -1248.8306    21978.138     6.843478 
    4240    882.08408    -6855.365   -6756.9672    -691.5023    21967.452    6.8678328 
    4250    860.01539   -6852.5957   -6756.6597   -107.37585    21955.833    6.8883675 
    4260    867.61706   -6853.0618   -6756.2778     215.0728    21944.012    6.9021323 
    4270    863.30008   -6852.1083   -6755.8059     788.0786     21932.51    6.9171426 
    4280    879.31705   -6853.3594   -6755.2703    977.76091    21921.977    6.9394052 
    4290    890.86094   -6854.0524   -6754.6755    985.31479    21912.702    6.9638387 
    4300    913.08275   -6855.9259   -6754.0702    953.93199    21904.732    6.9847105 
    4310    939.88147   -6858.3358   -6753.4906    928.65956    21898.025    7.0012804 
    4320    945.31723    -6858.442   -6752.9904     1345.103    21892.609    7.0119964 
    4330    932.45956    -6856.612   -6752.5948    1602.9004    21888.951    7.0164743 
    4340    920.35586    -6854.952   -6752.2849    1771.7922    21887.415    7.0179009 
    4350    926.26964   -6855.3621   -6752.0353    1593.3085    21888.212     7.020116 
    4360    920.06138   -6854.4775   -6751.8433    1058.9168    21891.103    7.0265061 
    4370     906.4442    -6852.812   -6751.6968    804.76552    21895.466    7.0350055 
    4380     906.3323    -6852.675   -6751.5723     1036.429    21900.998    7.0428916 
    4390    909.95089   -6852.9714    -6751.465    1496.5675     21907.99    7.0476194 
    4400    891.84827   -6850.8637   -6751.3767    1990.5829    21917.044    7.0540231 
    4410    883.87423   -6849.8774   -6751.2799    2127.9746    21928.816    7.0660153 
    4420    908.28418   -6852.4815    -6751.161    1859.4334    21943.493    7.0823035 
    4430    918.39148   -6853.4953   -6751.0473    1278.8144    21960.741    7.1021998 
    4440    915.79218   -6853.1107   -6750.9527    87.434983     21979.77    7.1247258 
    4450     936.2452   -6855.3275   -6750.8879    -1257.022    21999.032    7.1467204 
    4460    944.84972    -6856.286   -6750.8866   -1673.1684    22016.856    7.1692084 
    4470    932.07711   -6854.9683   -6750.9937   -1270.0789    22032.624    7.1955083 
    4480    906.54564   -6852.2957   -6751.1692   -611.27943    22046.806     7.224849 
    4490    917.89613   -6853.7802   -6751.3875   -300.08408    22060.215    7.2502162 
    4500     909.8656   -6853.1407   -6751.6438   -210.95294    22073.285    7.2708286 
    4510    898.58019   -6852.1652   -6751.9272   -436.80669     22086.13    7.2887444 
    4520    906.05419    -6853.291   -6752.2193   -972.50987    22098.445    7.3066402 
    4530    911.47825   -6854.2164   -6752.5397   -1069.7311    22109.585    7.3255767 
    4540    900.71236    -6853.356   -6752.8802   -642.70365    22119.421    7.3446667 
    4550    918.09981   -6855.6731   -6753.2577   -378.10673    22128.434    7.3671957 
    4560    905.06761   -6854.6283   -6753.6667   -516.69246    22136.963    7.3955141 
    4570    882.46118   -6852.5216   -6754.0817   -725.31054    22144.855    7.4246106 
    4580     875.6321   -6852.1291   -6754.4511    -1092.307     22151.78    7.4506227 
    4590    874.93433   -6852.3733    -6754.773   -1435.1223    22157.249    7.4730963 
    4600    861.54612    -6851.129   -6755.0222    -1368.383    22160.859    7.4978321 
    4610    893.98194   -6854.9507   -6755.2256   -1681.6749    22162.556    7.5287055 
    4620    896.84596    -6855.456   -6755.4115   -1822.9488    22161.984     7.567026 
    4630     874.4507   -6853.1371   -6755.5908   -1718.3914     22158.92    7.6066985 
    4640    874.79277   -6853.3105   -6755.7261   -1586.5901    22153.474    7.6390995 
    4650     893.5587   -6855.4933   -6755.8155   -1453.7655     22145.81    7.6646367 
    4660    901.87048   -6856.4951   -6755.8901   -1194.1317     22136.11    7.6880457 
    4670    911.79182   -6857.6878   -6755.9761   -1018.7122    22124.679    7.7119638 
    4680    908.89197   -6857.4768   -6756.0885   -647.33204    22111.787     7.739099 
    4690     893.8658   -6855.9364   -6756.2244    -208.1871    22097.915    7.7678382 
    4700    868.71123    -6853.247    -6756.341    125.19949    22083.647    7.7939252 
    4710    869.31284   -6853.3811   -6756.4079   -64.242071    22069.351     7.816465 
    4720    872.43695   -6853.7281   -6756.4064   -16.949808    22054.904    7.8360918 
    4730    888.88539   -6855.5118   -6756.3553   -196.49948    22040.278    7.8487501 
    4740    886.26457   -6855.1241   -6756.2599   -124.68082    22025.309    7.8526815 
    4750    886.50622   -6855.0137   -6756.1226    171.38491    22010.069    7.8557706 
    4760    887.01314   -6854.8829   -6755.9352    596.68837    21994.949    7.8678998 
    4770    878.99551   -6853.7535   -6755.7002    863.71237    21980.491    7.8899124 
    4780    881.49465   -6853.7351    -6755.403    893.53339    21967.048    7.9123123 
    4790    901.95628   -6855.6539   -6755.0393    569.43776     21954.65     7.931728 
    4800    919.89402   -6857.2562   -6754.6407   -16.220667    21942.868     7.952601 
    4810     921.4091   -6857.0298   -6754.2453   -67.392988    21931.021    7.9759032 
    4820    916.79414   -6856.1346   -6753.8649   -60.509453    21918.973    7.9978323 
    4830    916.13685   -6855.6886   -6753.4922   -33.700685    21906.728    8.0172377 
    4840    898.93404   -6853.3944   -6753.1169    445.47284    21894.361     8.035105 
    4850    887.19851   -6851.6809   -6752.7125    814.73824    21882.457    8.0512488 
    4860    896.12593   -6852.2251   -6752.2609    645.20709     21871.46    8.0701174 
    4870    890.92161   -6851.1339   -6751.7502    911.36371    21861.283    8.0997831 
    4880    904.64924   -6852.1061   -6751.1912    1355.3955    21852.235    8.1409906 
    4890    908.96156   -6851.9865   -6750.5905    1902.7381    21844.929    8.1871136 
    4900    913.50355   -6851.8952   -6749.9925    2096.9073    21840.053    8.2309264 
    4910    911.72742   -6851.1129   -6749.4084     1916.812    21837.901    8.2698565 
    4920    903.06949   -6849.5851   -6748.8463     1818.802    21838.302    8.3061918 
    4930    897.16176   -6848.3718   -6748.2921    2041.3986    21841.173    8.3405815 
    4940    890.58345   -6847.0791   -6747.7331    2444.7379    21846.845    8.3725417 
    4950    909.68418   -6848.6523   -6747.1756    2576.1772    21855.832    8.4055769 
    4960    924.87369   -6849.8151    -6746.644    2577.0342    21868.392    8.4405748 
    4970    939.76089   -6851.0159   -6746.1842    2200.9934    21884.523    8.4752126 
    4980    932.44277   -6849.8387   -6745.8233    2246.9362    21903.888    8.5096962 
    4990    938.28627   -6850.2268   -6745.5595    1963.1443    21926.487    8.5447365 
    5000    948.34058   -6851.1818    -6745.393    1676.9703    21952.046    8.5867516 
Loop time of 1622.82 on 16 procs for 3000 steps with 864 atoms

Performance: 0.160 ns/day, 150.261 hours/ns, 1.849 timesteps/s
97.6% CPU use with 16 MPI tasks x 1 OpenMP threads

MPI task timing breakdown:
Section |  min time  |  avg time  |  max time  |%varavg| %total
---------------------------------------------------------------
Pair    | 971.94     | 1296.7     | 1613.8     | 530.7 | 79.90
Bond    | 0.00023746 | 0.00063084 | 0.0014248  |   0.0 |  0.00
Neigh   | 0.030395   | 0.041374   | 0.054244   |   3.7 |  0.00
Comm    | 7.3974     | 236.77     | 612.37     |1195.5 | 14.59
Output  | 1.1071     | 1.1103     | 1.1576     |   1.2 |  0.07
Modify  | 0.19878    | 88.187     | 169.4      | 735.2 |  5.43
Other   |            | 0.01232    |            |       |  0.00

Nlocal:        54.0000 ave          70 max          42 min
Histogram: 2 1 3 1 1 3 3 0 1 1
Nghost:        475.000 ave         528 max         420 min
Histogram: 1 3 2 1 1 1 1 3 1 2
Neighs:         0.00000 ave           0 max           0 min
Histogram: 16 0 0 0 0 0 0 0 0 0
FullNghs:      2135.38 ave        3292 max        1381 min
Histogram: 3 2 2 0 2 3 2 1 0 1

Total # of neighbors = 34166
Ave neighs/atom = 39.543981
Ave special neighs/atom = 0.0000000
Neighbor list builds = 300
Dangerous builds = 300
Setting up Verlet run ...
  Unit style    : metal
  Current step  : 5000
  Time step     : 0.001
Per MPI rank memory allocation (min/avg/max) = 8.898 | 8.906 | 8.914 Mbytes
Step Temp PotEng TotEng Press Volume c_msd[4] 
    5000    948.34058   -6851.1818    -6745.393    1676.9703    21952.046    8.5867516 
    5010     928.5851     -6849.03    -6745.445    2251.0881    21953.309    8.6136904 
    5020    885.97551   -6844.3839    -6745.552    2551.4732    21957.589    8.6399221 
    5030     888.3122   -6844.7459   -6745.6534    1963.6023     21965.21     8.654909 
    5040    909.62618   -6847.1992    -6745.729    1053.8544    21975.451    8.6589229 
    5050     926.5838   -6849.1893   -6745.8275    608.90956    21987.193    8.6601222 
    5060    942.41239   -6851.1243   -6745.9967    354.96077    21999.804    8.6671652 
    5070    951.01809   -6852.3639   -6746.2764   -51.114289    22012.901    8.6810384 
    5080    952.68484    -6852.979   -6746.7056   -128.95372    22026.014    8.6949623 
    5090     911.4685   -6848.9466   -6747.2709    578.22896    22039.098    8.7082053 
    5100    885.28064   -6846.6458   -6747.8914     1039.852    22052.984     8.725611 
    5110    895.26512    -6848.396   -6748.5278    737.82981    22068.249    8.7479858 
    5120    898.76995   -6849.4375   -6749.1783    203.83465    22084.549    8.7708233 
    5130    897.42782   -6849.9576   -6749.8482    10.129181    22101.216    8.7945268 
    5140    885.81095   -6849.3344   -6750.5209    224.56324    22117.997    8.8196277 
    5150    867.68226    -6847.946   -6751.1547    450.13416    22135.162     8.847478 
    5160    850.37752   -6846.5627   -6751.7018    271.70385    22152.953    8.8768242 
    5170    844.44165   -6846.3229   -6752.1242    125.47802     22171.18    8.9015625 
    5180    870.03045    -6849.482   -6752.4288   -3.4844223    22189.631    8.9199184 
    5190    907.35403   -6853.8879   -6752.6712   -477.71891    22208.088    8.9350529 
    5200    898.07423    -6853.084   -6752.9025   -858.39128    22225.972    8.9468335 
    5210     874.3052   -6850.6421    -6753.112   -1243.6931    22242.736    8.9544072 
    5220    867.11559   -6849.9841    -6753.256   -1654.1978    22257.842    8.9593395 
    5230    864.44865   -6849.7582   -6753.3277   -1475.4968    22270.783     8.961608 
    5240    855.74029   -6848.7802   -6753.3211   -1253.6464    22281.729    8.9579705 
    5250    861.30436   -6849.3078    -6753.228   -1826.4635    22290.881    8.9485792 
    5260    850.95557   -6847.9709   -6753.0455   -2117.0344    22297.581    8.9364828 
    5270     846.8667   -6847.2374   -6752.7682    -2010.269    22301.417    8.9211361 
    5280    868.22802   -6849.2414   -6752.3892   -1994.1033    22302.457    8.9054017 
    5290    877.09477   -6849.7688   -6751.9276   -1644.9625    22300.788    8.8931129 
    5300    899.51864   -6851.7654   -6751.4228   -1215.3908    22296.829    8.8831832 
    5310    895.28755   -6850.7762   -6750.9055   -484.44703    22291.196    8.8742716 
    5320    879.43389   -6848.5008   -6750.3987    118.12411    22284.843    8.8730328 
    5330     878.1908   -6847.8375    -6749.874    174.54141    22278.563    8.8896253 
    5340    896.32721    -6849.327   -6749.3403   -116.16519     22272.46    8.9203239 
    5350    902.88749   -6849.5542   -6748.8358   -339.99229    22266.191     8.951869 
    5360     898.0359   -6848.5716   -6748.3944   -409.73226    22259.454    8.9743243 
    5370    899.04158   -6848.3197   -6748.0303   -728.12158    22252.068    8.9877305 
    5380    887.61366   -6846.7465   -6747.7319   -978.32608     22243.65      8.99938 
    5390    902.15392   -6848.1318   -6747.4952   -1357.5493    22233.804    9.0115129 
    5400     920.9277   -6850.0632   -6747.3323   -1228.4887    22222.069    9.0215791 
    5410    903.19133   -6847.9899   -6747.2375   -280.83957    22208.669    9.0245913 
    5420    903.44012   -6847.9592   -6747.1791    213.41014    22194.733    9.0168299 
    5430    915.02225   -6849.2174   -6747.1452    332.13519    22180.942    9.0056156 
    5440    911.29712   -6848.8002   -6747.1437    593.55494    22167.527    8.9942901 
    5450    908.16013   -6848.4712   -6747.1646    752.09271    22154.814    8.9843409 
    5460    897.46266   -6847.3044   -6747.1911    733.95698    22143.017    8.9841926 
    5470    899.56872   -6847.5672    -6747.219    828.03811    22132.157    9.0009394 
    5480    907.53142   -6848.4835    -6747.247    942.50297    22122.356     9.027395 
    5490    903.33034   -6848.0467   -6747.2788    1041.3808    22113.776    9.0496735 
    5500    927.08176     -6850.75   -6747.3326    1161.1484    22106.568    9.0614267 
    5510    932.38541   -6851.4517   -6747.4427    1429.9953    22100.901    9.0666534 
    5520     911.6955   -6849.3136   -6747.6126    1932.4766    22097.182    9.0712709 
    5530    904.85705   -6848.7566   -6747.8184    1995.7403    22096.016    9.0782356 
    5540    906.20739   -6849.1411   -6748.0523    2003.3429    22097.564    9.0898159 
    5550     901.9813   -6848.9143   -6748.2969    2310.7867    22101.925    9.1043891 
    5560    920.05977   -6851.2079   -6748.5739    1926.9351    22109.422    9.1201129 
    5570    934.34956    -6853.141   -6748.9129    1427.0187    22119.638    9.1370108 
    5580    920.42741   -6852.0063   -6749.3313    1560.4673    22132.041    9.1590197 
    5590     904.4009    -6850.684   -6749.7967    1404.4436    22146.706    9.1890121 
    5600    900.39007   -6850.7154   -6750.2755    1068.1955    22163.469    9.2240901 
    5610    881.08715   -6849.0262   -6750.7396    756.95117    22181.925    9.2570057 
    5620    870.11058   -6848.2168   -6751.1546    364.75345    22201.655    9.2840226 
    5630    879.93027   -6849.6614   -6751.5039   -483.17806    22222.059    9.3104378 
    5640    868.10907   -6848.6403   -6751.8015    -992.8995    22242.091    9.3382288 
    5650    853.56669   -6847.2385   -6752.0218   -1424.1538    22260.999    9.3645533 
    5660    869.57414   -6849.1659   -6752.1636   -1905.9233    22278.135    9.3918268 
    5670    859.12653   -6848.0609   -6752.2241   -1938.0373    22292.881    9.4295506 
    5680    858.94625   -6848.0199   -6752.2031   -2108.6314    22305.078    9.4776004 
    5690    867.48057   -6848.8552   -6752.0865   -2310.0037    22314.487    9.5236042 
    5700    881.41777   -6850.2145    -6751.891   -2461.0175    22320.778    9.5572093 
    5710    884.85283   -6850.3537    -6751.647   -2510.2366    22323.717    9.5807161 
    5720    874.88302   -6848.9579   -6751.3634   -2447.8376    22323.199     9.600979 
    5730    880.72171   -6849.2671   -6751.0213   -2131.2829    22319.293    9.6254539 
    5740    884.72963   -6849.3009    -6750.608   -1511.6617    22312.409    9.6606996 
    5750    879.09419   -6848.1903    -6750.126   -764.62707    22303.361     9.704445 
    5760    889.06811   -6848.7486   -6749.5717   -411.10836    22293.088    9.7472028 
    5770    881.83893    -6847.314   -6748.9436    30.723856    22282.158    9.7876731 
    5780    861.75999   -6844.3802   -6748.2495    172.65271    22271.115    9.8286113 
    5790    869.91806   -6844.5263   -6747.4856   -205.49988    22260.128     9.868552 
    5800    860.24003   -6842.6144   -6746.6533   -134.74088    22248.829    9.9075177 
    5810    871.12201   -6842.9706   -6745.7956   -14.198466    22237.225    9.9434498 
    5820     887.0281   -6843.8897   -6744.9403   -3.9773109    22225.459    9.9743936 
    5830    916.69692   -6846.4144   -6744.1555    426.69274    22213.602     9.997792 
    5840    949.18883   -6849.3926   -6743.5092    1112.6565     22202.23    10.010859 
    5850    970.10519   -6851.2779   -6743.0612     1286.325    22192.196    10.021559 
    5860    990.96981   -6853.3963   -6742.8521    1091.3228     22183.77    10.043262 
    5870    977.35362   -6851.8914   -6742.8661    1181.1544    22176.793    10.080831 
    5880    946.37943   -6848.6157   -6743.0457      1368.01    22171.372    10.133555 
    5890    937.64072   -6847.8996   -6743.3044    1167.8673    22167.737    10.197673 
    5900    935.01574   -6847.9202   -6743.6178    911.04203    22165.644    10.268773 
    5910     905.4197   -6844.9528   -6743.9518    1243.0177    22164.868    10.345271 
    5920    896.46875   -6844.2747   -6744.2722    1331.2146    22165.757    10.417354 
    5930    884.95637   -6843.2746   -6744.5564    1641.7607    22168.539     10.47906 
    5940    893.57537    -6844.468   -6744.7883    1648.1154    22173.603    10.530823 
    5950     941.7749   -6850.0802   -6745.0238    829.58992    22180.896    10.574499 
    5960    935.70989   -6849.7001   -6745.3202    889.94861    22189.598    10.618391 
    5970    903.03972   -6846.4135    -6745.678    1540.0263    22199.751    10.670084 
    5980    875.09971    -6843.643   -6746.0244     1998.688    22212.204    10.738207 
    5990    875.23461   -6843.9455   -6746.3118     1652.605    22227.566    10.823116 
    6000    872.96367   -6843.9106   -6746.5301    1215.1119    22245.506    10.918363 
    6010    862.25039   -6842.8672   -6746.6819    916.78126    22265.482    11.010341 
    6020    869.22386   -6843.7253    -6746.762    537.05701    22287.089    11.094564 
    6030    872.83861   -6844.1419   -6746.7755    324.62599    22309.855    11.174652 
    6040     852.5821   -6841.8195   -6746.7127    308.52576    22333.523    11.248269 
    6050     870.5513   -6843.6741   -6746.5628   -507.63005    22357.936    11.310041 
    6060    878.29327   -6844.2874   -6746.3124   -1418.9868    22382.071    11.361905 
    6070    874.08394   -6843.4978   -6745.9924   -1815.6524      22404.7     11.41392 
    6080    885.59282   -6844.3999   -6745.6107   -2027.4179    22425.172    11.469303 
    6090    885.84288   -6843.9947   -6745.1776   -2258.5398    22443.105    11.526194 
    6100    894.32643   -6844.4713   -6744.7078   -2555.9969    22458.116    11.583621 
    6110    889.43986   -6843.4174   -6744.1991   -2556.2054    22469.792    11.639903 
    6120    881.03815   -6841.9352    -6743.654   -2278.1077    22478.073    11.694385 
    6130    910.34382   -6844.6188   -6743.0686   -2262.1639    22483.199    11.750204 
    6140    902.66197    -6843.154   -6742.4607   -1688.2706    22485.271    11.806925 
    6150    902.25925   -6842.5146   -6741.8662   -1202.4168    22484.966    11.853907 
    6160    919.25463   -6843.8181   -6741.2738   -1222.3672    22482.888    11.892526 
    6170     900.8099   -6841.2098   -6740.7231   -1004.4699    22479.093      11.9357 
    6180    898.51088   -6840.4376   -6740.2074   -963.77437    22473.809    11.984245 
    6190    912.16163   -6841.4689   -6739.7159   -1096.9158    22467.072    12.029981 
    6200    897.39089   -6839.3661   -6739.2608    -817.4048    22458.775    12.066531 
    6210    911.73649    -6840.549   -6738.8434   -687.43975    22449.199     12.09565 
    6220    930.56503   -6842.2795   -6738.4736   -630.59251    22438.538    12.123731 
    6230    939.13643   -6842.9537   -6738.1916   -549.24999    22426.879    12.151087 
    6240    948.19684   -6843.7912   -6738.0184   -300.72731    22414.351    12.176276 
    6250    946.30906   -6843.5276   -6737.9654   -50.412894     22401.28    12.196992 
    6260    938.03812   -6842.6592   -6738.0196     71.16462        22388    12.211635 
    6270    940.79248    -6843.103   -6738.1562    135.43759    22374.681    12.220566 
    6280    947.62249   -6844.0562   -6738.3475    268.35502    22361.446    12.227887 
    6290    983.44285   -6848.3532   -6738.6487   -29.609156    22348.395    12.232967 
    6300    975.30434   -6847.8746   -6739.0779   -232.09606    22335.212      12.2334 
    6310    963.95602   -6847.1485   -6739.6177   -471.08725    22321.562     12.23124 
    6320    944.84506   -6845.5846   -6740.1858    -116.2262    22307.227    12.232101 
    6330    958.58315   -6847.6861   -6740.7547    25.692136     22292.57    12.239464 
    6340    941.16538   -6846.3046   -6741.3162    378.72174    22277.849    12.254457 
    6350    887.05425   -6840.7369   -6741.7847     821.9821    22263.549    12.276526 
    6360    883.33264   -6840.6747   -6742.1376    94.541679    22250.098    12.302226 
    6370    899.80602   -6842.7815   -6742.4068   -768.05564    22236.656      12.3334 
    6380    891.99866   -6842.1308    -6742.627   -771.20263    22222.156    12.364901 
    6390    913.72929   -6844.7475   -6742.8196   -951.11498    22206.442    12.391445 
    6400    937.41765   -6847.6106   -6743.0402   -1167.1818    22189.282    12.415958 
    6410    918.58763   -6845.7816   -6743.3118   -731.70416    22170.455    12.440234 
    6420    905.88216   -6844.6486   -6743.5961   -456.91197    22150.456    12.467396 
    6430    917.93845   -6846.2807   -6743.8833   -226.42103    22129.654      12.5029 
    6440    926.76201   -6847.5676   -6744.1859    406.58968    22108.437    12.537478 
    6450    937.63998   -6849.1397   -6744.5445    810.74441      22087.6    12.554995 
    6460    934.73925   -6849.2387   -6744.9672    851.08847    22067.694    12.552391 
    6470     944.0316   -6850.7855   -6745.4773    1092.5041    22048.854    12.535133 
    6480    923.52522   -6849.0859   -6746.0653    1907.0393    22031.444    12.518825 
    6490    890.26313   -6845.9614   -6746.6512    2549.4706    22016.505    12.523177 
    6500    895.24095   -6847.0579   -6747.1924    2330.0898    22004.835    12.559447 
    6510    909.59459    -6849.176   -6747.7094    2035.5676    21996.254    12.618975 
    6520    902.38634    -6848.887   -6748.2244    2062.0254    21990.434    12.682997 
    6530    886.40064   -6847.5887   -6748.7094     1724.658    21987.332    12.738899 
    6540    891.85541   -6848.6324   -6749.1446    622.58555    21986.465    12.781903 
    6550    895.81937    -6849.462    -6749.532   -248.02706     21986.48    12.814171 
    6560    882.94447   -6848.3722   -6749.8785   -108.13206    21986.295    12.843151 
    6570    868.35196   -6847.0251   -6750.1592    -76.67727    21985.937    12.872354 
    6580    880.45692   -6848.5882    -6750.372   -464.30843    21985.418    12.905368 
    6590    879.35194    -6848.625   -6750.5319   -356.19197     21984.34    12.950155 
    6600    869.27703   -6847.6072    -6750.638   -40.711204    21982.792    13.003023 
    6610    884.79782   -6849.3939   -6750.6934    90.031072    21981.151    13.052054 
    6620     908.5301   -6852.0738   -6750.7259    135.49577    21979.622    13.096241 
    6630    906.01235   -6851.8405   -6750.7735     166.0667    21978.261    13.135537 
    6640    896.11023   -6850.7926   -6750.8302    216.05043    21977.113    13.160366 
    6650    909.28612   -6852.3185   -6750.8862    208.35014    21976.237    13.170701 
    6660    902.13844   -6851.5739    -6750.939    566.23076    21975.693     13.17526 
    6670    888.35942   -6850.1048    -6751.007    1020.1535    21975.931     13.17755 
    6680    868.19315   -6847.8926   -6751.0444     1097.404    21977.521    13.183562 
    6690     888.6378   -6850.1673   -6751.0384    320.08839     21980.49    13.198621 
    6700    878.76552   -6849.0147    -6750.987    321.16058    21984.044    13.226993 
    6710    863.49829   -6847.2083   -6750.8838    623.04872    21988.101    13.268155 
    6720     907.3004   -6851.9295   -6750.7188    228.37484    21992.943    13.318653 
    6730    912.25276   -6852.2748   -6750.5116   -97.038449    21998.153    13.368575 
    6740    901.68118   -6850.8873   -6750.3034    -141.2238    22003.309    13.405073 
    6750    898.84108   -6850.3338   -6750.0667   -126.58777    22008.307    13.428301 
    6760    896.83546   -6849.8221   -6749.7787    164.46111     22013.21    13.448835 
    6770    897.73301   -6849.5758   -6749.4323     409.0548    22018.357    13.469802 
    6780     911.8424   -6850.7416   -6749.0242    558.74378    22024.083    13.493814 
    6790     914.8087   -6850.6087   -6748.5604    669.45496    22030.631    13.529597 
    6800    905.13574   -6849.0301   -6748.0608    440.45639    22038.101    13.580662 
    6810    885.15561   -6846.2391   -6747.4987    306.01813    22046.257     13.64027 
    6820    873.48647   -6844.2931   -6746.8543    215.81417    22054.899    13.704699 
    6830    879.54287   -6844.2068   -6746.0925   -73.864176    22063.873    13.764033 
    6840    908.69288    -6846.596   -6745.2299   -629.97032    22072.795    13.812457 
    6850    921.56777   -6847.1443   -6744.3421   -1022.1299    22080.966    13.854958 
    6860    897.01036   -6843.5726   -6743.5097   -664.20974     22087.94    13.892875 
    6870    909.88616   -6844.2423   -6742.7431   -625.98448    22094.015     13.92291 
    6880    924.74413   -6845.1894   -6742.0328   -717.25252    22099.286     13.94697 
    6890    912.46854   -6843.2144   -6741.4272   -507.83843    22103.669    13.969669 
    6900    902.75678   -6841.6234   -6740.9196    26.608293    22107.449    13.989426 
    6910    901.09841   -6840.9902   -6740.4714    552.26631    22111.336    14.008975 
    6920    902.65039   -6840.7633   -6740.0713    403.62619     22115.94    14.036366 
    6930    908.07345   -6841.0117   -6739.7148    62.550079    22121.132    14.063701 
    6940    898.83142   -6839.6637   -6739.3977   -108.32987    22126.493    14.083338 
    6950    908.50263   -6840.4549     -6739.11   -246.55078    22131.775    14.100298 
    6960    948.25517     -6844.65   -6738.8707   -635.87512    22136.727    14.118079 
    6970    948.03941   -6844.4881   -6738.7329   -303.18986     22140.98    14.138254 
    6980    933.57911   -6842.8554   -6738.7132   -163.06432    22144.843    14.161319 
    6990    922.91695   -6841.7284   -6738.7757   -524.38874    22148.473    14.182173 
    7000    904.51921    -6839.782   -6738.8815   -696.93714    22151.463    14.197473 
    7010    911.74742   -6840.7169   -6739.0101   -798.26587    22153.541    14.210845 
    7020    916.83756   -6841.4406    -6739.166   -827.04789    22154.565    14.228613 
    7030    916.14636   -6841.5599   -6739.3624   -954.74006    22154.463    14.253422 
    7040    916.35711     -6841.82    -6739.599   -1037.9241    22153.061    14.287301 
    7050    914.73072   -6841.9136    -6739.874   -799.45276    22150.253    14.329417 
    7060    910.20397   -6841.7165   -6740.1818    -283.2203    22146.338     14.37286 
    7070    899.33055   -6840.8307   -6740.5091     273.1116    22142.001    14.410214 
    7080    898.84426   -6841.1165   -6740.8491    5.8702792    22137.872    14.442055 
    7090    907.23847   -6842.3988    -6741.195    -411.4021    22133.697    14.467295 
    7100    920.72503     -6844.28   -6741.5717   -711.60785    22128.919    14.486032 
    7110    905.86248   -6843.0423    -6741.992   -629.73884    22123.156    14.502522 
    7120    881.24917   -6840.7318   -6742.4271   -649.66103    22116.442    14.517392 
    7130    881.00548   -6841.1239   -6742.8464   -1107.9548    22108.706    14.524916 
    7140    889.28232   -6842.4533   -6743.2525   -1309.7241    22099.399     14.51975 
    7150    894.24086   -6843.4168   -6743.6629   -971.16851    22088.239     14.50257 
    7160    904.34221   -6844.9713   -6744.0906    -411.1044    22075.637    14.478877 
    7170    917.16235   -6846.8772   -6744.5663    -154.2278    22062.278    14.453046 
    7180     936.5427   -6849.5986   -6745.1258    -358.8927    22048.492    14.422991 
    7190    953.82667   -6852.2416   -6745.8408   -165.12559     22034.11    14.391326 
    7200    938.72778   -6851.4334    -6746.717    832.16542    22019.446    14.365873 
    7210    932.56934   -6851.7344   -6747.7049    1579.4825    22005.723    14.351667 
    7220    921.18131   -6851.5011   -6748.7419    1561.1609     21993.91    14.348771 
    7230    905.12131   -6850.7038   -6749.7361    1079.2773    21984.015    14.354339 
    7240     881.7153   -6848.9416   -6750.5849    1187.6041    21975.543    14.364626 
    7250    871.34626   -6848.4248   -6751.2249     1478.782     21968.62    14.372245 
    7260    892.20014   -6851.2082   -6751.6819    1082.8815    21963.543    14.373975 
    7270    891.79849   -6851.4896   -6752.0081    546.53136    21959.867    14.373569 
    7280     873.2601   -6849.6389   -6752.2255    549.53098    21956.965    14.370477 
    7290     864.4928   -6848.7729   -6752.3374    515.28986    21954.762    14.369535 
    7300     874.8826   -6849.9547   -6752.3602    158.82909    21953.198     14.37807 
    7310    885.42851   -6851.0946   -6752.3237     -18.9284    21951.878      14.3924 
    7320    890.33804   -6851.5783   -6752.2597   -235.94317     21950.52     14.40531 
    7330    892.66669   -6851.7629   -6752.1846   -474.43906    21948.823    14.410232 
    7340    887.86367   -6851.1434   -6752.1009   -483.60673    21946.494    14.401603 
    7350    886.32267   -6850.8725   -6752.0019   -138.43329    21943.535    14.380917 
    7360    884.71599   -6850.5684    -6751.877    166.32772    21940.338     14.35771 
    7370    883.08996   -6850.2324   -6751.7224      197.902    21937.306    14.336348 
    7380    880.00541   -6849.6968   -6751.5309   -254.62918    21934.442    14.325418 
    7390    890.95549   -6850.6886   -6751.3012   -645.23607    21931.201    14.332243 
    7400    893.04775   -6850.6616   -6751.0407   -324.45129    21927.129      14.3451 
    7410     886.8713   -6849.6938   -6750.7619    268.47988    21922.584    14.351589 
    7420    898.35826    -6850.675   -6750.4618     608.2797    21918.312    14.353067 
    7430    903.15344   -6850.8887   -6750.1405    603.91949    21914.769    14.352953 
    7440     924.3484   -6852.9467   -6749.8343    465.48686    21911.975    14.356219 
    7450    916.55556   -6851.8045   -6749.5614     807.8128    21909.833    14.375953 
    7460    893.95221   -6849.0431   -6749.3214     1506.709    21908.784    14.414866 
    7470    897.53372   -6849.1997   -6749.0785    2048.3396    21909.716    14.463221 
    7480    895.10193   -6848.6737   -6748.8237    2655.8683    21913.447    14.511399 
    7490     886.0668   -6847.3996   -6748.5576    2674.8783    21920.767    14.553515 
    7500    899.99813   -6848.6581    -6748.262    1851.4614    21931.746    14.584401 
    7510    904.04744   -6848.7803   -6747.9324    1013.2728    21945.444    14.602046 
    7520    908.61135    -6848.955    -6747.598    523.05226    21960.814    14.611025 
    7530    900.58209   -6847.7187   -6747.2574    452.21995    21977.259    14.624308 
    7540    905.99671   -6847.9758   -6746.9105    123.38866     21994.57    14.654221 
    7550    903.93886   -6847.3924   -6746.5566    99.117188    22012.421    14.704306 
    7560    915.05925   -6848.2787   -6746.2024    -408.1593    22030.672    14.771966 
    7570    909.77409   -6847.3304   -6745.8437   -961.60271    22048.701    14.848456 
    7580    889.53955   -6844.7105    -6745.481   -1112.4157    22065.793    14.919584 
    7590    901.23673   -6845.6267   -6745.0924   -1217.7475    22081.679    14.977019 
    7600    926.07581   -6847.9922   -6744.6871   -1115.2537    22096.209    15.024309 
    7610    918.56138    -6846.774   -6744.3071   -866.03384    22109.472    15.067434 
    7620    902.64209   -6844.6492   -6743.9581   -794.49368    22121.746    15.117295 
    7630    881.20826   -6841.8928   -6743.5927   -492.08385    22133.182    15.187616 
    7640    887.52465   -6842.1788   -6743.1741   -193.38023     22144.14    15.276027 
    7650    891.72636    -6842.158   -6742.6846   -73.665926        22155    15.364531 
    7660     894.1307   -6841.8786    -6742.137   -328.58595    22165.883    15.440399 
    7670     900.1527   -6841.9474    -6741.534    -250.4871    22176.529    15.512164 
    7680    877.96725   -6838.8185   -6740.8799    238.78109    22187.052    15.587612 
    7690    903.45033   -6840.9494   -6740.1681    -180.6155    22197.933    15.661297 
    7700    931.22596   -6843.2958   -6739.4161   -593.95684    22208.736    15.729744 
    7710    943.97599   -6844.0298   -6738.7278   -561.69113    22218.933    15.799906 
    7720    936.82232    -6842.654     -6738.15   -616.94918    22228.473    15.875156 
    7730    919.73437   -6840.2836   -6737.6858   -760.99734    22237.278    15.944324 
    7740    938.02862   -6841.9413   -6737.3028   -1009.1267    22245.136    16.000344 
    7750    945.35727   -6842.4587   -6737.0027        -1129     22251.72    16.050772 
    7760    958.24813   -6843.7123   -6736.8183   -1311.1348    22256.803    16.104327 
    7770    968.78217   -6844.8305   -6736.7614   -963.94838    22260.199    16.160307 
    7780      961.148   -6844.0682   -6736.8507   -424.04852    22262.309    16.214186 
    7790    946.95036   -6842.7041   -6737.0703   -177.47875    22263.821    16.267964 
    7800    935.08781   -6841.6938   -6737.3834   -175.98851    22265.102    16.324355 
    7810    945.14923   -6843.2108    -6737.778   -588.48108    22266.094    16.383649 
    7820    935.85217   -6842.6387    -6738.243   -940.23434    22266.289    16.447368 
    7830    918.69743   -6841.2171    -6738.735   -1080.3597    22265.217     16.51075 
    7840    926.30743   -6842.5519   -6739.2209   -1343.2019    22262.618    16.566836 
    7850    921.69892   -6842.5197   -6739.7028   -1477.4225    22258.163    16.615503 
    7860    893.96266     -6839.87   -6740.1471   -997.58303    22251.737    16.654104 
    7870    893.81469   -6840.2088   -6740.5024   -455.79398    22243.902    16.682273 
    7880    931.63129   -6844.7186   -6740.7937   -417.12989    22235.336    16.706978 
    7890     940.0816   -6845.9504   -6741.0829   -419.53945    22226.158    16.733546 
    7900    909.11336   -6842.7695   -6741.3565   -115.77949    22216.404    16.765379 
    7910     916.6156   -6843.8497   -6741.5998    192.67439    22206.452    16.801606 
    7920    907.96457   -6843.1044   -6741.8196    869.99562    22196.797    16.840494 
    7930    894.82379   -6841.8299    -6742.011     1067.366     22188.24    16.884365 
    7940    911.95488   -6843.9046   -6742.1746    743.92644    22181.048    16.935799 
    7950    921.66657   -6845.1459   -6742.3326    897.25361     22174.93    16.982446 
    7960    931.64663   -6846.4491   -6742.5225    1127.2477    22170.042    17.012478 
    7970    935.12758   -6847.0815   -6742.7666    908.59065    22166.629    17.030922 
    7980    908.68054   -6844.4116   -6743.0469    1059.3069    22164.524     17.04863 
    7990    896.52132   -6843.3415   -6743.3332    1411.1537    22163.911     17.07567 
    8000    903.41018   -6844.3791   -6743.6023    1022.2737    22165.153    17.120795 
    8010    924.30211   -6846.9952   -6743.8879    -55.31102    22167.729    17.187553 
    8020    905.42805   -6845.2032   -6744.2014   -426.59748    22170.339    17.271797 
    8030    877.60933   -6842.4145   -6744.5159   -150.51471    22172.446    17.363506 
    8040    880.40516   -6842.9945    -6744.784   -426.66879    22174.288    17.453724 
    8050    901.08066   -6845.5357   -6745.0188   -871.75137    22175.553    17.537014 
    8060    902.65099    -6845.947   -6745.2549   -996.54033     22175.66    17.609725 
    8070    877.67221    -6843.395   -6745.4893   -415.35098    22174.482    17.680992 
    8080    859.69791   -6841.5685   -6745.6679    170.80603    22172.733    17.762384 
    8090    882.23307   -6844.1979   -6745.7835   -38.351013    22171.103     17.84766 
    8100    883.80656   -6844.4397   -6745.8498    127.90065    22169.492    17.927181 
    8110    888.95141   -6845.0508    -6745.887    347.46857    22168.058    17.996296 
    8120    902.85495   -6846.6205   -6745.9056    337.61896    22167.051    18.057501 
    8130    902.00816   -6846.5403   -6745.9199    540.41931    22166.556    18.118443 
    8140    916.33008   -6848.1719   -6745.9539    409.27283    22166.751    18.178416 
    8150    904.90631   -6846.9577   -6746.0141    774.68093    22167.604    18.234317 
    8160    885.54936   -6844.8775   -6746.0932    1133.0881    22169.522    18.288295 
    8170    872.75394    -6843.504    -6746.147    1334.7904    22172.998    18.339073 
    8180    878.14166   -6844.1109   -6746.1529    1227.8708    22178.319    18.377853 
    8190    887.06547   -6845.0603   -6746.1068    1023.7511    22185.382    18.406362 
    8200    892.33492   -6845.5638   -6746.0225      775.103    22193.903    18.439191 
    8210    900.30796   -6846.3409   -6745.9102    455.94272    22203.556    18.488542 
    8220    914.54088   -6847.8006   -6745.7822    242.87579    22213.952    18.559424 
    8230    912.69986   -6847.4685   -6745.6555    87.251393     22224.78    18.649406 
    8240    900.96088   -6846.0371   -6745.5336     282.5084    22235.886    18.749288 
    8250    907.06643   -6846.5892   -6745.4046    394.08501    22247.478    18.852834 
    8260    923.09677   -6848.2481   -6745.2752   -221.66614    22259.622    18.952731 
    8270    911.37699   -6846.8298   -6745.1643   -469.32565    22271.635    19.038589 
    8280    882.55473   -6843.5076   -6745.0573   -151.93872    22283.166    19.105091 
    8290     890.6765   -6844.2748   -6744.9185   -195.97602    22294.526    19.156559 
    8300    895.36618   -6844.6113   -6744.7319   -235.10908    22305.721    19.201065 
    8310    883.63976   -6843.0781   -6744.5068   -140.17294    22316.695    19.248466 
    8320    876.87352   -6842.0402   -6744.2236   -126.82856     22327.56    19.305834 
    8330    882.10361   -6842.2518   -6743.8518   -177.54644    22338.344    19.373979 
    8340    894.75071   -6843.2074   -6743.3966   -279.95894    22348.954    19.448566 
    8350     889.5944   -6842.1138   -6742.8782   -235.10986    22359.287    19.524125 
    8360    881.80886   -6840.6673   -6742.3002   -290.25005    22369.387     19.59754 
    8370    914.71919   -6843.7014   -6741.6631   -790.71754     22379.12    19.668911 
    8380    915.79664   -6843.1606   -6741.0021   -873.49943    22387.896    19.738525 
    8390    907.71822   -6841.6343    -6740.377   -433.48564    22395.603     19.79638 
    8400    930.02064   -6843.5225   -6739.7773   -628.70907    22402.677    19.830175 
    8410     947.3398   -6844.9102    -6739.233   -924.47764    22408.926    19.848044 
    8420    959.05775   -6845.7829   -6738.7986   -1079.5187    22413.939     19.87235 
    8430    963.61499   -6846.0068   -6738.5141     -1089.44    22417.495    19.911206 
    8440    926.90433   -6841.7676     -6738.37   -775.65954    22419.596    19.959577 
    8450    897.94276   -6838.4687   -6738.3019    -534.1473    22420.609    20.015238 
    8460     894.0513   -6837.9644   -6738.2317   -467.95699    22420.866    20.069132 
    8470    903.19621   -6838.9066   -6738.1537   -505.76175    22420.464    20.108004 
    8480    913.37568   -6839.9683   -6738.0798   -551.33148    22419.352    20.140054 
    8490    930.69218   -6841.8556   -6738.0355   -507.80448    22417.473    20.171911 
    8500    944.33003   -6843.4015     -6738.06   -391.75736    22414.875    20.197237 
    8510    940.92163    -6843.147   -6738.1857    -190.6434    22411.717    20.213058 
    8520    935.06519   -6842.7255   -6738.4176    114.65198    22408.289    20.228669 
    8530     926.3726   -6842.0838   -6738.7455    432.23084    22405.002    20.262136 
    8540     924.3282   -6842.2752    -6739.165     428.4101    22402.262    20.314776 
    8550    926.64428   -6843.0525   -6739.6839     169.9741    22400.059     20.37249 
    8560    917.05906   -6842.6007   -6740.3014    386.60463    22398.141    20.421187 
    8570    916.54841   -6843.2477   -6741.0053    547.37246    22396.733    20.455406 
[...]
   22890    883.80356   -6845.9908   -6747.4012   -503.98831    22350.816    69.753477 
   22900    890.88173   -6846.5502    -6747.171    -341.0401    22340.921    69.806978 
   22910    874.57806   -6844.4617   -6746.9012   -116.91639    22330.556    69.868229 
   22920    890.23354   -6845.9001   -6746.5932   -412.86072    22319.959    69.927308 
   22930    875.19327   -6843.8569   -6746.2278    -476.8808    22308.845    69.972523 
   22940    891.01734   -6845.2095   -6745.8152   -726.09725    22297.035    70.003486 
   22950    922.38356   -6848.2496   -6745.3563   -941.66012    22284.225    70.032598 
   22960    932.41356   -6848.9218   -6744.9096   -620.76824    22270.165    70.064893 
   22970    924.23075   -6847.5999   -6744.5006    344.52613    22255.338    70.099259 
   22980    930.21128   -6847.8953   -6744.1288    1022.2427    22240.941    70.131303 
   22990    938.29531   -6848.4628   -6743.7945    1423.7159    22227.931    70.152098 
   23000    935.42594   -6847.8689   -6743.5207    1613.4573    22216.849    70.162318 
   23010    917.27287   -6845.6104   -6743.2873    1785.5096    22208.001     70.18233 
   23020    926.04551    -6846.375   -6743.0733    1426.5142    22201.539    70.225807 
   23030    923.91037   -6845.9326    -6742.869    1312.5505    22197.078    70.285132 
   23040    912.09368   -6844.4119   -6742.6665    1128.7447    22194.408    70.336047 
   23050    908.91001   -6843.8249   -6742.4346    630.58903    22193.269    70.369024 
   23060    912.50173   -6843.9441   -6742.1531    -51.71052    22192.985    70.390878 
   23070    916.32704   -6844.0353   -6741.8176   -116.00631    22192.707    70.404864 
   23080    903.55927   -6842.2161   -6741.4227    735.38194    22192.401    70.416129 
   23090    900.14911   -6841.3624   -6740.9494    1192.6145     22193.06    70.436087 
   23100    926.32929   -6843.7299   -6740.3965    1383.5638    22195.354    70.468551 
   23110    946.59828   -6845.4083   -6739.8138    1277.1447    22199.535    70.515652 
   23120    954.45483   -6845.7526   -6739.2817    747.57376    22205.432    70.574386 
   23130    950.72559   -6844.9006   -6738.8457    480.93875    22212.427    70.653571 
   23140     957.4361   -6845.3183   -6738.5148    282.72108    22220.125    70.744281 
   23150    970.48959   -6846.5726   -6738.3131     473.4005    22228.305    70.836946 
   23160    945.00384   -6843.6726    -6738.256    687.79824    22237.173     70.93981 
   23170    936.54527   -6842.7952   -6738.3222    541.14374    22246.995    71.061034 
   23180     934.2462   -6842.6911   -6738.4745    384.48791    22257.649     71.19353 
   23190    954.50551   -6845.2055    -6738.729   -127.76234    22268.846    71.334769 
   23200    942.44945   -6844.2343   -6739.1026   -581.72359    22279.939    71.483703 
   23210    910.75891   -6841.1678   -6739.5712   -920.09767    22290.314    71.628684 
   23220    887.97648   -6839.1204   -6740.0653    -1054.978    22299.508    71.750106 
   23230    884.33249   -6839.1892   -6740.5405   -1101.5112    22307.316    71.840678 
   23240     895.8475   -6840.9248   -6740.9917   -1538.9604    22313.583    71.906968 
   23250     900.7273   -6841.9163   -6741.4389   -1728.5971    22317.784    71.960892 
   23260    908.84317   -6843.2783   -6741.8954      -1564.9    22319.658    72.020376 
   23270    911.16326   -6844.0147   -6742.3731   -1363.6475    22319.365    72.095149 
   23280    901.47448   -6843.4293   -6742.8685   -1172.6197     22317.18    72.173115 
   23290    890.51284   -6842.6992   -6743.3611    -1321.791    22313.298    72.244247 
   23300    871.00521   -6840.9731   -6743.8112     -1265.03    22307.591    72.308617 
   23310    870.43105   -6841.2949    -6744.197   -1368.7208    22300.037    72.366147 
   23320    871.89872    -6841.781   -6744.5193   -1161.1428    22290.549    72.417645 
   23330    867.03922   -6841.4881   -6744.7686   -442.47321    22279.448    72.478621 
   23340    868.22581    -6841.792   -6744.9401   -96.583106    22267.579    72.555271 
   23350    873.63202   -6842.4896   -6745.0346    163.65178    22255.484    72.624884 
   23360    886.89646   -6844.0125   -6745.0779   -95.679196    22243.433    72.679432 
   23370    887.30188   -6844.0707   -6745.0908   -588.26311    22231.134    72.731717 
   23380    910.07448   -6846.6199   -6745.0997   -1148.8287    22217.914    72.789683 
   23390    913.66539   -6847.0461   -6745.1253   -994.92744    22203.071    72.854446 
   23400    896.66044   -6845.1899   -6745.1661   -105.01346    22186.806    72.919387 
   23410    905.37056   -6846.2053   -6745.2099      609.985    22170.207    72.983711 
   23420    903.69112   -6846.0625   -6745.2544    1367.7682    22154.299    73.033862 
   23430    900.20526   -6845.7377   -6745.3184    1974.6742    22140.098    73.045421 
   23440    884.02227   -6843.9934   -6745.3794    2168.0199    22128.409    73.031746 
   23450      885.467   -6844.1976   -6745.4225    2024.2344     22119.54      73.0248 
   23460    883.22687   -6843.9617   -6745.4364    1738.4436    22113.339    73.033739 
   23470    886.18198   -6844.2761   -6745.4212     1561.047    22109.465    73.060881 
   23480    901.27264   -6845.9128   -6745.3744    1506.7204    22107.699    73.114208 
   23490    918.30943   -6847.7623   -6745.3235    1848.1938     22108.04    73.195755 
   23500     920.7004   -6848.0078   -6745.3023    2194.5341    22110.948    73.284856 
   23510    912.59011   -6847.1391   -6745.3383    1994.3767    22116.853    73.346435 
   23520    882.72722    -6843.872   -6745.4025    1491.9819     22125.57    73.378092 
   23530    868.55208   -6842.3284   -6745.4401    697.80556    22136.434    73.402992 
   23540    871.59577   -6842.6308    -6745.403    371.72152    22148.492    73.449412 
   23550    882.47919   -6843.7357   -6745.2938    342.08247    22161.279    73.533163 
   23560    875.90719   -6842.8207   -6745.1119    546.55359      22174.8    73.649204 
   23570    893.35714   -6844.5219   -6744.8666   -46.356413    22189.182    73.772382 
   23580    903.30836    -6845.321   -6744.5556   -788.74057    22203.733    73.875046 
   23590    900.06911   -6844.6083   -6744.2043   -967.09623    22217.523    73.954455 
   23600    901.20092   -6844.3561   -6743.8258   -888.72752    22230.231    74.025525 
   23610    900.63982   -6843.8839   -6743.4162   -883.81184     22241.91    74.099118 
   23620    902.55835   -6843.6595   -6742.9777   -1131.6344    22252.539    74.174463 
   23630    907.62962   -6843.7633   -6742.5158   -1393.4925    22261.787    74.250483 
   23640    902.01695   -6842.6555   -6742.0341   -931.11023    22269.374    74.317964 
   23650    908.44904   -6842.8898   -6741.5509   -485.15622    22275.794    74.377542 
   23660    904.64808   -6841.9751   -6741.0602   -97.038093    22281.658    74.449978 
   23670    910.50802   -6842.1431   -6740.5745    418.01524    22287.513    74.566435 
   23680    925.36914   -6843.3296   -6740.1032    863.97965    22294.046    74.727823 
   23690    916.86727    -6841.948   -6739.6701    1148.6421    22301.919     74.91831 
   23700    924.43089   -6842.4053   -6739.2836    721.10403    22311.484    75.100473 
   23710    926.57528   -6842.2958   -6738.9349    158.33827    22322.266    75.243113 
   23720    916.97835   -6840.9277   -6738.6374   -445.24607    22333.499    75.338981 
   23730    916.10396   -6840.5681   -6738.3754   -807.61096    22344.387    75.423651 
   23740    936.48821   -6842.6228   -6738.1562   -800.19069    22354.426    75.528998 
   23750    910.31047   -6839.5333   -6737.9868   -598.12486    22363.591    75.644896 
   23760    909.99015   -6839.3694   -6737.8586   -781.68232    22372.075    75.737969 
   23770    937.80886    -6842.366    -6737.752   -1040.2098    22379.639    75.784482 
   23780    945.21111   -6843.1614   -6737.7217   -932.80784    22385.949      75.7863 
   23790     914.2191   -6839.7684   -6737.7859   -372.14748    22391.148    75.768979 
   23800    907.55967   -6839.1386    -6737.899    75.167903    22395.933    75.750126 
   23810    929.08808   -6841.6962   -6738.0551     353.0099    22400.926    75.739451 
   23820    924.80741   -6841.4461   -6738.2825    595.01306    22406.532    75.757266 
   23830    939.04555   -6843.3644   -6738.6125     293.5261    22413.022    75.812609 
   23840    929.88725   -6842.7944   -6739.0641    343.21337    22420.131    75.906628 
   23850    914.94246   -6841.6893   -6739.6261    411.12522    22427.904     76.02392 
   23860    929.03016   -6843.9423   -6740.3076   -196.71043    22436.372    76.150576 
   23870    895.92645   -6841.0201   -6741.0782   -473.97134     22444.83    76.285788 
   23880    876.96133   -6839.6959   -6741.8695   -652.17898     22452.84    76.405645 
   23890    889.44597    -6841.851    -6742.632   -1358.2639    22460.047    76.491831 
   23900    909.77549   -6844.8812   -6743.3944   -1638.6462    22465.571     76.55795 
   23910    912.63333   -6845.9695   -6744.1638    -1732.463    22468.946    76.617512 
   23920    907.43822   -6846.1434   -6744.9173   -1912.6995    22469.945    76.649886 
   23930    899.76821   -6845.9898   -6745.6193   -2151.4948    22468.246     76.64329 
   23940    897.63642    -6846.383   -6746.2503   -2634.4316    22463.409    76.610764 
   23950    885.59803   -6845.5872   -6746.7974     -2781.61    22454.749    76.568046 
   23960    877.84675   -6845.1766   -6747.2514   -2748.4301    22441.928    76.526334 
   23970     855.0183   -6842.9627   -6747.5841   -2627.9056    22424.906    76.484637 
   23980    870.36499   -6844.8947   -6747.8042   -2754.1525    22403.685    76.433423 
   23990     883.3947   -6846.4752   -6747.9312   -2367.9852    22378.122    76.373567 
   24000    900.58691   -6848.4803   -6748.0185   -1769.7623    22348.626    76.305351 
   24010    902.09385   -6848.7159    -6748.086   -769.24616    22316.039    76.240891 
   24020    898.59072   -6848.3768   -6748.1376    416.37701     22281.69    76.210344 
   24030    876.81971   -6845.9537   -6748.1431    1706.5231    22247.219    76.211438 
   24040    868.17079   -6844.9198    -6748.074     2596.987    22214.379    76.201849 
   24050    899.48192   -6848.2872   -6747.9486    2834.7463    22184.435    76.156754 
   24060    911.73692    -6849.524   -6747.8184    2833.0632    22157.838    76.079158 
   24070    903.42549   -6848.4977   -6747.7192    2604.3839    22134.646    75.989001 
   24080    900.04948   -6848.0383   -6747.6364    2324.9683    22114.621    75.908035 
   24090    892.28553   -6847.0957   -6747.5599    2295.5158    22097.473     75.85202 
   24100    878.60132   -6845.4723    -6747.463    2618.7241    22083.244    75.831132 
   24110    900.87205   -6847.8428   -6747.3492    2783.9338     22072.33    75.849694 
   24120    909.96365   -6848.7316   -6747.2237    2929.6277    22065.045    75.889681 
   24130    917.17118   -6849.4495   -6747.1377    2854.7134    22061.605    75.951656 
   24140    897.77894   -6847.2272   -6747.0787    3372.8126    22062.129    76.042488 
   24150    919.90328   -6849.6757   -6747.0591    2983.3464    22067.152    76.151785 
   24160     915.5157   -6849.1993   -6747.0722    2109.9445    22076.314      76.2615 
   24170    901.14341   -6847.6485   -6747.1246    1536.8489    22088.593    76.374594 
   24180    899.78247    -6847.555   -6747.1829    1016.4578     22103.23    76.504385 
   24190    910.34196   -6848.7979   -6747.2478     271.8406    22119.516    76.643581 
   24200    892.57859   -6846.8826   -6747.3141   -43.330785    22136.542    76.776651 
   24210    895.92808   -6847.3336   -6747.3915   -405.34386    22153.801    76.907108 
   24220    876.57761   -6845.2316    -6747.448   -278.86819    22170.899     77.03731 
   24230    884.66203   -6846.1559   -6747.4705   -119.04455    22187.905    77.158587 
   24240     891.6937    -6846.919   -6747.4492    373.31983    22205.067    77.280706 
   24250    862.85271   -6843.6454   -6747.3928    1517.9593    22223.134    77.409962 
   24260    859.88607   -6843.1848   -6747.2632    1464.3939    22243.439    77.524046 
   24270    890.90001   -6846.3864   -6747.0052    523.24659    22266.031    77.613298 
   24280     914.3092   -6848.6257   -6746.6331   -704.42829    22289.682     77.69824 
   24290    899.70634   -6846.5536   -6746.1901   -1388.6565    22312.792    77.790909 
   24300    890.68363     -6845.04   -6745.6829   -1260.4722    22334.416    77.890116 
   24310    892.21745   -6844.6181   -6745.0899   -865.98073    22354.629    77.990792 
   24320    895.02721   -6844.2481   -6744.4065   -851.70256    22373.866    78.082265 
   24330    894.65762   -6843.4516   -6743.6512   -679.22048    22392.196    78.156688 
   24340    886.43721   -6841.7336   -6742.8502    62.213414    22409.918    78.229863 
   24350    901.35218   -6842.5701   -6742.0229 -0.012671505    22427.861     78.31677 
   24360    923.74509   -6844.2397   -6741.1946   -696.27281     22445.96    78.421098 
   24370    909.38118   -6841.8777   -6740.4348   -668.40211    22463.438    78.550715 
   24380    900.50178   -6840.2175   -6739.7652   -588.39176    22480.206    78.710535 
   24390    901.86515    -6839.753   -6739.1486   -521.04713    22496.363     78.86882 
   24400    899.12873   -6838.8769   -6738.5777   -320.06177    22512.017    78.985473 
   24410    911.24685     -6839.71    -6738.059   -618.67511    22527.344    79.069201 
   24420    921.63579   -6840.4026   -6737.5927   -1008.7692    22541.988    79.132279 
   24430    939.14956   -6841.9754   -6737.2118   -1714.0763    22555.315    79.177029 
   24440    926.88225   -6840.3202   -6736.9251    -2066.555    22566.394    79.211396 
   24450     913.0563   -6838.5767   -6736.7239   -2091.3045    22574.684    79.244372 
   24460    913.59384   -6838.4877   -6736.5749   -1795.3693    22580.129    79.285066 
   24470    900.24097   -6836.8747   -6736.4514   -1331.5998    22583.096    79.332453 
   24480    920.65105   -6839.0588   -6736.3588   -1381.3567    22584.109    79.364191 
   24490    918.77155   -6838.7876   -6736.2972   -1218.5751    22583.206    79.353484 
   24500    926.93337   -6839.6872   -6736.2864   -1374.1491    22580.509    79.302579 
   24510    945.36326    -6841.802   -6736.3453   -1977.2875    22575.758    79.252341 
   24520    935.30256   -6840.8333   -6736.4989   -1991.9176    22568.206    79.237311 
   24530    919.68422   -6839.3386   -6736.7465   -1355.4117    22557.791    79.257074 
   24540    883.69317   -6835.5949   -6737.0176    -283.9592    22545.395    79.291286 
   24550    882.78517   -6835.7417   -6737.2656   -10.641439    22532.331    79.316861 
   24560    899.67099   -6837.8582   -6737.4985    22.332885    22519.082    79.320861 
   24570    892.76284   -6837.3186   -6737.7295    256.43122    22505.751    79.308123 
   24580    900.47069   -6838.4159   -6737.9671    233.54291    22492.589    79.286413 
   24590    923.20269   -6841.2156   -6738.2309    137.62041    22479.615    79.264468 
   24600    922.91751   -6841.5113   -6738.5585    335.27163    22466.741    79.253406 
   24610    920.61255     -6841.67   -6738.9743    599.82318    22454.197     79.25144 
   24620    908.21508   -6840.7755   -6739.4628    852.09541    22442.372    79.237826 
   24630    913.49912    -6841.928   -6740.0258    969.15696     22431.59    79.211549 
   24640    893.78085   -6840.3527   -6740.6501    1585.5346    22422.143    79.179285 
   24650    877.21735   -6839.1381   -6741.2832    1908.0515    22414.804     79.14684 
   24660    888.24581    -6841.007   -6741.9218    1266.7141    22409.951    79.131783 
   24670    883.68615    -6841.139   -6742.5624    602.02163    22406.852    79.148157 
   24680    882.86716    -6841.672   -6743.1869   -69.836821    22404.572    79.190248 
   24690    893.30209   -6843.4519   -6743.8027   -407.45231    22402.213    79.257822 
   24700    877.47451   -6842.2769   -6744.3933   -302.16718    22399.315    79.347413 
   24710    852.15936   -6839.9667   -6744.9071    11.156834    22395.996    79.433897 
   24720    859.69785   -6841.2105   -6745.3099    242.03349    22392.651    79.490922 
   24730    900.42894   -6846.0872    -6745.643    346.65003    22389.594    79.525441 
   24740    901.59455   -6846.5344   -6745.9602    539.96794    22387.014    79.559401 
   24750    876.41664   -6844.0173   -6746.2517    569.74701    22385.165    79.584065 
   24760     880.8889   -6844.7676   -6746.5031  -0.36616098    22384.019     79.59069 
   24770    881.78813   -6845.0743   -6746.7095   -510.76428    22382.881    79.582894 
   24780    859.41599   -6842.7285   -6746.8594   -448.13322    22381.102    79.568232 
   24790    857.45706   -6842.5802   -6746.9296   -328.81537    22378.675    79.566687 
   24800     863.4233   -6843.2217   -6746.9055   -210.38753    22375.757    79.583818 
   24810     863.0023   -6843.0676   -6746.7984   -101.76205    22372.506    79.590219 
   24820    878.25066   -6844.5899   -6746.6197   -255.99651    22369.044    79.564995 
   24830    893.97326    -6846.111   -6746.3869   -345.91765    22365.203     79.51938 
   24840    893.23133   -6845.7671   -6746.1258   -25.160162    22360.889    79.457269 
   24850    898.33678   -6846.0666   -6745.8558    628.06927    22356.528    79.384349 
   24860    887.47626   -6844.5467   -6745.5474    1230.2014    22353.015    79.322207 
   24870    902.57339   -6845.8798   -6745.1964    892.80557    22351.058    79.275515 
   24880    909.45212    -6846.239   -6744.7883    583.77083    22350.361     79.24061 
   24890    921.21665    -6847.093   -6744.3299    83.168769    22350.457    79.208825 
   24900    966.50984    -6851.655   -6743.8394   -863.73614    22350.607    79.197876 
   24910    942.63901   -6848.5206   -6743.3678   -1064.1828    22349.648    79.214235 
   24920    885.78472   -6841.7102   -6742.8996   -883.02719    22347.249    79.227049 
   24930    881.05874   -6840.5707   -6742.2872   -1452.8677    22343.487    79.218951 
   24940    890.75378   -6840.7728   -6741.4079    -1780.747    22337.706    79.198132 
   24950    901.81662   -6840.8495   -6740.2505   -1768.1368    22329.425     79.15806 
   24960    901.48085     -6839.45   -6738.8885   -1160.5018    22318.673    79.084361 
   24970     922.2401   -6840.3381   -6737.4608   -472.85153    22306.208    78.987472 
   24980    949.13003    -6842.016   -6736.1391   -113.59934    22292.947    78.903287 
   24990    958.47517   -6842.0012   -6735.0818     144.6334    22279.393    78.863243 
   25000    954.10145   -6840.7638   -6734.3324    341.60504    22265.905      78.8748 
Loop time of 10587 on 16 procs for 20000 steps with 864 atoms

Performance: 0.163 ns/day, 147.041 hours/ns, 1.889 timesteps/s
97.7% CPU use with 16 MPI tasks x 1 OpenMP threads

MPI task timing breakdown:
Section |  min time  |  avg time  |  max time  |%varavg| %total
---------------------------------------------------------------
Pair    | 6280       | 8862.9     | 10266      |1260.2 | 83.72
Bond    | 0.0016856  | 0.0043075  | 0.0095117  |   3.5 |  0.00
Neigh   | 0.20932    | 0.27858    | 0.34161    |   8.4 |  0.00
Comm    | 246.54     | 1489.3     | 4206.8     |2963.4 | 14.07
Output  | 5.6206     | 5.6481     | 6.0567     |   4.4 |  0.05
Modify  | 67.692     | 228.79     | 498.37     | 957.7 |  2.16
Other   |            | 0.07884    |            |       |  0.00

Nlocal:        54.0000 ave          61 max          42 min
Histogram: 1 1 0 1 2 2 1 3 1 4
Nghost:        475.938 ave         524 max         432 min
Histogram: 3 2 1 1 1 0 4 1 1 2
Neighs:         0.00000 ave           0 max           0 min
Histogram: 16 0 0 0 0 0 0 0 0 0
FullNghs:      2091.12 ave        2712 max        1375 min
Histogram: 1 2 1 2 1 2 1 1 3 2

Total # of neighbors = 33458
Ave neighs/atom = 38.724537
Ave special neighs/atom = 0.0000000
Neighbor list builds = 2000
Dangerous builds = 2000
Total wall time: 3:41:53
