LAMMPS (29 Sep 2021 - Update 3)
OMP_NUM_THREADS environment is not set. Defaulting to 1 thread. (src/comm.cpp:98)
  using 1 OpenMP thread(s) per MPI task
Reading data file ...
  orthogonal box = (0.0000000 0.0000000 0.0000000) to (15.502212 15.402052 70.841525)
  2 by 1 by 8 MPI processor grid
  reading atoms ...
  864 atoms
Finding 1-2 1-3 1-4 neighbors ...
  special bond factors lj:    0        0        0       
  special bond factors coul:  0        0        0       
     0 = max # of 1-2 neighbors
     0 = max # of 1-3 neighbors
     0 = max # of 1-4 neighbors
     1 = max # of special neighbors
  special bonds CPU = 0.001 seconds
  read_data CPU = 0.009 seconds
Neighbor list info ...
  update every 1 steps, delay 10 steps, check yes
  max neighbors/atom: 2000, page size: 100000
  master list distance cutoff = 6.22
  ghost atom cutoff = 6.22
  binsize = 3.11, bins = 5 5 23
  1 neighbor lists, perpetual/occasional/extra = 1 0 0
  (1) pair quip, perpetual
      attributes: full, newton on
      pair build: full/bin
      stencil: full/bin/3d
      bin: standard
Setting up Verlet run ...
  Unit style    : metal
  Current step  : 0
  Time step     : 0.001
Per MPI rank memory allocation (min/avg/max) = 8.904 | 8.909 | 8.916 Mbytes
Step Temp PotEng TotEng Press Volume c_msd[4] 
       0            0   -6414.6092   -6414.6092   -8996.9866    16914.539            0 
      10    95.860065   -6425.3161   -6414.6228   -10882.275    16914.539 0.00077933166 
      20    229.03731    -6440.185   -6414.6355   -12475.142    16914.539 0.0093775226 
      30    249.34477   -6442.4428    -6414.628     -10213.3    16914.539  0.030212741 
      40    248.24655    -6442.315   -6414.6227   -8336.8682    16914.539  0.053808265 
      50    285.14769    -6446.437   -6414.6283   -8615.1952    16914.539  0.072000809 
      60    292.72184   -6447.2808   -6414.6272   -9342.9381    16914.539  0.087153748 
      70    280.17142   -6445.8771   -6414.6236   -9869.2499    16914.539   0.10198109 
      80    281.19207   -6445.9951   -6414.6277    -10294.65    16914.539   0.11798926 
      90    268.26029   -6444.5494   -6414.6246   -9784.8729    16914.539   0.13582886 
     100    263.60742   -6444.0319   -6414.6261   -9260.1077    16914.539   0.15297691 
     110    266.81408   -6444.3885    -6414.625   -9324.2282    16914.539   0.16905869 
     120    277.26539   -6445.5556   -6414.6262   -9888.0881    16914.539    0.1846357 
     130    285.07553   -6446.4267   -6414.6261    -10213.05    16914.539   0.20084172 
     140    284.14138   -6446.3223   -6414.6259   -10193.515    16914.539   0.21791648 
     150    279.03191   -6445.7517   -6414.6253   -10301.408    16914.539   0.23440376 
     160    280.06863   -6445.8685   -6414.6264   -10527.708    16914.539   0.24944995 
     170    273.73993   -6445.1618   -6414.6257   -10301.134    16914.539   0.26342452 
     180    268.00203    -6444.521   -6414.6249   -9641.2173    16914.539    0.2755889 
     190    273.83964   -6445.1737   -6414.6265   -9293.2599    16914.539   0.28642792 
     200    272.45085   -6445.0193    -6414.627   -9401.3798    16914.539   0.29775171 
     210    266.52225   -6444.3555   -6414.6245    -9739.952    16914.539   0.30975692 
     220    277.26483   -6445.5568   -6414.6275   -10274.008    16914.539   0.32155584 
     230    271.03398   -6444.8608   -6414.6265   -10197.129    16914.539   0.33326886 
     240    256.99297   -6443.2921   -6414.6241   -9796.9787    16914.539   0.34420392 
     250      260.518   -6443.6868   -6414.6256   -10082.712    16914.539   0.35319632 
     260    269.24542   -6444.6609   -6414.6262   -10817.477    16914.539   0.36024544 
     270    272.22344   -6444.9933   -6414.6263   -11178.931    16914.539   0.36660869 
     280    269.37878   -6444.6751   -6414.6255   -10808.686    16914.539   0.37346839 
     290    271.00389   -6444.8563   -6414.6254   -10344.777    16914.539   0.38086972 
     300    276.76784   -6445.4999    -6414.626   -10017.839    16914.539   0.38795838 
     310    280.46562   -6445.9129   -6414.6265   -10033.139    16914.539    0.3941169 
     320    277.07214   -6445.5343   -6414.6265   -10046.112    16914.539   0.40018262 
     330    269.95649   -6444.7383   -6414.6242   -9805.4895    16914.539   0.40670818 
     340    277.76904    -6445.612   -6414.6265   -9619.6934    16914.539   0.41197492 
     350    285.05274   -6446.4248   -6414.6267   -9485.1667    16914.539   0.41648156 
     360    281.88575   -6446.0712   -6414.6264   -9140.4937    16914.539   0.42146503 
     370    274.53044   -6445.2493    -6414.625    -8962.175    16914.539   0.42701601 
     380    276.18295   -6445.4346    -6414.626   -9426.8139    16914.539   0.43273687 
     390    277.57134   -6445.5897   -6414.6262   -10070.673    16914.539   0.43923402 
     400     276.8595   -6445.5103   -6414.6262    -10303.89    16914.539   0.44707416 
     410    275.46607   -6445.3545   -6414.6259   -10360.075    16914.539   0.45492711 
     420    275.69775   -6445.3806   -6414.6261   -10312.296    16914.539   0.46006875 
     430    277.65506   -6445.5987   -6414.6258   -10210.723    16914.539   0.46173996 
     440    281.42642   -6446.0203   -6414.6268   -10308.419    16914.539    0.4617939 
     450    276.88831    -6445.514   -6414.6267   -10250.708    16914.539   0.46269964 
     460    270.21574   -6444.7677   -6414.6248   -9929.1914    16914.539   0.46518425 
     470    276.62755   -6445.4853   -6414.6271   -9753.2735    16914.539   0.46909827 
     480    275.65992   -6445.3765   -6414.6262   -9607.8074    16914.539   0.47463575 
     490    271.78497   -6444.9435   -6414.6255   -9553.3315    16914.539   0.48058495 
     500    272.32251   -6445.0046   -6414.6266   -9909.1382    16914.539   0.48553511 
     510    270.37544   -6444.7864   -6414.6256   -10365.506    16914.539   0.48834362 
     520    275.17373   -6445.3223   -6414.6263    -10515.66    16914.539   0.48843099 
     530    278.78936   -6445.7259   -6414.6265   -10437.285    16914.539   0.48792995 
     540    277.10642   -6445.5367   -6414.6251   -10771.458    16914.539   0.48938579 
     550    282.60439   -6446.1508   -6414.6259   -11859.636    16914.539   0.49278637 
     560    285.47147   -6446.4709   -6414.6262   -12796.498    16914.539   0.49690199 
     570    281.74023   -6446.0538   -6414.6252   -13126.326    16914.539   0.50034525 
     580    281.37788   -6446.0138   -6414.6257    -13240.78    16914.539   0.50202219 
     590    281.57404   -6446.0359   -6414.6258   -12844.509    16914.539   0.50251947 
     600    279.80949   -6445.8394   -6414.6262   -12078.209    16914.539   0.50341715 
     610    275.08337   -6445.3114   -6414.6254   -11496.883    16914.539    0.5053235 
     620    273.83436   -6445.1722   -6414.6256   -11201.877    16914.539   0.50732064 
     630    275.31248   -6445.3374   -6414.6259   -11206.933    16914.539   0.50828438 
     640    275.60187     -6445.37   -6414.6262    -11537.36    16914.539   0.50794637 
     650    274.21825   -6445.2155   -6414.6261   -11690.872    16914.539   0.50662649 
     660    272.65227   -6445.0411   -6414.6263   -11698.657    16914.539   0.50518157 
     670     269.8069   -6444.7228   -6414.6254   -11783.391    16914.539   0.50451723 
     680    274.15038   -6445.2075   -6414.6256   -11810.462    16914.539   0.50456436 
     690    280.99552   -6445.9719   -6414.6264   -11861.031    16914.539   0.50555103 
     700    280.63072   -6445.9305   -6414.6257   -11627.854    16914.539   0.50781264 
     710    278.92562   -6445.7406    -6414.626   -11080.463    16914.539   0.51097066 
     720    273.95593   -6445.1857   -6414.6255   -10327.151    16914.539   0.51457431 
     730    270.75852   -6444.8288   -6414.6252   -9765.8913    16914.539   0.51787072 
     740    276.18815   -6445.4342    -6414.625   -9492.6985    16914.539   0.51977351 
     750    290.40662   -6447.0224   -6414.6271   -9560.4488    16914.539   0.52017505 
     760    291.76733   -6447.1737   -6414.6266   -9561.5036    16914.539   0.52117133 
     770    283.11091   -6446.2069   -6414.6254   -9453.5946    16914.539   0.52378958 
     780    279.64758   -6445.8206   -6414.6255   -9604.3927    16914.539   0.52683471 
     790    283.69703   -6446.2721   -6414.6253   -9946.1137    16914.539   0.52917358 
     800    294.07987   -6447.4316   -6414.6265   -10564.719    16914.539   0.53017696 
     810    295.44119   -6447.5838   -6414.6269   -10778.266    16914.539   0.53058912 
     820    284.62085    -6446.375   -6414.6251   -10769.398    16914.539   0.53152004 
     830    283.14102   -6446.2102   -6414.6254    -11181.41    16914.539   0.53258998 
     840    287.99305   -6446.7525   -6414.6265   -11723.574    16914.539   0.53389001 
     850    287.09189   -6446.6515    -6414.626   -11500.578    16914.539   0.53659046 
     860      284.553   -6446.3684    -6414.626   -10897.209    16914.539   0.54081319 
     870    282.67441   -6446.1585   -6414.6257   -10433.812    16914.539   0.54539106 
     880    283.51653   -6446.2522   -6414.6255   -10209.532    16914.539    0.5489499 
     890    288.50338    -6446.809    -6414.626   -10354.377    16914.539   0.55135174 
     900    291.76454   -6447.1726   -6414.6258   -10876.976    16914.539   0.55353637 
     910    292.97848   -6447.3082    -6414.626   -11347.991    16914.539   0.55595171 
     920    291.51405   -6447.1447   -6414.6258   -11398.427    16914.539   0.55853793 
     930    291.60074   -6447.1542   -6414.6257    -11293.91    16914.539   0.56185808 
     940     293.2344   -6447.3372   -6414.6265   -11200.097    16914.539   0.56678171 
     950    287.97843   -6446.7504    -6414.626   -11130.864    16914.539   0.57322831 
     960    283.64605   -6446.2659   -6414.6248   -11250.962    16914.539    0.5801369 
     970    292.04718   -6447.2043    -6414.626   -11840.242    16914.539   0.58714521 
     980    298.10465    -6447.881    -6414.627   -12253.162    16914.539   0.59518368 
     990     291.0629   -6447.0941   -6414.6256   -12038.151    16914.539    0.6045403 
    1000    284.65421   -6446.3788   -6414.6252   -11444.717    16914.539   0.61356144 
    1010    284.88743   -6446.4056    -6414.626    -11257.53    16914.539   0.62075706 
    1020    284.45231   -6446.3572   -6414.6261   -11432.152    16914.539   0.62656562 
    1030    283.20586   -6446.2174   -6414.6254   -11511.221    16914.539   0.63192389 
    1040    287.83552   -6446.7343   -6414.6258   -11667.574    16914.539   0.63739756 
    1050    291.82132   -6447.1799   -6414.6268   -11837.973    16914.539   0.64401168 
    1060    283.59762   -6446.2613   -6414.6256   -11789.256    16914.539   0.65213742 
    1070    276.66662   -6445.4869   -6414.6243   -11806.091    16914.539   0.65985523 
    1080    282.99965   -6446.1952   -6414.6262   -11840.254    16914.539   0.66594809 
    1090    284.44573   -6446.3567   -6414.6263   -11632.042    16914.539   0.67175387 
    1100    278.27382   -6445.6672   -6414.6253   -11480.901    16914.539   0.67800117 
    1110    275.51841   -6445.3596   -6414.6251    -11752.64    16914.539   0.68395064 
    1120    280.64433   -6445.9316   -6414.6253   -12488.193    16914.539   0.68890156 
    1130    288.25028   -6446.7809   -6414.6262   -13418.509    16914.539   0.69291839 
    1140    287.86356   -6446.7373   -6414.6257   -13894.107    16914.539   0.69647294 
    1150     284.1342   -6446.3207   -6414.6251   -13718.421    16914.539   0.69999552 
    1160    284.54442   -6446.3664    -6414.625   -13274.877    16914.539   0.70441524 
    1170    289.30798   -6446.8989   -6414.6262   -12874.099    16914.539   0.71032926 
    1180    288.40526   -6446.7977   -6414.6256   -12499.771    16914.539   0.71698745 
    1190    288.87345   -6446.8499   -6414.6256   -12393.703    16914.539   0.72286598 
    1200    289.55166   -6446.9266   -6414.6266   -12529.541    16914.539   0.72828782 
    1210    280.56525   -6445.9223   -6414.6249   -12558.433    16914.539   0.73461558 
    1220    279.30484    -6445.782   -6414.6251   -12626.277    16914.539   0.74159765 
    1230    283.14385   -6446.2112   -6414.6261    -12562.24    16914.539   0.74841645 
    1240    281.80648   -6446.0608   -6414.6249   -12023.389    16914.539   0.75444294 
    1250     287.2171   -6446.6653   -6414.6258   -11729.343    16914.539   0.75867551 
    1260    291.37697   -6447.1294   -6414.6258   -11960.648    16914.539    0.7611503 
    1270     290.7704   -6447.0612   -6414.6254   -12380.586    16914.539   0.76288707 
    1280    289.55224   -6446.9258   -6414.6258   -12882.375    16914.539    0.7645348 
    1290    287.09987   -6446.6515   -6414.6251   -12907.605    16914.539   0.76662403 
    1300     288.7486   -6446.8364   -6414.6261    -12351.66    16914.539   0.76992192 
    1310     286.5441   -6446.5899   -6414.6255   -11746.932    16914.539   0.77514416 
    1320    286.76446   -6446.6147   -6414.6256   -11616.487    16914.539     0.782071 
    1330    287.70548   -6446.7204   -6414.6264    -11836.58    16914.539   0.79015066 
    1340    282.63252   -6446.1531    -6414.625   -11799.148    16914.539   0.79849012 
    1350    284.43132   -6446.3541   -6414.6254   -11987.933    16914.539   0.80587623 
    1360    290.10013   -6446.9873   -6414.6262   -12175.108    16914.539   0.81222683 
    1370    288.39934   -6446.7972   -6414.6258   -12215.241    16914.539   0.81788554 
    1380    282.88925   -6446.1815   -6414.6247   -12046.377    16914.539   0.82275667 
    1390    283.76927   -6446.2807   -6414.6258   -12356.549    16914.539   0.82695931 
    1400    284.16314   -6446.3247   -6414.6258   -12558.911    16914.539   0.83096223 
    1410    282.88017   -6446.1807    -6414.625   -12245.265    16914.539   0.83439005 
    1420     289.0508   -6446.8696   -6414.6256   -12006.917    16914.539   0.83692973 
    1430    296.30837   -6447.6802   -6414.6265   -12125.384    16914.539   0.83971571 
    1440    294.95766   -6447.5284   -6414.6255   -12272.826    16914.539   0.84385839 
    1450    294.31334   -6447.4568   -6414.6257   -12376.112    16914.539   0.84859385 
    1460    293.05239   -6447.3161   -6414.6256   -12629.004    16914.539   0.85302956 
    1470    291.25758   -6447.1162   -6414.6259   -13083.249    16914.539    0.8570116 
    1480    286.64819   -6446.6016   -6414.6255   -13428.045    16914.539   0.86066862 
    1490    283.52532   -6446.2528   -6414.6252   -13496.705    16914.539   0.86430477 
    1500     286.3633   -6446.5701   -6414.6258   -13624.975    16914.539   0.86918451 
    1510    287.48957    -6446.696   -6414.6261   -13700.531    16914.539   0.87693222 
    1520      283.311   -6446.2294   -6414.6257   -13763.966    16914.539   0.88681719 
    1530    278.93423   -6445.7409   -6414.6254    -13749.08    16914.539    0.8961479 
    1540    279.24322   -6445.7753   -6414.6253   -13602.367    16914.539   0.90287427 
    1550    284.34307   -6446.3451   -6414.6262   -13438.713    16914.539   0.90704945 
    1560    286.61186   -6446.5976   -6414.6256   -13327.774    16914.539   0.90952163 
    1570    288.64067   -6446.8242   -6414.6259   -13235.348    16914.539   0.91064836 
    1580    289.00905   -6446.8647   -6414.6253   -13276.193    16914.539   0.91132952 
    1590    292.22619   -6447.2238   -6414.6255   -13462.144    16914.539   0.91275471 
    1600    296.71233   -6447.7243   -6414.6256   -13630.138    16914.539   0.91602557 
    1610    298.76154   -6447.9536   -6414.6263   -13722.427    16914.539   0.92135086 
    1620    292.39065   -6447.2423   -6414.6257   -13309.957    16914.539   0.92745789 
    1630    287.36199   -6446.6803   -6414.6246   -12820.554    16914.539   0.93230372 
    1640    296.02429   -6447.6483   -6414.6263   -13120.327    16914.539   0.93527841 
    1650    300.16791   -6448.1107   -6414.6265   -13790.323    16914.539   0.93826144 
    1660    293.71858   -6447.3901   -6414.6253    -14241.14    16914.539   0.94282849 
    1670    288.35047   -6446.7915   -6414.6256   -14455.623    16914.539   0.94858717 
    1680    282.73321   -6446.1651   -6414.6258   -14172.658    16914.539   0.95453176 
    1690    275.72229   -6445.3823   -6414.6251   -13627.921    16914.539   0.95952727 
    1700    277.97595   -6445.6333   -6414.6247   -13300.724    16914.539   0.96211871 
    1710    291.05049   -6447.0941    -6414.627    -13269.73    16914.539   0.96263565 
    1720    289.50874   -6446.9216   -6414.6265   -13136.603    16914.539    0.9641931 
    1730     279.6014   -6445.8141   -6414.6241    -12984.07    16914.539   0.96762806 
    1740    285.21215   -6446.4421   -6414.6263   -12956.522    16914.539    0.9714688 
    1750    286.63852   -6446.6019   -6414.6269    -12491.03    16914.539   0.97542993 
    1760    276.86406   -6445.5095   -6414.6249   -11731.805    16914.539   0.97865163 
    1770    278.27156   -6445.6664   -6414.6248   -11664.802    16914.539   0.98004953 
    1780    292.12948   -6447.2142   -6414.6268   -12328.976    16914.539   0.98151253 
    1790    296.31795   -6447.6809   -6414.6262   -12931.917    16914.539   0.98612529 
    1800    292.55667   -6447.2612    -6414.626   -13640.461    16914.539   0.99403792 
    1810    285.79514   -6446.5059    -6414.625   -14229.526    16914.539    1.0030771 
    1820    288.12419   -6446.7662   -6414.6256   -14597.158    16914.539    1.0110949 
    1830    292.85204   -6447.2945   -6414.6264   -14639.212    16914.539    1.0174953 
    1840    289.21054   -6446.8874   -6414.6255   -13970.459    16914.539    1.0218515 
    1850    287.11754   -6446.6534    -6414.625   -13100.598    16914.539    1.0231482 
    1860    292.11589   -6447.2121   -6414.6262   -12689.719    16914.539    1.0216815 
    1870    291.24456   -6447.1151   -6414.6264    -12380.18    16914.539    1.0194153 
    1880    284.36534   -6446.3461   -6414.6247   -12152.672    16914.539    1.0178874 
    1890     288.1505   -6446.7696    -6414.626   -12357.505    16914.539    1.0174891 
    1900    290.81767   -6447.0678   -6414.6266   -12569.765    16914.539    1.0188537 
    1910    284.40865   -6446.3521   -6414.6259   -12506.032    16914.539    1.0221045 
    1920    279.51829   -6445.8054   -6414.6247   -12334.547    16914.539    1.0260227 
    1930    286.47358   -6446.5831   -6414.6265   -12454.296    16914.539    1.0290399 
    1940    288.06715   -6446.7604    -6414.626   -12717.705    16914.539    1.0306657 
    1950    286.25893   -6446.5579   -6414.6253   -12605.082    16914.539    1.0306186 
    1960    289.99788   -6446.9755   -6414.6258   -12348.209    16914.539    1.0295042 
    1970    293.21828    -6447.335    -6414.626   -12071.048    16914.539    1.0291662 
    1980    292.53599   -6447.2583   -6414.6255   -11867.242    16914.539    1.0306618 
    1990    292.57928   -6447.2634   -6414.6257   -12029.322    16914.539    1.0338136 
    2000    292.21203   -6447.2225   -6414.6258   -12394.635    16914.539    1.0382092 
Loop time of 1568.39 on 16 procs for 2000 steps with 864 atoms

Performance: 0.110 ns/day, 217.832 hours/ns, 1.275 timesteps/s
97.5% CPU use with 16 MPI tasks x 1 OpenMP threads

MPI task timing breakdown:
Section |  min time  |  avg time  |  max time  |%varavg| %total
---------------------------------------------------------------
Pair    | 896.78     | 1245.7     | 1561.6     | 476.6 | 79.43
Bond    | 0.0001545  | 0.000551   | 0.0014117  |   0.0 |  0.00
Neigh   | 0.026087   | 0.036165   | 0.055302   |   3.8 |  0.00
Comm    | 5.6776     | 295.95     | 670.5      | 939.9 | 18.87
Output  | 0.45451    | 16.428     | 37.829     | 364.8 |  1.05
Modify  | 0.0091445  | 0.011254   | 0.014589   |   1.4 |  0.00
Other   |            | 10.23      |            |       |  0.65

Nlocal:        54.0000 ave          73 max          37 min
Histogram: 1 0 1 2 5 5 0 0 1 1
Nghost:        565.875 ave         657 max         471 min
Histogram: 1 1 0 5 2 2 0 2 1 2
Neighs:         0.00000 ave           0 max           0 min
Histogram: 16 0 0 0 0 0 0 0 0 0
FullNghs:      2887.12 ave        4564 max        1794 min
Histogram: 1 3 4 2 2 0 2 0 0 2

Total # of neighbors = 46194
Ave neighs/atom = 53.465278
Ave special neighs/atom = 0.0000000
Neighbor list builds = 199
Dangerous builds = 198
Setting up Verlet run ...
  Unit style    : metal
  Current step  : 2000
  Time step     : 0.001
Per MPI rank memory allocation (min/avg/max) = 8.905 | 8.910 | 8.916 Mbytes
Step Temp PotEng TotEng Press Volume c_msd[4] 
    2000          900   -6447.2225   -6346.8261   -8113.2289    16914.539    1.0382092 
    2010    759.42916   -6431.5019   -6346.7865   -3569.6172    16911.615    1.0489877 
    2020     605.1311   -6414.0282   -6346.5249     1748.538    16905.874     1.069601 
    2030    594.72976     -6412.23    -6345.887    1774.9058    16901.157    1.0863551 
    2040    595.29493   -6411.2417   -6344.8357    1056.7321    16897.839    1.0994674 
    2050    566.81908   -6406.8342   -6343.6046    1547.1761    16895.451    1.1117607 
    2060    555.34948   -6404.3988   -6342.4487    2586.6444     16894.32    1.1230757 
    2070    572.62736   -6405.2728   -6341.3953    2963.6237    16895.209    1.1327932 
    2080    608.49829   -6408.2184   -6340.3395    2119.1374    16898.377    1.1422121 
    2090    614.89014   -6407.7914   -6339.1995    2016.6477    16903.324    1.1542319 
    2100    623.42418   -6407.5112   -6337.9673    1613.9092    16909.887    1.1680845 
    2110    631.03534   -6407.0158   -6336.6229    1338.3109    16917.786    1.1812347 
    2120    623.30633   -6404.7487   -6335.2179    2064.7597    16926.865    1.1919375 
    2130    633.61465    -6404.458   -6333.7773    1868.7512    16937.567    1.1985638 
    2140    667.06348   -6406.6757   -6332.2638    400.76549    16949.725    1.2015066 
    2150    670.13364   -6405.4538   -6330.6994    3.0463356    16962.347    1.2035724 
    2160    649.74508   -6401.6487   -6329.1687    802.67021    16975.125     1.205118 
    2170      674.332   -6402.8463   -6327.6236    23.542129    16988.471    1.2049109 
    2180    690.51051   -6403.0243   -6325.9968   -1229.6307    17001.867    1.2056283 
    2190    685.34297   -6400.8117   -6324.3607   -1674.5009    17014.387    1.2087751 
    2200    696.92948   -6400.4552   -6322.7117   -1498.5842    17025.625    1.2125612 
    2210    697.96768   -6398.9012   -6321.0419   -372.42964     17035.76    1.2163891 
    2220    699.27782   -6397.3808   -6319.3753    594.92903    17045.614    1.2204926 
    2230    712.79098   -6397.2073   -6317.6944    383.57828    17055.893    1.2254342 
    2240    721.34015   -6396.4567   -6315.9901   -411.57191    17066.468    1.2326098 
    2250    724.04271    -6395.062   -6314.2939   -646.65646    17076.778    1.2409443 
    2260     732.1197    -6394.255   -6312.5859   -628.82998    17086.599     1.247945 
    2270    743.19237   -6393.7624   -6310.8581   -914.17476      17095.9    1.2539931 
    2280    741.96455   -6391.8803    -6309.113   -897.15676    17104.488    1.2597486 
    2290    740.99511   -6390.0433   -6307.3842    -415.4109    17112.387    1.2658216 
    2300    729.17168   -6387.0037   -6305.6635   -75.147957    17119.938    1.2747662 
    2310    718.33911   -6384.0798   -6303.9479    97.513289    17127.415    1.2858681 
    2320    730.80465   -6383.7203   -6302.1979   -54.948879    17134.945    1.2951522 
    2330    762.45347   -6385.4481   -6300.3953   -845.08766    17142.362    1.3000705 
    2340    789.91482   -6386.6899   -6298.5737   -1409.6476    17149.102     1.301903 
    2350    802.55433   -6386.3124   -6296.7862   -685.62355    17154.782    1.3036448 
    2360    807.11995   -6385.0944   -6295.0589     24.28281    17159.881    1.3080816 
    2370    818.64257   -6384.6917   -6293.3708   -132.82407    17164.914    1.3157603 
    2380    829.23014   -6384.2123   -6291.7104   -120.55034    17169.825    1.3276974 
    2390    818.81083   -6381.4195   -6290.0799    1056.7511    17174.725    1.3442699 
    2400    808.75763   -6378.7017   -6288.4835    1713.4316    17180.418    1.3628234 
    2410    805.64293   -6376.7559   -6286.8852    1943.3004    17187.472      1.38189 
    2420    810.90508   -6375.7351   -6285.2774    1970.7128     17196.07    1.4002237 
    2430    824.35198    -6375.619   -6283.6613    2069.0449    17206.256    1.4134546 
    2440    820.76486   -6373.6091   -6282.0515    2514.5999     17218.11    1.4203565 
    2450    813.84058   -6371.2612    -6280.476    3543.5592    17232.009    1.4244109 
    2460    833.85099   -6371.9241   -6278.9068    4094.3197    17248.706     1.429736 
    2470    868.13066   -6374.1739   -6277.3326    3551.8051    17268.598     1.439777 
    2480    867.66281   -6372.5838   -6275.7947    2896.6256    17291.279    1.4558791 
    2490    868.02908    -6371.161    -6274.331    2223.8262    17316.176    1.4745816 
    2500    873.72384   -6370.3696   -6272.9044    1094.0223     17342.68    1.4928319 
    2510     877.4417   -6369.3891   -6271.5092   -249.72593     17369.84    1.5090062 
    2520    890.08177   -6369.4221   -6270.1321   -1075.6557    17396.537    1.5216252 
    2530     875.0757   -6366.4191   -6268.8031   -555.13752    17422.127    1.5304333 
    2540     861.2437   -6363.6171   -6267.5441     552.7232    17447.002     1.537531 
    2550    844.95701   -6360.5557   -6266.2995     422.3627    17471.925    1.5455472 
    2560    873.08421   -6362.4076   -6265.0137   -747.18716    17496.794    1.5539243 
    2570    899.64296   -6364.0397   -6263.6831   -1580.3395      17520.7    1.5651353 
    2580    883.14001   -6360.9172   -6262.4016   -1352.6904    17543.003    1.5807392 
    2590    890.75731    -6360.542   -6261.1767   -2051.9549     17563.72    1.5968861 
    2600    902.11586   -6360.5962   -6259.9638   -3205.7092     17582.33    1.6119632 
    2610    907.72067   -6360.0531   -6258.7955   -4145.7768    17597.895    1.6243199 
    2620    880.94036   -6355.9611   -6257.6909   -4267.8733      17609.7    1.6363278 
    2630    860.14275    -6352.576   -6256.6258   -3917.6402    17617.698    1.6501735 
    2640    896.77408   -6355.5823   -6255.5458   -4566.8973    17622.102    1.6653474 
    2650     930.1043   -6358.2226    -6254.468   -4889.7232    17622.545    1.6828338 
    2660    935.42535   -6357.8374   -6253.4892   -4420.4904    17618.839    1.7025303 
    2670    931.23241    -6356.509   -6252.6286   -3558.1348    17611.429    1.7220064 
    2680    911.93539   -6353.5849   -6251.8571   -2419.8901    17601.148    1.7402301 
    2690    897.64333    -6351.268   -6251.1345   -2087.1418    17588.934    1.7574051 
    2700    911.32464   -6352.0845   -6250.4248   -2170.8138    17575.157    1.7724991 
    2710    935.37515   -6354.0849   -6249.7424   -2319.8876    17559.792    1.7862094 
    2720    917.35148   -6351.4569    -6249.125    -1398.835    17542.844    1.8018632 
    2730    904.87728   -6349.4917   -6248.5513   -173.37492    17525.101    1.8201258 
    2740    945.74623   -6353.5004    -6248.001   -89.615099    17507.473    1.8422838 
    2750    965.06009   -6355.1852   -6247.5313    613.55593    17490.207    1.8723545 
    2760     978.7516   -6356.3929   -6247.2117    1597.9472    17473.841    1.9059339 
    2770    968.93237   -6355.1511   -6247.0653    3314.2662    17459.232    1.9360035 
    2780    950.56601   -6353.1025   -6247.0654    4279.4535     17447.66    1.9600381 
    2790    939.00554   -6351.9366   -6247.1892    3492.6735    17439.782    1.9762313 
    2800    943.46352   -6352.6673   -6247.4225     1851.908    17434.948    1.9866805 
    2810    952.48587   -6354.0145   -6247.7633    574.59217    17431.809    1.9958159 
    2820    975.04298   -6357.0295    -6248.262   -354.24285    17429.227    2.0053169 
    2830    964.16261   -6356.4838     -6248.93      163.029    17426.535    2.0181308 
    2840    958.59615    -6356.677   -6249.7442    856.67168     17424.05    2.0353103 
    2850    961.62412   -6357.9528   -6250.6822    913.35767    17422.298    2.0560952 
    2860    937.42243   -6356.2827   -6251.7118    1065.8021    17421.355    2.0804164 
    2870      921.923   -6355.6165   -6252.7746    918.99422    17421.303    2.1045311 
    2880    915.77865   -6355.9971   -6253.8406      344.276    17422.001    2.1265066 
    2890    894.47094   -6354.6572   -6254.8776    353.18794    17423.034    2.1488214 
    2900    893.10738   -6355.4728   -6255.8453    376.18377    17424.361     2.167118 
    2910     928.8614   -6360.4246   -6256.8087   -427.14151    17425.895     2.176501 
    2920    935.12706   -6362.1341   -6257.8192    137.50707    17427.178    2.1814689 
    2930    913.21449    -6360.739   -6258.8686     1139.291    17428.591    2.1855055 
    2940    882.44552   -6358.3009   -6259.8627     1207.086    17430.878    2.1902318 
    2950    892.98506      -6360.4   -6260.7862   -322.24706    17434.031    2.1988666 
    2960    906.09554    -6362.751   -6261.6747   -1865.2133    17436.866    2.2140968 
    2970    875.62138   -6360.1894   -6262.5126   -1518.1672    17438.247    2.2347243 
    2980    862.93841   -6359.5302   -6263.2681   -1010.3027     17438.32    2.2570244 
    2990    866.51117   -6360.5893   -6263.9287   -761.60043    17437.527    2.2786851 
    3000    867.01315   -6361.2203   -6264.5036   -664.90621    17436.109    2.2976267 
    3010    887.15472   -6363.9795    -6265.016   -1280.5483    17434.096    2.3157271 
    3020    890.69168   -6364.8569   -6265.4989   -1642.7495    17431.063    2.3364082 
    3030    871.35336   -6363.1483   -6265.9475   -1219.5267    17426.752     2.357635 
    3040    862.23673   -6362.5104   -6266.3266   -465.16706    17421.515    2.3779858 
    3050    879.07214   -6364.7001   -6266.6383    -658.5746    17415.896    2.3994316 
    3060    879.74723    -6365.039   -6266.9018   -983.44634    17409.795    2.4235252 
    3070    866.69108   -6363.7937    -6267.113   -581.24281    17403.005    2.4496081 
    3080    873.77346    -6364.731   -6267.2602   -259.58131     17395.82    2.4741269 
    3090     881.2136   -6365.6536   -6267.3529   -58.153683    17388.518    2.4970715 
    3100     863.4532   -6363.7125    -6267.393    169.51691    17381.275    2.5188664 
    3110    853.18314   -6362.5338     -6267.36    261.86248    17374.268    2.5389707 
    3120    856.98735   -6362.8318   -6267.2336    -37.53569    17367.542    2.5598848 
    3130    860.11774   -6362.9618   -6267.0144    270.40112    17360.943    2.5833383 
    3140    874.48664   -6364.2624   -6266.7121    1271.0619    17354.711    2.6047099 
    3150    880.75602   -6364.5897   -6266.3401    2712.4306    17349.656    2.6188198 
    3160    889.73033   -6365.1758    -6265.925    3527.4089    17346.887    2.6277643 
    3170     901.0858   -6366.0067   -6265.4893    3158.0526    17347.013    2.6414425 
    3180    897.17339   -6365.1334   -6265.0524    2535.5729    17349.764    2.6675343 
    3190    898.28993   -6364.8193   -6264.6137    2344.4818    17354.652    2.7043826 
    3200    901.02344   -6364.6865    -6264.176    1887.1443    17361.421    2.7467397 
    3210    868.23025   -6360.5813   -6263.7289    1796.1225    17369.758    2.7860654 
    3220    865.05499   -6359.7446   -6263.2465    1095.9688    17379.505    2.8142906 
    3230     887.4037   -6361.6724   -6262.6812   -104.41578    17390.066    2.8352427 
    3240    893.27434   -6361.7167   -6262.0706   -328.05704    17400.546    2.8577254 
    3250    903.91117   -6362.2863   -6261.4537   -915.77637    17410.614    2.8847143 
    3260    909.21081   -6362.2612   -6260.8373   -866.02935    17419.886    2.9121588 
    3270     927.5134   -6363.7184   -6260.2528   -416.19185    17428.384    2.9316509 
    3280    930.08973   -6363.4767   -6259.7238   -24.343662    17436.461    2.9442044 
    3290    913.04421   -6361.1226   -6259.2711    597.84184    17444.486     2.957294 
    3300     899.1923   -6359.1691   -6258.8629    793.69109    17452.934     2.976483 
    3310     896.3663    -6358.451     -6258.46    313.09641    17461.962    3.0004751 
    3320    899.25294   -6358.3555   -6258.0425   -551.17796    17471.189    3.0249918 
    3330    914.61748    -6359.645   -6257.6181   -1549.2212    17479.895    3.0476768 
    3340    915.10517   -6359.3004    -6257.219   -1315.4161    17487.347    3.0689133 
    3350    891.69818   -6356.3237   -6256.8534   -129.94195    17493.718    3.0890384 
    3360    892.41365   -6356.0357   -6256.4856    336.53335    17499.883     3.106955 
    3370    902.11264   -6356.7343   -6256.1023    602.77905    17506.285    3.1235635 
    3380    894.31629   -6355.4722   -6255.7099    938.78311    17513.189    3.1393284 
    3390    911.14086   -6356.9608   -6255.3217    116.47277    17520.759    3.1545995 
    3400    918.48634   -6357.3962   -6254.9377   -383.24265    17528.444    3.1747044 
    3410    925.28626   -6357.8217   -6254.6046   -412.32859    17535.795    3.2007426 
    3420    890.96913   -6353.7015   -6254.3126    -18.26569    17542.823    3.2319151 
    3430    890.82338    -6353.394   -6254.0213   -898.54914    17549.718    3.2625533 
    3440    920.44727   -6356.3868   -6253.7095   -2338.8624    17555.774     3.289007 
    3450    912.13584   -6355.1634   -6253.4132   -2744.1396    17559.893    3.3141932 
    3460    925.48159   -6356.4046   -6253.1657   -2855.1423    17561.655    3.3385321 
    3470    947.67233    -6358.692   -6252.9777   -2542.5993    17560.994    3.3638723 
    3480    958.49982   -6359.8255   -6252.9034   -2016.8121    17558.157    3.3875767 
    3490    940.47574   -6357.8654   -6252.9539   -1133.5985    17553.648     3.408961 
    3500    919.03065   -6355.6112   -6253.0919    33.776887     17548.21    3.4281201 
    3510    920.75796   -6355.9907   -6253.2788    269.17882    17542.725    3.4411587 
    3520    929.51842   -6357.2068   -6253.5176   -74.555257    17537.443    3.4545471 
    3530    924.40792   -6356.9486   -6253.8295    240.09317    17532.153     3.478148 
    3540    902.31684   -6354.8263   -6254.1715    842.90309    17527.115    3.5098007 
    3550    922.22989   -6357.4271    -6254.551    244.07488    17522.705    3.5437214 
    3560    916.53366   -6357.2159   -6254.9752   -459.26835    17518.494    3.5788705 
    3570    899.92175   -6355.8164   -6255.4287   -628.49851     17513.94     3.610742 
    3580    908.76874   -6357.2625    -6255.888   -762.66539    17508.858    3.6319808 
    3590    923.06104   -6359.3482   -6256.3793   -537.46974     17503.14    3.6431136 
    3600    905.28626   -6357.8899   -6256.9039    1130.4635    17497.092    3.6497192 
    3610    885.13788   -6356.1606   -6257.4221    2692.5165    17492.017    3.6567459 
    3620    881.12992   -6356.1887   -6257.8973     2478.483    17489.109    3.6675587 
    3630    903.52206   -6359.1298   -6258.3405    1062.0206    17488.239    3.6827887 
    3640    915.43493   -6360.9188   -6258.8006    77.948801    17488.324    3.7030633 
    3650    895.10655   -6359.1266   -6259.2761     335.7955    17488.581    3.7257231 
    3660    894.10149   -6359.4863   -6259.7479    151.57965    17489.083     3.745677 
    3670     897.0279   -6360.2707   -6260.2059   -605.27037    17489.683      3.76225 
    3680    894.12778   -6360.3866   -6260.6453   -1055.7967    17489.802    3.7808845 
    3690    880.18254    -6359.234   -6261.0483   -1394.9072    17489.036    3.8042899 
    3700    893.12523   -6361.0499   -6261.4205   -1988.8854    17487.064    3.8282437 
    3710    897.47161   -6361.8921   -6261.7778   -1824.3007    17483.481    3.8501512 
    3720    877.85187   -6360.0494   -6262.1237   -1382.2378    17478.357     3.870238 
    3730    868.17849   -6359.2651   -6262.4185   -883.55516    17472.064    3.8884759 
    3740    876.22596   -6360.3985   -6262.6542    -426.8368    17465.015    3.9074101 
    3750    868.76305   -6359.7357   -6262.8239    621.18886    17457.672    3.9292706 
    3760     870.3037    -6360.019   -6262.9353    1407.5699    17450.831    3.9518321 
    3770    841.58512   -6356.8428   -6262.9627    2115.9258      17445.2    3.9720016 
    3780    830.71315   -6355.5392   -6262.8719     1996.676    17441.322    3.9863696 
    3790    876.20563    -6360.397    -6262.655    848.70362    17439.048    3.9931478 
    3800    889.89026   -6361.6216    -6262.353    1075.7417     17437.62    3.9947163 
    3810    885.65849    -6360.822   -6262.0255    1517.5531    17437.129    3.9956757 
    3820    902.05734   -6362.3006   -6261.6747    417.55949    17437.807    4.0001945 
    3830    916.00367    -6363.508   -6261.3264   -570.05705    17438.843    4.0082474 
    3840    895.38167   -6360.8792    -6260.998   -510.36488    17439.495    4.0195438 
    3850    918.64556   -6363.1683    -6260.692   -1413.5132    17439.628    4.0291519 
    3860    928.15148   -6363.9505   -6260.4138   -1744.8816    17438.616    4.0360279 
    3870    915.05266    -6362.276   -6260.2005   -1208.0828    17436.194     4.043602 
    3880     899.2159   -6360.3208    -6260.012   -956.70557    17432.735    4.0560735 
    3890    895.81531   -6359.7486   -6259.8191   -771.31392    17428.482    4.0748536 
    3900    885.83728   -6358.4187   -6259.6022    -575.2026    17423.589      4.09964 
    3910    899.64743    -6359.726    -6259.369   -958.03854     17418.15    4.1235809 
    3920     902.6415   -6359.8103   -6259.1193   -755.48203     17411.97    4.1421614 
    3930    922.18043   -6361.7496    -6258.879   -873.34761    17405.115    4.1555014 
    3940    929.03675   -6362.3036   -6258.6681   -896.17277    17397.535    4.1730368 
    3950    938.21716   -6363.1904   -6258.5309   -227.60901    17389.248    4.1980735 
    3960    899.91954    -6358.832   -6258.4446    1873.5991    17380.897    4.2246379 
    3970    880.97342   -6356.6412   -6258.3673    3136.3446    17374.078     4.244834 
    3980     899.2446    -6358.574   -6258.2619    2472.5109    17369.757    4.2605076 
    3990     902.3529   -6358.8168    -6258.158    2129.9305    17367.541    4.2796009 
    4000    863.38183   -6354.3516   -6258.0401     3185.638     17367.25    4.3023985 
    4010    880.58909   -6356.1003   -6257.8693    2871.7191    17369.528    4.3170991 
    4020    935.34356   -6361.9932   -6257.6542    2025.3478    17374.187    4.3181558 
    4030    940.08129   -6362.3484    -6257.481    2778.1468    17380.673     4.314392 
    4040    932.75581   -6361.4563    -6257.406    3482.2417    17389.486     4.318806 
    4050    941.03943   -6362.3914    -6257.417    2836.2133    17401.132    4.3381702 
    4060    926.50023   -6360.8709   -6257.5184    2122.2138    17415.164    4.3716651 
    4070    907.80166   -6358.9451   -6257.6784    1715.3015    17431.028    4.4115997 
    4080    917.80197   -6360.2593   -6257.8771    977.51173    17448.307    4.4497044 
    4090    912.26167    -6359.871   -6258.1068     768.6252    17466.452    4.4832908 
    4100    905.88593   -6359.4218   -6258.3689       584.27    17485.223    4.5134452 
    4110    887.98964   -6357.6906    -6258.634    453.15869    17504.478      4.54326 
    4120    880.52614   -6357.0954   -6258.8714    92.117676    17524.072    4.5728654 
    4130    888.55359    -6358.195   -6259.0756   -646.87914    17543.688     4.601777 
    4140    873.63104   -6356.6984   -6259.2436   -962.50807    17562.748    4.6329508 
    4150    866.57609   -6356.0277   -6259.3598   -1321.3346    17580.934    4.6647931 
    4160    867.59805   -6356.1753   -6259.3934   -2124.5173    17597.906    4.6940639 
    4170     869.3473   -6356.3241   -6259.3471   -3079.4423    17612.968    4.7149578 
    4180    875.69735   -6356.9144   -6259.2291    -3623.987    17625.346    4.7257215 
    4190     902.8412   -6359.7851   -6259.0718   -3940.5603    17634.568    4.7350457 
    4200     914.0415   -6360.8793   -6258.9166   -4229.0747    17640.342    4.7533538 
    4210     903.7442   -6359.6099   -6258.7958   -3894.1537    17642.473    4.7857732 
    4220    886.62196   -6357.5931   -6258.6891   -3321.5258    17641.244    4.8282546 
    4230    865.63474   -6355.1045   -6258.5416   -3088.3082    17637.115    4.8706293 
    4240    875.24052   -6355.9668   -6258.3324   -3206.2828     17630.31    4.9029557 
    4250    899.79266   -6358.4384   -6258.0652   -3727.1548    17620.725    4.9226011 
    4260    894.64942   -6357.5742   -6257.7747   -2828.3251    17608.072    4.9341471 
    4270    872.65199   -6354.7972   -6257.4515   -853.02286    17593.109    4.9394248 
    4280     893.0505   -6356.6808   -6257.0597   -195.42689    17577.352    4.9379085 
    4290    900.86929   -6357.1078   -6256.6144   -667.98886    17561.408     4.933219 
    4300    894.26225    -6355.917   -6256.1607   -1441.4103    17544.929    4.9306016 
    4310    887.81128   -6354.7308   -6255.6941   -1507.7998    17527.312    4.9330382 
    4320     880.2545   -6353.3794   -6255.1857   -771.53018    17508.533    4.9374349 
    4330    915.49898   -6356.7597   -6254.6344   -1084.4691    17489.067    4.9375552 
    4340    946.98487   -6359.7322   -6254.0946   -1449.1783    17468.745    4.9293996 
    4350    952.93053    -6359.951   -6253.6502   -1531.0159    17447.283     4.915475 
    4360    967.59483   -6361.2824   -6253.3457   -1512.8736    17424.626    4.9062476 
    4370    957.03397   -6359.9464   -6253.1878   -1188.4407    17400.809    4.9121463 
    4380    950.77178   -6359.2264   -6253.1664   -621.29007    17376.102    4.9338558 
    4390    944.16683   -6358.5731   -6253.2499    705.94664    17351.039    4.9636292 
    4400    939.07307    -6358.173    -6253.418    1935.3235    17326.661    4.9927171 
    4410    943.70049   -6358.9478   -6253.6766     2809.676    17303.998    5.0158976 
    4420    938.90983   -6358.7815   -6254.0447    3602.5184     17283.77    5.0393804 
    4430    913.46642   -6356.3897   -6254.4911    4662.0313    17266.666     5.064595 
    4440    921.03796   -6357.7414   -6254.9983    4622.4995    17253.418    5.0844199 
    4450    948.19162    -6361.377   -6255.6048    4176.1134     17244.04    5.1016333 
    4460    943.47975   -6361.5909   -6256.3443    3914.2063    17238.187    5.1216464 
    4470    913.70926   -6359.0838   -6257.1581    3728.2333    17235.601    5.1417546 
    4480    910.04732   -6359.4861   -6257.9689    3306.5099    17236.085    5.1538264 
    4490    922.12739   -6361.6273   -6258.7626    2723.1405    17239.281      5.15324 
    4500    906.62339   -6360.6452     -6259.51    3294.9094    17244.827    5.1438722 
    4510    897.39841   -6360.2788   -6260.1727    3645.3772    17253.071    5.1342622 
    4520    898.75452   -6360.9891   -6260.7317    3692.9835     17264.33    5.1329615 
    4530    902.45357   -6361.8665   -6261.1964    3048.1801      17278.6    5.1431536 
    4540    911.66393   -6363.2845   -6261.5871    1362.9677     17295.32    5.1624806 
    4550    905.38121   -6362.9105   -6261.9138    500.72663    17313.258    5.1870631 
    4560    890.38869   -6361.5118   -6262.1876    665.81251    17331.684    5.2121238 
    4570    885.18664   -6361.1419    -6262.398    547.70375    17350.658    5.2295622 
    4580    893.78384   -6362.2533   -6262.5504    -404.9504     17370.04    5.2358038 
    4590    896.13168   -6362.6246   -6262.6598   -1103.8072    17389.108    5.2324363 
    4600    886.64317   -6361.6471   -6262.7408   -998.45031    17407.315    5.2248663 
    4610    883.71769   -6361.3652   -6262.7851   -1230.0361    17424.642    5.2189494 
    4620    902.33604   -6363.4617   -6262.8048   -1636.6006    17440.907    5.2187547 
    4630    884.34001   -6361.4585   -6262.8091   -1153.8243    17455.836    5.2255963 
    4640    889.85698   -6362.0696   -6262.8047   -396.96233    17469.787    5.2344933 
    4650    884.89523     -6361.49   -6262.7786    416.98349    17483.413    5.2468937 
    4660    858.90311     -6358.53    -6262.718    672.02526    17497.353    5.2656899 
    4670    847.50412   -6357.1137   -6262.5733   -92.973876    17511.782    5.2846093 
    4680    871.08511   -6359.4854   -6262.3146   -1313.8072    17526.106    5.2940394 
    4690    886.84376   -6360.8969   -6261.9681    -2311.483    17539.317    5.2931992 
    4700    872.77855   -6358.9332   -6261.5734   -2326.2812    17550.626    5.2840573 
    4710    882.95194   -6359.6332   -6261.1386   -2181.7363    17559.928    5.2672936 
    4720    899.19627     -6360.96   -6260.6533   -1812.7742    17567.363    5.2500057 
    4730    907.20379   -6361.3573   -6260.1574   -1307.8784     17573.24    5.2449821 
    4740    907.81031   -6360.9445   -6259.6769   -809.03766    17577.996    5.2600591 
    4750    915.98636   -6361.3931   -6259.2135   -556.44441    17582.052    5.2880207 
    4760    906.17522   -6359.8808   -6258.7955   -675.81252    17585.574     5.318305 
    4770    881.89928   -6356.7808   -6258.4036   -280.93189    17588.567    5.3458587 
    4780     890.0071   -6357.2819   -6258.0003   -1214.5316    17591.206    5.3668964 
    4790    905.01509   -6358.5305   -6257.5747   -1950.1079    17592.822    5.3853962 
    4800    898.27156   -6357.3531   -6257.1495   -1882.8201    17592.819    5.4092518 
    4810     893.0122   -6356.3471   -6256.7302   -2117.8276    17591.163    5.4374163 
    4820    879.99759   -6354.4617   -6256.2967    -2212.308    17587.706    5.4657614 
    4830     910.0023    -6357.364   -6255.8519   -2494.2205      17582.3    5.4928438 
    4840    929.92354   -6359.1547   -6255.4203   -1409.5961    17574.861    5.5222618 
    4850    939.72085   -6359.8941   -6255.0668   -40.008262    17566.219    5.5518188 
    4860    929.54193   -6358.4924   -6254.8006    1167.8511    17557.546    5.5701464 
    4870    946.91867   -6360.2595   -6254.6293    1025.8201    17549.758    5.5720574 
    4880    963.28871   -6362.0245   -6254.5682    160.96373     17542.78    5.5675844 
    4890    962.90148   -6362.0731     -6254.66    -123.6901    17535.967      5.56692 
    4900    943.76562   -6360.1576   -6254.8791    289.97173    17529.081    5.5753503 
    4910    938.86967   -6359.9274   -6255.1951    612.69383    17522.425    5.5990159 
    4920    920.25637   -6358.2425   -6255.5865    1043.9333    17516.293    5.6354338 
    4930    888.22886   -6355.0768   -6255.9935    1822.9071    17511.085    5.6717514 
    4940    899.78956   -6356.7522   -6256.3793     1724.491    17507.364    5.7017549 
    4950    908.05925   -6358.0435   -6256.7482    1381.4651    17505.098    5.7281751 
    4960    923.65331   -6360.1625   -6257.1276    576.43584     17503.97     5.753325 
    4970    922.19623   -6360.4102   -6257.5378    -179.4492    17503.339    5.7780819 
    4980    905.49367   -6358.9668   -6257.9576   -650.97407    17502.586    5.8008853 
    4990    897.85441   -6358.5096   -6258.3526    -1095.275    17501.281    5.8149204 
    5000     895.4588   -6358.5964   -6258.7066   -868.01219    17499.089    5.8197977 
Loop time of 2575.87 on 16 procs for 3000 steps with 864 atoms

Performance: 0.101 ns/day, 238.507 hours/ns, 1.165 timesteps/s
96.7% CPU use with 16 MPI tasks x 1 OpenMP threads

MPI task timing breakdown:
Section |  min time  |  avg time  |  max time  |%varavg| %total
---------------------------------------------------------------
Pair    | 1934.1     | 2254.1     | 2559.6     | 372.4 | 87.51
Bond    | 0.00021911 | 0.00093643 | 0.0022092  |   0.0 |  0.00
Neigh   | 0.039426   | 0.046406   | 0.061151   |   2.8 |  0.00
Comm    | 11.509     | 225.05     | 634.37     |1020.7 |  8.74
Output  | 0.18819    | 0.19887    | 0.357      |   9.2 |  0.01
Modify  | 2.9938     | 96.433     | 200.67     | 834.0 |  3.74
Other   |            | 0.01724    |            |       |  0.00

Nlocal:        54.0000 ave          69 max          47 min
Histogram: 4 3 2 3 1 1 0 0 0 2
Nghost:        566.562 ave         645 max         497 min
Histogram: 4 2 0 2 0 0 2 2 2 2
Neighs:         0.00000 ave           0 max           0 min
Histogram: 16 0 0 0 0 0 0 0 0 0
FullNghs:      2693.50 ave        3914 max        2057 min
Histogram: 3 3 3 2 2 0 1 0 1 1

Total # of neighbors = 43096
Ave neighs/atom = 49.879630
Ave special neighs/atom = 0.0000000
Neighbor list builds = 300
Dangerous builds = 300
Setting up Verlet run ...
  Unit style    : metal
  Current step  : 5000
  Time step     : 0.001
Per MPI rank memory allocation (min/avg/max) = 8.906 | 8.911 | 8.919 Mbytes
Step Temp PotEng TotEng Press Volume c_msd[4] 
    5000     895.4588   -6358.5964   -6258.7066   -868.01219    17499.089    5.8197977 
    5010    876.72553    -6356.494   -6258.6939   -325.93595    17498.797    5.8231981 
    5020    883.00381   -6357.1411   -6258.6407   -437.72139    17498.175    5.8270636 
    5030    900.77143    -6359.032   -6258.5496   -247.85767     17497.21    5.8335865 
    5040    905.77128   -6359.4859   -6258.4457   -34.341349    17496.063    5.8479314 
    5050    939.54325   -6363.1747   -6258.3672   -1874.2776    17494.708    5.8700494 
    5060    940.06119   -6363.2339   -6258.3687   -2713.0719    17491.851    5.8955113 
    5070    912.23804   -6360.2192   -6258.4577   -1835.3306    17486.814    5.9162373 
    5080    909.61478   -6360.0627   -6258.5938   -939.43032    17480.184    5.9269132 
    5090    900.22056   -6359.1709     -6258.75    280.15889     17472.79    5.9321605 
    5100     902.9086   -6359.6437   -6258.9229    1393.5168    17465.617    5.9348053 
    5110    919.57991   -6361.7094   -6259.1289    2143.6784    17459.586    5.9357828 
    5120    940.81031   -6364.3785   -6259.4297    2296.5235    17455.319    5.9372912 
    5130    921.56445   -6362.6611   -6259.8592    2177.9512     17452.99    5.9446565 
    5140    918.99855   -6362.9372   -6260.4216     1435.976    17452.449     5.956977 
    5150     919.8716   -6363.7293   -6261.1163    1070.4485    17453.176    5.9671501 
    5160     904.5648   -6362.8379   -6261.9323    921.42638    17454.839     5.967277 
    5170    931.03264   -6366.7246   -6262.8665   -162.66671    17457.226    5.9547811 
    5180    937.97146   -6368.5609   -6263.9288   -453.98642    17459.584    5.9417908 
    5190     908.4865   -6366.3943   -6265.0513   -31.473292    17461.601    5.9371144 
    5200    866.05714   -6362.6698   -6266.0598    272.11048    17463.589    5.9416748 
    5210    855.11705   -6362.2506    -6266.861    19.135785     17465.78    5.9538244 
    5220    864.81212   -6363.9276   -6267.4565     -316.025    17468.008    5.9694543 
    5230    869.45398   -6364.8704   -6267.8815   -658.44794    17469.987    5.9829971 
    5240    867.90163   -6364.9947    -6268.179   -420.05497    17471.468      5.99303 
    5250    847.08163   -6362.8424   -6268.3491    113.42977    17472.629    6.0006485 
    5260    866.03208   -6365.0111   -6268.4039   -538.95516    17473.804    6.0064533 
    5270    895.54413   -6368.2918   -6268.3925   -1355.9883    17474.524    6.0164618 
    5280    871.96296     -6365.62   -6268.3512   -1101.7247    17474.182    6.0292466 
    5290    865.78645   -6364.8488   -6268.2691   -752.86177    17472.898    6.0364396 
    5300    878.20397   -6366.0874   -6268.1224   -257.79577    17470.976    6.0479834 
    5310    887.26215   -6366.9087   -6267.9333    398.08005    17468.852     6.074007 
    5320    897.32311   -6367.8299   -6267.7322    297.49945    17466.979    6.1092993 
    5330    870.97844    -6364.673    -6267.514    513.81299    17465.392    6.1386561 
    5340    868.81973   -6364.1742    -6267.256    292.41601     17464.22    6.1550243 
    5350      895.974   -6366.8937   -6266.9464   -465.96286    17463.236    6.1637771 
    5360    891.79317   -6366.0914   -6266.6105    180.03918    17461.979    6.1733314 
    5370    896.77539   -6366.3072   -6266.2706    660.46756    17460.848    6.1887733 
    5380     888.7345    -6365.053   -6265.9133    525.02989    17460.223    6.2123151 
    5390    894.95801    -6365.378   -6265.5441    508.28944    17460.065    6.2393233 
    5400    916.13867   -6367.3639   -6265.1673    377.93422    17460.328    6.2619062 
    5410    900.51788   -6365.2623   -6264.8082    1072.2426    17460.992    6.2786859 
    5420    893.62247   -6364.1529    -6264.468    1608.3326    17462.573    6.2891971 
    5430    922.18603   -6366.9984   -6264.1272    1096.3755    17465.475    6.2976508 
    5440    925.00775   -6367.0077   -6263.8217    741.65571    17469.379    6.3090985 
    5450    888.65033    -6362.702   -6263.5718    841.28893    17474.011    6.3212784 
    5460    852.20249   -6358.3722   -6263.3077    613.02961    17479.418    6.3321554 
    5470    863.19817   -6359.2452   -6262.9542   -791.35239    17485.339    6.3464754 
    5480    893.06145   -6362.1155   -6262.4932   -2112.9422    17490.681    6.3707803 
    5490    912.29898   -6363.7602   -6261.9918   -2482.2959     17494.36    6.4036145 
    5500    933.60528   -6365.6622   -6261.5171   -2803.7989    17495.948    6.4345673 
    5510     934.4723   -6365.3524   -6261.1106   -2574.7254    17495.202    6.4595174 
    5520    911.45131   -6362.4653   -6260.7916   -1612.0593    17492.306    6.4776399 
    5530    897.45544   -6360.6188   -6260.5063    -1170.333    17487.942    6.4840272 
    5540    904.90005    -6361.161    -6260.218   -976.04387    17482.484    6.4765403 
    5550    903.96725   -6360.7575   -6259.9186   -589.99506     17476.14    6.4643255 
    5560     915.9328    -6361.794   -6259.6203    -754.3217     17469.17    6.4634158 
    5570    927.76723   -6362.8345   -6259.3407   -1536.5936    17461.422     6.481936 
    5580    938.21921   -6363.7685   -6259.1088   -1722.4076    17452.323    6.5177103 
    5590    926.49418   -6362.2881   -6258.9363   -629.40287    17441.726    6.5616991 
    5600    920.04276   -6361.4418   -6258.8096    548.11121    17430.466    6.5990549 
    5610    926.78548   -6362.0915   -6258.7071    1205.8532     17419.51    6.6187766 
    5620    931.47792   -6362.5556   -6258.6478    1606.3572    17409.442    6.6254013 
    5630    949.15601   -6364.5506   -6258.6709    1245.2497     17400.57     6.629207 
    5640    933.56662   -6362.9512   -6258.8105    897.01914     17392.67    6.6346127 
    5650    916.51824   -6361.3315   -6259.0925     815.1374    17385.483     6.647576 
    5660    908.69175   -6360.8758   -6259.5099    950.54847    17378.949    6.6740845 
    5670    902.65748   -6360.7556   -6260.0628    1458.3119     17373.19    6.7035187 
    5680    914.65717   -6362.8011   -6260.7697    1742.3961    17368.599    6.7232756 
    5690    937.24049   -6366.2389   -6261.6883    1508.3071    17365.411    6.7345397 
    5700    935.26479   -6367.1483   -6262.8181    1238.5855    17363.464    6.7432329 
    5710    921.37575   -6366.8315   -6264.0507    1485.5141      17362.6    6.7534781 
    5720    910.30952   -6366.8075   -6265.2611    923.52929    17362.912      6.76617 
    5730    895.75106   -6366.2533   -6266.3309     51.25609    17363.994    6.7800746 
    5740    896.11414    -6367.195   -6267.2321   -535.21321    17365.156    6.7935337 
    5750    884.59123   -6366.6442   -6267.9667   -620.95058    17365.924    6.8080433 
    5760    883.03964    -6367.064   -6268.5596   -638.66184    17366.186    6.8249268 
    5770    887.74596    -6368.067   -6269.0376   -1060.1629    17365.883    6.8520784 
    5780    900.82328   -6369.9346   -6269.4464   -2022.7854    17364.643    6.8876528 
    5790     882.3381   -6368.2368   -6269.8106   -2021.6118    17361.783    6.9232107 
    5800    858.84009   -6365.9079    -6270.103   -1543.6792    17357.235    6.9503762 
    5810    863.64802   -6366.6469   -6270.3056   -1624.7537    17351.306    6.9708522 
    5820    859.34328   -6366.2718   -6270.4108    -1534.234    17343.965    6.9921619 
    5830    858.20859   -6366.1665   -6270.4321   -1277.6902    17335.252    7.0129515 
    5840    870.34658   -6367.4651   -6270.3766   -1120.1481    17325.367    7.0312469 
    5850    874.33909    -6367.784   -6270.2502   -342.73607    17314.494    7.0532888 
    5860    862.59694   -6366.2667   -6270.0427    398.16548    17303.201    7.0801518 
    5870    875.49079   -6367.4125   -6269.7501    118.17685    17292.044    7.1054656 
    5880     875.7842   -6367.0778   -6269.3828    108.72762    17280.907    7.1280815 
    5890     868.5528   -6365.8542   -6268.9658    752.09053     17269.81    7.1468594 
    5900    882.72753   -6366.9655   -6268.4959    385.24634    17259.148    7.1589108 
    5910    890.47636   -6367.3177   -6267.9838   -211.29153    17248.697    7.1686343 
    5920    900.49263   -6367.9031   -6267.4518   -217.43467    17238.016    7.1846268 
    5930    902.22488   -6367.5587   -6266.9141    464.19558    17227.098    7.2128451 
    5940    896.41663   -6366.3823   -6266.3857    1612.7863    17216.497    7.2511882 
    5950    923.35846   -6368.8728   -6265.8708     2330.341    17207.082    7.2945241 
    5960    901.87842     -6365.99   -6265.3841    3656.9441    17199.586    7.3356223 
    5970    881.24147   -6363.2413   -6264.9375    4041.3583    17194.996    7.3685081 
    5980    906.77652   -6365.6426   -6264.4903    2775.5002    17193.592    7.3924766 
    5990    906.38744   -6365.1539    -6264.045    2415.0032    17194.554    7.4090919 
    6000    893.81434   -6363.3428   -6263.6364    3501.5994    17197.634    7.4172188 
    6010    886.63068   -6362.1541   -6263.2491    4310.4823    17203.632    7.4230241 
    6020    889.06791   -6362.0359    -6262.859    3896.5371    17213.202     7.427146 
    6030    925.28901   -6365.6902   -6262.4729    2622.6934    17226.041    7.4256334 
    6040     933.5273   -6366.2597   -6262.1233    2082.8309    17241.263    7.4241298 
    6050    918.42106   -6364.3072    -6261.856    2394.8558    17258.461     7.424455 
    6060    919.76167   -6364.2585   -6261.6577    2238.5414    17277.786    7.4235761 
    6070    918.85971   -6364.0009   -6261.5007    1896.3361    17299.163    7.4297797 
    6080    911.37028   -6363.0405   -6261.3757    1207.6908     17322.28    7.4465774 
    6090    921.46409   -6364.0713   -6261.2806    104.16478    17346.541    7.4668279 
    6100    906.13421   -6362.2811   -6261.2005   -619.58174    17371.099    7.4887084 
    6110    902.69824   -6361.8278   -6261.1305   -1364.1158    17395.292    7.5145145 
    6120    884.96696   -6359.7686   -6261.0492   -1431.7874    17418.533    7.5447614 
    6130    894.36662   -6360.7144   -6260.9465   -2299.0518    17440.596    7.5741325 
    6140    905.43183   -6361.8124   -6260.8101   -3156.0868    17460.801    7.6101028 
    6150    885.87724   -6359.4864   -6260.6654   -2949.5494    17478.476     7.659114 
    6160    872.61474   -6357.8369   -6260.4954   -2636.6827    17493.706    7.7102369 
    6170     863.7815   -6356.6061     -6260.25   -2358.7061    17506.724    7.7538559 
    6180    864.62789   -6356.3574   -6259.9068   -2486.1984    17517.711    7.7846422 
    6190    888.07873   -6358.5189   -6259.4524   -2981.6113    17526.544    7.7974199 
    6200    889.92883   -6358.1711   -6258.8982   -2998.8301    17532.864    7.7978693 
    6210     874.9732   -6355.8525   -6258.2479   -2360.8654    17536.681    7.7981865 
    6220     890.3033   -6356.7805   -6257.4658   -1840.7609    17538.468    7.8011589 
    6230    913.42925   -6358.4448   -6256.5504   -1408.3796    17538.661    7.8048664 
    6240    896.18153   -6355.5443   -6255.5739    -579.2138    17537.672    7.8137464 
    6250    876.32988   -6352.3407   -6254.5848   -354.03052    17536.153    7.8316576 
    6260    905.12978   -6354.5576    -6253.589   -1642.1061    17534.206    7.8498347 
    6270    907.99072   -6353.9422   -6252.6544   -2102.5174    17530.928    7.8672606 
    6280    897.00061   -6351.9331   -6251.8714   -1674.1861    17525.925     7.885043 
    6290    903.13918   -6351.9674   -6251.2209   -1950.3691     17519.42    7.8983872 
    6300    934.22879   -6354.9206    -6250.706    -2547.033    17511.226    7.9014265 
    6310    953.14222   -6356.6746   -6250.3501   -2164.1708    17500.929    7.8950343 
    6320    949.71826    -6356.117   -6250.1745   -862.28521    17488.872    7.8856124 
    6330    934.62631    -6354.398   -6250.1391   -589.44164    17476.018    7.8752039 
    6340    927.67223   -6353.6776   -6250.1943   -790.11841    17462.644    7.8584896 
    6350    914.54716   -6352.3123   -6250.2932   -16.265176    17448.709    7.8432855 
    6360    909.74439   -6351.8861   -6250.4028    780.07029    17434.792    7.8391132 
    6370     929.9478    -6354.253   -6250.5159    1095.5412    17421.541    7.8425764 
    6380    961.91217    -6357.991   -6250.6882    1475.6076    17409.269    7.8486927 
    6390    958.90294   -6357.9476   -6250.9805    1962.2666    17398.279    7.8585077 
    6400    937.79268   -6355.9931   -6251.3809    2517.0152    17388.988    7.8711987 
    6410    940.59026   -6356.7807   -6251.8565    2717.2373    17381.834    7.8809049 
    6420    949.63831   -6358.3617   -6252.4281    2469.7453    17376.949     7.889552 
    6430    927.35832   -6356.5196   -6253.0714    2494.5327    17374.176    7.9008247 
    6440    919.62716   -6356.3199   -6253.7341    2861.4217    17373.551    7.9110652 
    6450    925.81533   -6357.6771    -6254.401    2687.9505    17375.299    7.9177682 
    6460    927.90701   -6358.5844    -6255.075    1978.2072    17379.269    7.9232683 
    6470    902.44682   -6356.4026   -6255.7333     1956.422    17384.959    7.9361883 
    6480    886.32033   -6355.1813   -6256.3109    1960.4277    17392.309    7.9634074 
    6490    904.86125   -6357.7476    -6256.809    869.49109    17401.221    7.9970582 
    6500    917.71265   -6359.6356   -6257.2634     234.8026    17410.901    8.0278815 
    6510    916.25183   -6359.9243    -6257.715    281.07727    17420.825    8.0592844 
    6520    881.83117   -6356.5026    -6258.133    235.98128     17430.97    8.0962734 
    6530    857.67367   -6354.1431   -6258.4683   -566.28696     17441.26    8.1348534 
    6540    859.83121   -6354.6006   -6258.6851     -1732.15    17451.034    8.1738591 
    6550    892.36068   -6358.3593   -6258.8151   -2476.0162    17459.356    8.2149854 
    6560    913.74048   -6360.8491   -6258.9199   -2667.8396    17465.604    8.2546216 
    6570    921.05748   -6361.8037   -6259.0584   -2208.2906    17469.625    8.2916985 
    6580     918.5766   -6361.7035   -6259.2349    -1593.029     17471.79    8.3270518 
    6590    914.06695   -6361.4175   -6259.4519   -2003.3996    17472.512    8.3596616 
    6600    914.28496   -6361.6906   -6259.7008   -2382.9307    17471.537    8.3859347 
    6610    924.53449   -6363.1251   -6259.9919   -2099.1733     17468.59      8.40492 
    6620    923.38488   -6363.3414   -6260.3365    -1824.165    17463.854    8.4181582 
    6630    924.68644   -6363.8764   -6260.7262   -1667.9734    17457.567    8.4252563 
    6640    911.21431   -6362.8028   -6261.1555   -865.80878    17449.936    8.4322806 
    6650    884.41055   -6360.2491   -6261.5918    216.97001    17441.603    8.4386704 
    6660    888.63308   -6361.1273    -6261.999    355.81611    17433.395    8.4380606 
    6670    896.98921     -6362.44   -6262.3795    195.98988    17425.494    8.4397065 
    6680    900.84834   -6363.2455   -6262.7545    487.27474     17417.81    8.4558539 
    6690    894.75724    -6362.929   -6263.1175    1417.7152    17410.624    8.4860929 
    6700    899.07761   -6363.7713   -6263.4778    1907.5532    17404.607     8.524921 
    6710    889.43326   -6363.0383   -6263.8207    2482.9623    17400.252    8.5617185 
    6720    887.99589   -6363.2038   -6264.1465    2474.4442    17397.961    8.5899041 
    6730    879.98903   -6362.6022   -6264.4381    1820.9841    17397.721    8.6175751 
    6740    877.28493   -6362.5443   -6264.6818     943.5843    17399.017    8.6358212 
    6750    897.18822    -6364.967   -6264.8843   -334.90966     17401.07    8.6383553 
    6760    899.80157   -6365.4456   -6265.0713   -712.10539    17402.918    8.6377335 
    6770    882.05085   -6363.6477   -6265.2536   -569.30428    17404.187    8.6444337 
    6780    867.25117   -6362.1443   -6265.4011   -486.86218    17404.975    8.6533098 
    6790    872.49475   -6362.8193   -6265.4912   -381.09171    17405.357    8.6574117 
    6800     881.1046   -6363.8202   -6265.5317   -320.83587    17405.417    8.6605771 
    6810     885.8861   -6364.3601   -6265.5381   -892.26747    17405.157    8.6646452 
    6820    887.94259   -6364.5673   -6265.5159   -1556.0223    17404.136    8.6705738 
    6830    887.71965   -6364.4825   -6265.4561   -1776.6386    17401.838    8.6833114 
    6840    892.53244   -6364.9243    -6265.361   -1191.6782    17398.108    8.7030015 
    6850    882.65278   -6363.6735   -6265.2122   -224.80216    17393.424    8.7279842 
    6860    884.07022   -6363.6054    -6264.986   -587.81983    17388.471    8.7529439 
    6870    892.33773   -6364.1991   -6264.6574   -1783.4519    17382.968    8.7677559 
    6880    892.09626   -6363.7324   -6264.2177   -2303.5256    17376.032    8.7693986 
    6890    907.31978   -6364.8649    -6263.652   -1481.9449    17367.306    8.7612649 
    6900    921.62883   -6365.7766   -6262.9675   -391.93976     17357.36    8.7548671 
    6910    904.10045   -6363.0689   -6262.2152    1301.8459    17347.166    8.7605696 
    6920    896.33451   -6361.3994    -6261.412    2039.2511    17338.018    8.7768256 
    6930    907.23124   -6361.7656   -6260.5626    1435.1585    17330.521    8.7984055 
    6940    926.81338   -6363.1036   -6259.7162    211.25855    17324.191    8.8214428 
    6950    930.27517   -6362.7101   -6258.9365    -18.49783    17318.118    8.8454096 
    6960    914.15454   -6360.2293    -6258.254    1169.5637    17312.157    8.8770699 
    6970    912.14822   -6359.4059   -6257.6544    1872.9916    17307.128    8.9154395 
    6980    924.61692   -6360.2604    -6257.118    1900.8101    17303.615    8.9438002 
    6990    905.15628   -6357.6247   -6256.6531    2220.9361    17301.743    8.9480261 
    7000    893.88973    -6355.955   -6256.2402    2274.4488    17301.704     8.929399 
    7010    905.58464   -6356.8645   -6255.8452    2639.7148    17303.596     8.903158 
    7020    911.10853   -6357.1077   -6255.4721    2849.6734    17307.699    8.8884068 
    7030     919.9687   -6357.7695   -6255.1456    2550.0765    17314.144    8.8859225 
    7040    918.79912   -6357.3621   -6254.8686     2738.959    17322.783    8.8912438 
    7050    934.33565   -6358.8888   -6254.6623    2370.3244    17333.675    8.9022696 
    7060    911.96739   -6356.2461   -6254.5148    2233.9196    17346.629    8.9140606 
    7070    935.43013   -6358.7615   -6254.4129    1112.1574    17361.427    8.9131739 
    7080    964.46627   -6361.9549   -6254.3673   -255.80917    17377.171    8.9024842 
    7090    951.46949   -6360.5904   -6254.4525   -55.829081    17392.877    8.8901483 
    7100    941.92554   -6359.7503   -6254.6771   -44.395401    17408.545    8.8820451 
    7110    929.32336   -6358.6683   -6255.0009    23.572264    17424.223    8.8828623 
    7120     919.8954   -6358.0181   -6255.4024   -101.86765    17439.953    8.8861095 
    7130     929.3938   -6359.5295   -6255.8543   -1315.4655    17455.559    8.8794602 
    7140    943.23256   -6361.6115   -6256.3925   -2675.5185    17470.079    8.8674849 
    7150    914.64587   -6359.0337   -6257.0035   -2738.8148    17482.483    8.8693652 
    7160    918.21802   -6360.0957   -6257.6671    -2836.955    17492.559    8.8868274 
    7170    911.67451   -6360.0563   -6258.3577   -2502.9531    17500.277    8.9073789 
    7180    916.07012   -6361.2522   -6259.0632   -2607.4674    17505.835    8.9169757 
    7190    912.71086   -6361.5786   -6259.7643   -2875.3561    17509.169    8.9172634 
    7200    907.63729   -6361.6796   -6260.4313    -2952.133    17510.075    8.9177769 
    7210    924.63464    -6364.209   -6261.0646   -3299.0389    17508.439    8.9231775 
    7220    929.74558   -6365.3996   -6261.6851   -3651.3438    17503.973    8.9373268 
    7230    906.00036   -6363.3535   -6262.2878   -3188.7799    17496.426     8.958103 
    7240     883.4749    -6361.356   -6262.8031   -2183.5387    17486.167    8.9780148 
    7250    890.14406   -6362.5092   -6263.2123   -1450.6753    17473.977    8.9893941 
    7260    899.29289   -6363.8472   -6263.5297   -601.73775    17460.532    8.9905648 
    7270    917.57969   -6366.1617   -6263.8043    96.665218    17446.519    8.9868327 
    7280     903.7444    -6364.862    -6264.048    893.69662    17432.556    8.9890473 
    7290    886.25897   -6363.1171   -6264.2536    1311.1791    17419.268    8.9968767 
    7300    890.75672   -6363.7743    -6264.409    1068.9757    17406.998    9.0071086 
    7310    916.74491   -6366.8059   -6264.5416    589.34201    17395.586    9.0189426 
    7320    934.03549   -6368.9017   -6264.7086   -207.87659    17384.594    9.0342657 
    7330     915.8144   -6367.0874   -6264.9269   -414.87046    17373.426     9.054264 
    7340    910.81931   -6366.7718   -6265.1686   -156.45475      17361.9    9.0735967 
    7350     909.2657   -6366.8482   -6265.4182    670.27222    17350.259    9.0884075 
    7360    891.26674   -6365.0813   -6265.6592    1747.4349    17339.175    9.0940841 
    7370    874.02322   -6363.3619   -6265.8633    1942.6478     17329.45    9.0912274 
    7380    887.56952   -6365.0396   -6266.0299    1524.2242    17321.266    9.0900143 
    7390    895.14105   -6366.0128   -6266.1585    1529.5807    17314.372     9.101998 
    7400    917.12495   -6368.6015   -6266.2948    1453.8306    17308.719    9.1302711 
    7410    918.48814   -6368.9178   -6266.4591    1898.0416    17304.312    9.1625342 
    7420    913.19728   -6368.5324   -6266.6639    2096.1128    17301.447    9.1823805 
    7430     899.6327   -6367.2474   -6266.8921    1841.3176    17300.297     9.186201 
    7440    879.68702   -6365.2395   -6267.1091    1436.7311    17300.689    9.1811037 
    7450    894.08096   -6367.0419   -6267.3058    624.00898    17302.254    9.1755053 
    7460    901.32149   -6368.0387   -6267.4949    624.00676    17304.411     9.175025 
    7470    883.84994   -6366.2772   -6267.6824     1755.131    17307.194    9.1844153 
    7480     880.2452   -6366.0492   -6267.8566    2655.8709    17311.431    9.2043751 
    7490    871.27896    -6365.186   -6267.9935     3309.149    17317.913    9.2310062 
    7500    883.54698   -6366.6626   -6268.1016    2865.5548    17327.143    9.2542034 
    7510    885.59296   -6366.9608   -6268.1715    1802.2703    17338.817     9.266491 
    7520    899.41583   -6368.5479   -6268.2167     349.2369    17352.046     9.268473 
    7530    896.19757   -6368.2164   -6268.2442   -222.73684    17365.742    9.2693941 
    7540    882.67561   -6366.7241   -6268.2603   -205.48402    17379.394    9.2759682 
    7550    872.09853    -6365.521   -6268.2371   -410.21393    17392.928    9.2902944 
    7560     880.6987     -6366.39   -6268.1468   -893.17461    17406.188    9.3094597 
    7570    886.19499   -6366.8445   -6267.9881   -1386.9227    17418.784    9.3328133 
    7580    874.73822    -6365.329   -6267.7507   -1505.8797    17430.324    9.3592676 
    7590    889.08377   -6366.5972   -6267.4186   -2061.5385    17440.604    9.3817838 
    7600    897.84131   -6367.1322   -6266.9767   -2212.7962    17449.239      9.39125 
    7610    898.53621   -6366.6776   -6266.4445   -2261.4415    17456.049    9.3889795 
    7620    881.37048   -6364.1356   -6265.8174    -2481.565    17460.971    9.3817925 
    7630    898.34542   -6365.3163   -6265.1045   -3428.2321    17463.745    9.3738667 
    7640    897.53734   -6364.4438   -6264.3221   -3253.0139    17463.719    9.3794114 
    7650    895.60598   -6363.4314   -6263.5252   -3015.5854    17460.922    9.4072747 
    7660    889.52919   -6361.9447   -6262.7163    -2702.124     17455.56     9.445108 
    7670    880.96245   -6360.1868   -6261.9141   -2098.6288    17447.892     9.471152 
    7680     896.5976   -6361.1422   -6261.1254   -1943.8203    17438.353     9.474945 
    7690    889.16129   -6359.5595   -6260.3722   -1045.7403    17427.193    9.4656987 
    7700    874.60983   -6357.2405   -6259.6765    83.105024    17415.128    9.4489813 
    7710    865.60098   -6355.5535   -6258.9944    307.27944     17403.04    9.4331717 
    7720    914.03347   -6360.2922   -6258.3304   -903.93782    17391.048    9.4279184 
    7730    939.79275   -6362.5731   -6257.7379   -1191.8689    17378.336    9.4349933 
    7740    934.81698   -6361.5719   -6257.2917   -552.58279    17364.657    9.4503189 
    7750    938.37202   -6361.6572   -6256.9804   -376.50374    17350.432    9.4720158 
    7760    940.19639    -6361.663   -6256.7827  -0.42826551     17335.87     9.494638 
    7770     932.7525   -6360.7392   -6256.6893    1150.2502    17321.343    9.5136156 
    7780    920.58582   -6359.3547   -6256.6619    2086.4338    17307.734    9.5359645 
    7790     933.3989   -6360.8109   -6256.6889    2538.9309    17295.815    9.5705373 
    7800    936.59295   -6361.2541   -6256.7757     2842.284    17285.996    9.6139892 
    7810    946.98607   -6362.5969   -6256.9591    2839.1571     17278.51    9.6559755 
    7820    932.27464   -6361.2344   -6257.2378    3668.6464    17273.455    9.6956512 
    7830    926.29483   -6360.9098   -6257.5803    4530.7904    17271.457    9.7291974 
    7840    923.22211   -6360.9879   -6258.0011    5159.6783    17273.232    9.7533651 
    7850     902.6495   -6359.1697   -6258.4778    5171.1259    17279.277    9.7663562 
    7860    909.47749   -6360.4269   -6258.9733    3536.6692    17289.538    9.7663187 
    7870    935.14504   -6363.8245   -6259.5077    1964.9329    17302.815    9.7654607 
    7880    931.05878   -6363.9703   -6260.1093    1469.0067    17317.866    9.7736892 
    7890    912.82693   -6362.5795   -6260.7523    1316.9307    17334.235    9.7889887 
    7900    904.50659   -6362.2855   -6261.3864    594.03927    17351.722    9.8075126 
    7910     893.3121   -6361.6156   -6261.9653   -527.96108    17369.741    9.8281908 
    7920    888.06242   -6361.5343   -6262.4696   -1625.1149    17387.365     9.854466 
    7930    893.01346   -6362.5291   -6262.9121   -2336.9636    17403.684     9.890613 
    7940    889.37496   -6362.5174   -6263.3063   -2684.6725    17418.085    9.9296889 
    7950    872.99676   -6361.0316   -6263.6475   -2407.4019    17430.278    9.9610251 
    7960    874.65979   -6361.4895   -6263.9199   -2041.5079    17440.455    9.9771175 
    7970    891.49708   -6363.5747   -6264.1269   -2287.5173    17448.865     9.983056 
    7980    900.51676   -6364.7489   -6264.2949   -2550.0217     17455.35    9.9888331 
    7990    911.32424   -6366.1188   -6264.4592   -2907.2708    17459.656    9.9970786 
    8000    899.08791   -6364.9142   -6264.6196   -2574.5642    17461.555    10.008709 
    8010    879.31447   -6362.8425   -6264.7537   -2379.3278    17461.245    10.023088 
    8020    876.43811   -6362.6116   -6264.8436   -2188.0604    17458.918    10.042036 
    8030    872.33926   -6362.1871   -6264.8764    -1739.931    17454.753    10.065167 
    8040    877.85073   -6362.7813   -6264.8558   -1638.6476    17449.077    10.080603 
    8050    884.84514   -6363.4906   -6264.7848   -1525.3276    17442.014    10.082461 
    8060     887.5106   -6363.6871    -6264.684   -1164.4328    17433.692    10.072842 
    8070    893.37238   -6364.2191    -6264.562   -1152.5078    17424.383    10.053826 
    8080    919.27368   -6366.9897   -6264.4433   -1840.7174    17414.075    10.034698 
    8090    927.21921   -6367.7978   -6264.3651    -1833.335    17402.313    10.023717 
    8100    891.78217    -6363.807   -6264.3274    -364.4032    17389.183    10.024712 
    8110    881.19137   -6362.5704   -6264.2722    95.444253    17375.708    10.028763 
    8120      906.976   -6365.3617   -6264.1872   -7.0659694     17362.33     10.02001 
    8130    909.79634   -6365.5905   -6264.1014    173.63939    17349.011    9.9970453 
    8140    901.56252   -6364.6024   -6264.0318    741.83651    17335.917    9.9732932 
    8150    905.32875   -6364.9503   -6263.9595    882.28905    17323.473    9.9582851 
    8160    933.07605   -6367.9996   -6263.9135   -134.44221     17311.71    9.9472507 
    8170    932.61845   -6367.9686   -6263.9336   -514.16871    17299.934    9.9369681 
    8180    915.10209   -6366.1192   -6264.0382    132.21134    17287.843    9.9219564 
    8190    909.00308     -6365.59   -6264.1893    901.95564    17275.916    9.9017325 
    8200    902.56664   -6365.0727     -6264.39    1508.3226    17264.796    9.8861753 
    8210    892.19043   -6364.1774   -6264.6522    1290.2313    17254.911    9.8830297 
    8220     915.1305   -6367.0916   -6265.0075    490.87049    17246.081    9.8901297 
    8230    922.45499   -6368.4188   -6265.5176    1308.2374     17237.83    9.9048105 
    8240    911.75649    -6367.928   -6266.2201    2944.4629    17230.758    9.9227567 
    8250    900.81003   -6367.5786   -6267.0918     3550.333    17226.078    9.9392212 
    8260    899.03981   -6368.3767   -6268.0874    2710.2256    17224.251    9.9567788 
    8270    887.21092   -6368.0944   -6269.1247    2427.2588    17224.738    9.9774086 
    8280    882.75121   -6368.5949   -6270.1227    2583.8623    17227.266    9.9988095 
    8290    879.77135   -6369.1768    -6271.037    2678.7515    17231.926    10.020492 
    8300     885.2911   -6370.5855   -6271.8299    2166.6575    17238.758    10.039653 
    8310    913.56815   -6374.4501   -6272.5401    1111.0373    17247.336    10.048163 
    8320    908.50357   -6374.5418   -6273.1968    543.13945    17256.876    10.043158 
    8330     881.2387   -6372.0806   -6273.7771    657.96595    17266.929    10.028024 
    8340    886.48862   -6373.1554   -6274.2663    891.37013    17277.528    10.012989 
    8350     878.6853   -6372.6916    -6274.673    1442.3647    17288.904    10.008614 
    8360    856.89216   -6370.5867   -6274.9991    1897.1552    17301.478    10.013085 
    8370    836.98688   -6368.5775   -6275.2104    2033.3253    17315.614    10.019158 
    8380    848.58513   -6369.9522   -6275.2913    890.23684    17331.336    10.025411 
    8390    874.88682   -6372.8475   -6275.2526   -962.49239    17347.747    10.033779 
    8400    879.39939   -6373.2401   -6275.1418   -1696.4699    17363.433    10.045563 
    8410    852.29965    -6370.052   -6274.9767   -1577.8722    17377.755    10.056236 
    8420    862.40097   -6370.9412   -6274.7391   -2805.3953    17390.627    10.062442 
    8430    865.14045   -6370.9109   -6274.4032   -4165.3676    17401.128    10.074553 
    8440     867.0432   -6370.7076   -6273.9876   -4588.0134    17408.182    10.100818 
    8450    888.66936   -6372.6428   -6273.5104   -4667.8195     17411.35    10.135208 
    8460    894.63666   -6372.7983   -6273.0002   -3696.8722    17410.673    10.169764 
    8470    881.60925   -6370.8273   -6272.4824   -2876.8333    17406.861     10.19031 
    8480    879.93115   -6370.1073   -6271.9497   -2644.5663    17400.586    10.183666 
    8490    894.17674   -6371.1394   -6271.3926   -2613.7471    17392.054    10.154831 
    8500    889.97176   -6370.1001   -6270.8224   -1189.9646     17381.44    10.123489 
    8510    901.02309   -6370.7749   -6270.2644     291.9126    17369.832    10.102523 
    8520    921.71223   -6372.5444    -6269.726    727.24041    17358.415    10.095021 
    8530    910.54401    -6370.833   -6269.2604    863.13619    17347.599    10.110378 
    8540    862.14109   -6365.0184   -6268.8452    1663.0577     17337.59    10.149971 
    8550    867.22717   -6365.1466   -6268.4062    814.00546    17328.844    10.190132 
    8560     923.0233   -6370.9002   -6267.9356   -719.22491    17320.743    10.207037 
    8570    921.42886   -6370.3046   -6267.5178   -740.63231    17312.178    10.198356 
[...]
   22890    891.52039   -6386.4625   -6287.0121    746.31403    16777.256    21.843871 
   22900    888.91637    -6386.519    -6287.359    595.36715    16790.453    21.856046 
   22910    881.75505   -6386.0192   -6287.6581    823.77399    16804.163    21.889209 
   22920    880.55183   -6386.1287   -6287.9018    612.17997    16818.501    21.934272 
   22930    876.29525   -6385.8406   -6288.0885     66.59483    16833.308    21.984824 
   22940    852.40846   -6383.2905    -6288.203   -337.52455    16848.196    22.036095 
   22950    847.88249   -6382.7989   -6288.2164   -1560.5771    16862.782    22.083195 
   22960    864.30902   -6384.5215   -6288.1065    -3051.836    16876.124    22.118783 
   22970    904.71738   -6388.8449   -6287.9223   -4049.6455    16887.073    22.144827 
   22980    912.93412   -6389.5888   -6287.7497   -3938.5451    16894.886    22.176383 
   22990    887.27689   -6386.5942   -6287.6172   -2861.9334    16899.637    22.221817 
   23000    882.11882   -6385.8806   -6287.4789   -2710.7413    16902.032    22.269375 
   23010    894.92057    -6387.134   -6287.3043   -3546.9782    16902.201    22.307965 
   23020    906.68138   -6388.2617   -6287.1201   -4355.5108    16899.548    22.334913 
   23030    908.38286   -6388.2794   -6286.9479   -4081.9125    16893.521    22.348292 
   23040     901.0541   -6387.3026   -6286.7887   -3382.0062    16884.279    22.348689 
   23050    887.43804   -6385.6294   -6286.6344     -2639.32    16872.355    22.339785 
   23060    865.30556   -6382.9592   -6286.4331   -854.73845    16858.455    22.326465 
   23070    884.94892   -6384.8579   -6286.1405   -290.64793    16843.814    22.311754 
   23080    910.72845    -6387.359   -6285.7659   -451.70864    16828.938    22.306505 
   23090    918.29576   -6387.7929   -6285.3556    -28.73228    16813.799    22.318026 
   23100    921.11116   -6387.6842   -6284.9328    988.25998    16798.746    22.335287 
   23110    916.12964   -6386.6874   -6284.4918    1796.5123    16784.514    22.347333 
   23120    910.81903   -6385.6317   -6284.0285    1903.8616    16771.706    22.354708 
   23130    898.71521   -6383.7676   -6283.5145    1729.5284    16760.433    22.359898 
   23140     899.4439   -6383.2468   -6282.9125    1204.1849    16750.532     22.35282 
   23150    917.11842   -6384.4991   -6282.1932    1140.0745    16741.661    22.325663 
   23160    927.34962   -6384.7995   -6281.3523    1377.4553    16733.749    22.286991 
   23170     947.4434    -6386.104   -6280.4153    1015.7693    16726.902    22.239435 
   23180    966.65983   -6387.2966   -6279.4643    633.32358    16720.873    22.180713 
   23190    936.37796   -6383.0283   -6278.5739    2071.3982    16715.523    22.116956 
   23200    916.78565   -6380.0353   -6277.7665    3683.2098    16711.822     22.05298 
   23210    930.01826   -6380.7436   -6276.9987    4277.6949    16710.938    21.988801 
   23220     939.2071   -6381.0518   -6276.2819     4415.595    16713.378    21.935614 
   23230     948.6066   -6381.4917   -6275.6732    3823.0215    16719.183    21.915658 
   23240    946.41718   -6380.7702   -6275.1959    3404.6912    16727.953    21.939315 
   23250    960.62267   -6382.0174   -6274.8585    2722.8497    16739.299    21.993948 
   23260    978.59618    -6383.848   -6274.6841    2136.5039     16752.69    22.054569 
   23270    962.78927   -6382.0971   -6274.6965    2634.6688    16767.743    22.111929 
   23280    950.19854   -6380.8701   -6274.8741    2453.8471    16784.684    22.161683 
   23290    938.52885   -6379.8502   -6275.1559    1778.2905    16803.381    22.199059 
   23300    930.77998   -6379.3304   -6275.5005    1606.3463    16823.361    22.219557 
   23310    944.45975    -6381.262   -6275.9061    1297.0034    16844.415    22.209039 
   23320    947.67104   -6382.1103   -6276.3961     1102.717    16866.299    22.163575 
   23330    927.26533   -6380.3941   -6276.9563    748.35894    16888.807    22.102169 
   23340    916.45749   -6379.7593   -6277.5271   -44.252511     16911.62    22.043821 
   23350    910.76315   -6379.6618   -6278.0648   -1039.4922    16934.095    21.996946 
   23360    904.03817   -6379.4011   -6278.5542   -1992.7916    16955.443    21.963645 
   23370    898.26975   -6379.1737   -6278.9704   -2303.2016    16974.937    21.940806 
   23380    886.00321   -6378.1533   -6279.3183   -1798.8686    16992.356    21.920396 
   23390    880.68366   -6377.8225   -6279.5809   -2359.8547    17007.972    21.901243 
   23400    887.87364    -6378.796   -6279.7523   -3970.2434    17021.364    21.881219 
   23410    896.72151   -6379.8901   -6279.8594    -5165.874    17031.379    21.865673 
   23420    903.55246   -6380.7318   -6279.9392    -5439.792     17037.13    21.869997 
   23430    930.25642   -6383.8087   -6280.0372   -5379.9998    17038.424    21.898288 
   23440    928.80809   -6383.7994   -6280.1895   -4984.4201    17035.405    21.933945 
   23450    904.52517    -6381.284   -6280.3829   -4482.7145    17028.457     21.95939 
   23460    898.18286   -6380.7691   -6280.5755   -3802.6342    17018.066    21.971707 
   23470    900.02581   -6381.1316   -6280.7323   -3127.0093    17004.854    21.975396 
   23480    913.84264   -6382.8284   -6280.8879    -2874.455     16989.39    21.972694 
   23490    919.13592   -6383.5993   -6281.0683   -2478.5074     16971.98    21.966122 
   23500    889.14723   -6380.4353   -6281.2496   -1604.8647    16953.039    21.966616 
   23510    887.69974    -6380.431   -6281.4067   -1285.5325    16933.215    21.977581 
   23520    890.81138   -6380.8969   -6281.5256    -1261.842    16912.823    21.997242 
   23530    893.15961   -6381.2559   -6281.6226   -1452.2882    16891.906    22.022138 
   23540    897.98451   -6381.8755    -6281.704   -1692.5813    16870.358    22.045788 
   23550    899.67744   -6382.1361   -6281.7757   -1650.8049    16848.045    22.059009 
   23560    911.68223   -6383.5511   -6281.8516   -1367.6426    16825.039    22.055117 
   23570    943.08601   -6387.1718   -6281.9692   -1318.2425     16801.57    22.040528 
   23580    953.63723   -6388.5575   -6282.1778    -615.3421    16777.799     22.02776 
   23590     941.5854    -6387.532   -6282.4967    49.355778    16754.243    22.020739 
   23600    935.40651   -6387.2558   -6282.9098    565.89066    16731.425    22.016045 
   23610     928.2654   -6386.9522   -6283.4028    1400.6589    16709.766    22.011337 
   23620    907.13826   -6385.1379   -6283.9452    1967.2041    16689.827    22.007969 
   23630    908.87232   -6385.9032   -6284.5171    1604.3473    16671.937    22.004442 
   23640    902.90669   -6385.8354   -6285.1148    1549.3799    16655.851    21.996894 
   23650    883.94527   -6384.2962   -6285.6908    2440.7458    16641.544    21.985923 
   23660    898.58266   -6386.4555   -6286.2173    2286.6296    16629.477    21.976649 
   23670    931.69281   -6390.6802   -6286.7485    1954.3521    16619.524    21.975629 
   23680    914.77766   -6389.3354   -6287.2906    2626.1711    16611.462    21.988161 
   23690    914.24464    -6389.823   -6287.8376    3014.8928    16605.627    22.011176 
   23700    914.10533   -6390.3424   -6288.3725    3376.6561    16602.268    22.034987 
   23710    909.02133   -6390.2952   -6288.8925    3538.0878    16601.554    22.041504 
   23720    897.65886   -6389.5087   -6289.3735     4113.442    16603.604     22.02186 
   23730    894.56413   -6389.5836   -6289.7936    3630.2079    16608.636    21.969932 
   23740    918.37426   -6392.6055   -6290.1595    1920.5135     16616.19    21.893629 
   23750    918.53292   -6392.9659   -6290.5022    905.08317    16625.024    21.822705 
   23760    894.00712   -6390.5452   -6290.8174    370.39066    16634.318     21.77044 
   23770    889.83534   -6390.3365    -6291.074   -232.01709    16643.601    21.732613 
   23780    884.06003   -6389.8828   -6291.2646    174.13767    16652.495    21.715611 
   23790    891.15703   -6390.8137   -6291.4038    263.51982    16661.228    21.723696 
   23800    911.95242   -6393.2378   -6291.5081   -525.41826    16669.831    21.744192 
   23810    911.36342   -6393.2809   -6291.6169   -856.95677     16677.82     21.75794 
   23820    896.63874   -6391.7547   -6291.7333   -445.65953    16684.987    21.762878 
   23830    877.09557   -6389.6748   -6291.8335   -215.07495    16691.592    21.775555 
   23840    859.11817   -6387.7121   -6291.8762   -331.15853    16697.819     21.80609 
   23850    854.30401   -6387.1332   -6291.8343   -465.32547    16703.621    21.844674 
   23860    874.36999   -6389.2471   -6291.7098   -959.08088    16708.886    21.867444 
   23870    887.32993   -6390.5101   -6291.5271   -1083.0166    16713.296     21.85577 
   23880    884.93526   -6390.0421   -6291.3262   -540.90664    16716.789    21.810482 
   23890    890.33109   -6390.4257   -6291.1079   -178.71571    16719.768    21.741995 
   23900    891.50574   -6390.3217   -6290.8729   -270.08518    16722.501    21.670521 
   23910    888.50426     -6389.74    -6290.626   -44.561831        16725    21.615844 
   23920    909.25566   -6391.7965   -6290.3676   -782.83669    16727.329    21.590963 
   23930    923.62266   -6393.1585    -6290.127   -1299.6712    16729.008    21.598571 
   23940    896.30959    -6389.913   -6289.9283    -731.6883    16729.711    21.632426 
   23950    882.23342   -6388.1564   -6289.7419   -458.02022    16729.806    21.683103 
   23960    882.32883   -6387.9435   -6289.5183   -409.44173     16729.53    21.740167 
   23970    893.04799   -6388.8787   -6289.2579   -390.34054     16728.94    21.784331 
   23980    901.84392   -6389.5763   -6288.9743   -691.37045    16728.043     21.80148 
   23990    893.08497   -6388.2989   -6288.6739   -544.60025    16726.673    21.792761 
   24000     897.2576   -6388.4506   -6288.3601   -312.59569    16724.906    21.763069 
   24010    893.10745   -6387.6481   -6288.0206    321.41639    16722.979    21.725849 
   24020    887.93019   -6386.7075   -6287.6575    510.84035     16721.32    21.700377 
   24030    890.27459   -6386.5799   -6287.2684    159.73416    16720.057    21.707987 
   24040    890.87101   -6386.2126   -6286.8346    357.27529    16718.989    21.745527 
   24050    891.74018   -6385.8182   -6286.3433    545.03295    16718.212     21.79356 
   24060    907.04894   -6386.9826   -6285.7999    697.27398    16717.866    21.835226 
   24070    915.66314   -6387.3755   -6285.2319    936.53432    16718.086    21.860614 
   24080    918.00713   -6387.0769   -6284.6718    1143.5663    16719.033    21.870417 
   24090    914.18542   -6386.1006   -6284.1219    873.64295    16720.818    21.868509 
   24100    935.14224   -6387.8979   -6283.5814    112.47217    16723.214    21.852495 
   24110     951.5602   -6389.2267   -6283.0787    31.034667    16725.688    21.835207 
   24120    934.97162   -6386.9478   -6282.6503    441.24646    16728.169    21.827432 
   24130      931.062     -6386.16   -6282.2986    307.65205    16730.898    21.828859 
   24140    919.68959   -6384.5816   -6281.9888    474.70529    16733.841    21.839099 
   24150    910.92399   -6383.3117   -6281.6967    857.50284    16737.116     21.85964 
   24160    926.37065   -6384.7263   -6281.3883    602.08638    16740.975    21.891944 
   24170    964.48357   -6388.6731   -6281.0835   -539.69344    16745.198    21.937919 
   24180    969.26722   -6388.9768   -6280.8536   -1020.1462    16748.984    21.990497 
   24190    960.98876   -6387.9489   -6280.7492   -555.45788    16751.995    22.035521 
   24200    954.25477    -6387.225   -6280.7764    82.130483    16754.545    22.063493 
   24210    940.93528    -6385.912   -6280.9493    956.81166     16757.17    22.071985 
   24220    950.52383   -6387.3278   -6281.2954    874.94888    16760.442    22.059385 
   24230    947.30505   -6387.5382   -6281.8649    965.08537    16764.387    22.038098 
   24240    906.92014   -6383.8041   -6282.6358    1512.6688    16769.075    22.024584 
   24250    886.50941   -6382.3908   -6283.4994    1147.7557    16774.818    22.021773 
   24260    904.13033   -6385.2642   -6284.4071   -46.686963    16781.327    22.020706 
   24270    914.96201   -6387.4267   -6285.3613   -484.85612    16787.774    22.017351 
   24280    901.06572   -6386.8332    -6286.318    242.49138    16793.861      22.0157 
   24290    898.37398   -6387.4299   -6287.2149    149.19975    16800.006    22.015341 
   24300    906.17626   -6389.1168   -6288.0315    -1299.158     16806.11     22.01643 
   24310    903.25817   -6389.5268    -6288.767   -3015.2526    16811.107    22.034397 
   24320    890.27269   -6388.7304   -6289.4191   -3626.7982    16813.756    22.081373 
   24330    897.31453   -6390.0929   -6289.9962   -3871.0503    16813.548    22.144238 
   24340    909.39431   -6391.9782   -6290.5339     -3924.02    16810.321    22.208211 
   24350    901.78435   -6391.6421   -6291.0467   -3129.6393    16804.128    22.255926 
   24360    907.69943    -6392.782   -6291.5268   -2211.7354    16795.558    22.275759 
   24370    924.53848   -6395.1417   -6292.0081   -800.32993    16785.393    22.265164 
   24380    887.31304   -6391.4517   -6292.4706    1497.2986    16774.796    22.230041 
   24390    871.30429   -6390.0636   -6292.8683    2141.6854    16765.371    22.190156 
   24400    881.93808   -6391.5847   -6293.2032    1342.2253    16757.638    22.173155 
   24410    866.09666   -6390.0902   -6293.4758    1103.9314    16751.096    22.177527 
   24420    846.93391   -6388.1467     -6293.67    772.76036    16745.487    22.174577 
   24430    846.73868   -6388.2076   -6293.7526    195.76952    16740.518    22.143249 
   24440    874.50922    -6391.289   -6293.7362    88.516484    16735.784    22.085218 
   24450    895.79903   -6393.5794   -6293.6516    732.08761    16731.239    22.030707 
   24460    910.72239   -6395.1435    -6293.551    1302.1786    16727.298    22.015535 
   24470    915.17378   -6395.5665   -6293.4775    1944.2034    16724.405    22.046726 
   24480    897.93903   -6393.5886   -6293.4221    2468.3653    16723.046    22.104765 
   24490    904.69145    -6394.301   -6293.3813    1985.6084    16723.558    22.157088 
   24500    905.72892   -6394.3811   -6293.3456    1518.6333    16725.625     22.18561 
   24510    880.18397   -6391.5055   -6293.3197    1454.9334     16728.89    22.192804 
   24520    850.90534     -6388.17   -6293.2502    1214.6806    16733.266    22.185558 
   24530    839.27868    -6386.699   -6293.0762    1120.4456    16738.584    22.168251 
   24540     858.2561   -6388.5068   -6292.7671    938.31708    16744.757    22.146698 
   24550    899.13798   -6392.6388   -6292.3386   -30.826422    16751.582    22.131349 
   24560    921.83605   -6394.6871   -6291.8549   -729.73382    16758.364    22.121111 
   24570    922.53337   -6394.2721   -6291.3621   -915.54769    16764.571    22.114919 
   24580    934.39915   -6395.1412   -6290.9076    -1596.293    16769.987    22.112933 
   24590     952.7737   -6396.7954   -6290.5121   -2728.9637    16774.108     22.11002 
   24600    933.89311    -6394.386   -6290.2088   -3475.3393    16776.103    22.101406 
   24610    904.30324   -6390.8621   -6289.9857   -3280.3625    16775.445    22.086673 
   24620    904.13961    -6390.639   -6289.7808   -3128.6619    16772.213    22.062617 
   24630    909.76582   -6391.0671   -6289.5814   -2710.3658    16766.554    22.037058 
   24640    900.04753   -6389.7838   -6289.3822   -1553.2439    16758.864    22.019307 
   24650     896.0452   -6389.1121   -6289.1569    -846.5934    16749.973    22.008373 
   24660    901.73721   -6389.4852    -6288.895   -885.81124    16740.425    22.008432 
   24670    930.35277   -6392.4063    -6288.624    -1227.329    16730.208    22.021413 
   24680     934.1771   -6392.5926   -6288.3837   -498.40762    16719.159    22.034871 
   24690    928.04752   -6391.7143   -6288.1892    862.92379    16707.806    22.034939 
   24700    925.16724   -6391.2311   -6288.0273    1896.2763     16697.15    22.026415 
   24710    914.24343   -6389.8669   -6287.8817    2095.3722    16687.946    22.013824 
   24720    907.45672   -6388.9903   -6287.7621      1964.25     16680.39    22.001626 
   24730    919.91544   -6390.2793   -6287.6614    1522.9687    16674.362    22.001465 
   24740    921.31458   -6390.3596   -6287.5856    1208.5846    16669.558    22.008342 
   24750    929.93072   -6391.3013   -6287.5661    598.60777    16665.663     22.01141 
   24760    931.02343    -6391.478   -6287.6209    899.62748    16662.312     22.00943 
   24770    907.26123   -6388.9579   -6287.7515    1788.9899    16659.709    22.005167 
   24780    893.37535   -6387.5754    -6287.918    2360.7204     16658.47    22.002656 
   24790    913.85884   -6390.0639   -6288.1216    1887.2146    16658.977    21.994335 
   24800    933.73668   -6392.5552   -6288.3955    1518.7992    16660.961    21.983679 
   24810    912.25654   -6390.5397   -6288.7761    1886.4874    16664.183    21.980315 
   24820    886.07624   -6388.0634   -6289.2203    2164.0549    16668.871    21.972985 
   24830     895.2386   -6389.5559   -6289.6907    1595.1777    16675.185     21.95551 
   24840    892.37957   -6389.7253    -6290.179    546.22378    16682.712    21.938509 
   24850    876.09828   -6388.4019   -6290.6718      -422.06    16690.706    21.916875 
   24860    869.43021    -6388.121   -6291.1347   -1615.7408    16698.348    21.885623 
   24870    871.64952   -6388.7761   -6291.5422   -1728.0022    16704.844    21.854067 
   24880     914.7391   -6393.9716   -6291.9311   -2542.9527    16709.941    21.826602 
   24890    929.63799    -6396.076   -6292.3735    -2763.896    16713.113    21.807058 
   24900    906.77735   -6394.0448   -6292.8924   -2136.8346    16714.192    21.794416 
   24910    878.01037   -6391.3709   -6293.4275   -1007.0264    16713.644    21.782388 
   24920    858.73666   -6389.7023   -6293.9089   -489.63908    16712.269    21.768836 
   24930    856.43059   -6389.8405   -6294.3044   -844.99234    16710.455    21.761728 
   24940    860.02513   -6390.5408   -6294.6037   -1311.1396    16707.983    21.760247 
   24950    878.91054   -6392.8766   -6294.8328   -1289.2341    16704.522    21.760992 
   24960    881.11692   -6393.3069    -6295.017   -695.22902    16700.094    21.761692 
   24970    885.13877   -6393.9078   -6295.1693   -570.53124    16695.097    21.754048 
   24980    913.40319   -6397.1999   -6295.3084   -1616.9384    16689.571    21.736679 
   24990    937.18332   -6400.0341   -6295.4899   -3032.0827    16682.741     21.71916 
   25000     918.5665   -6398.2278   -6295.7603   -2792.5053    16673.661     21.70851 
Loop time of 16915.3 on 16 procs for 20000 steps with 864 atoms

Performance: 0.102 ns/day, 234.935 hours/ns, 1.182 timesteps/s
95.2% CPU use with 16 MPI tasks x 1 OpenMP threads

MPI task timing breakdown:
Section |  min time  |  avg time  |  max time  |%varavg| %total
---------------------------------------------------------------
Pair    | 12629      | 14651      | 16700      | 992.8 | 86.62
Bond    | 0.0016255  | 0.0057328  | 0.01263    |   4.2 |  0.00
Neigh   | 0.25975    | 0.30949    | 0.39676    |   6.6 |  0.00
Comm    | 128.12     | 1401.4     | 2954.9     |1996.3 |  8.28
Output  | 58.923     | 58.981     | 59.839     |   2.9 |  0.35
Modify  | 24.538     | 803.09     | 1914       |2527.0 |  4.75
Other   |            | 0.1133     |            |       |  0.00

Nlocal:        54.0000 ave          61 max          46 min
Histogram: 1 1 2 0 2 4 2 0 1 3
Nghost:        586.688 ave         634 max         513 min
Histogram: 1 2 1 1 1 1 1 2 1 5
Neighs:         0.00000 ave           0 max           0 min
Histogram: 16 0 0 0 0 0 0 0 0 0
FullNghs:      2869.25 ave        3403 max        2086 min
Histogram: 1 1 2 0 0 5 0 3 1 3

Total # of neighbors = 45908
Ave neighs/atom = 53.134259
Ave special neighs/atom = 0.0000000
Neighbor list builds = 2000
Dangerous builds = 2000
Total wall time: 5:51:04
