LAMMPS (29 Sep 2021 - Update 3)
OMP_NUM_THREADS environment is not set. Defaulting to 1 thread. (src/comm.cpp:98)
  using 1 OpenMP thread(s) per MPI task
units	metal
atom_style	full

read_data	mixed.data
Reading data file ...
  orthogonal box = (0.0000000 0.0000000 0.0000000) to (15.857269 15.758596 73.856324)
  2 by 1 by 8 MPI processor grid
  reading atoms ...
  864 atoms
Finding 1-2 1-3 1-4 neighbors ...
  special bond factors lj:    0        0        0       
  special bond factors coul:  0        0        0       
     0 = max # of 1-2 neighbors
     0 = max # of 1-3 neighbors
     0 = max # of 1-4 neighbors
     1 = max # of special neighbors
  special bonds CPU = 0.001 seconds
  read_data CPU = 0.008 seconds

pair_style	quip
pair_coeff	* * /ocean/projects/cts180021p/wuziqi/clease/mint-PD/PhaseDiagram-Clease/Liquid/GAP_potential/gap_LiKCl.xml "Potential xml_label=GAP_2021_9_27_0_1_17_37_618" 17 19 3

neighbor	0.3 bin
neigh_modify	delay 10

timestep	0.001
compute	msd all msd
thermo_style	custom step temp pe etotal press vol c_msd[4]
thermo	10
dump	1 all custom 10 xyz-mix.dump type id x y z
dump	2 all custom 10 force-mix.dump type id fx fy fz

fix     1 all nve
run     2000
Neighbor list info ...
  update every 1 steps, delay 10 steps, check yes
  max neighbors/atom: 2000, page size: 100000
  master list distance cutoff = 6.22
  ghost atom cutoff = 6.22
  binsize = 3.11, bins = 6 6 24
  1 neighbor lists, perpetual/occasional/extra = 1 0 0
  (1) pair quip, perpetual
      attributes: full, newton on
      pair build: full/bin
      stencil: full/bin/3d
      bin: standard
Per MPI rank memory allocation (min/avg/max) = 8.896 | 8.907 | 8.915 Mbytes
Step Temp PotEng TotEng Press Volume c_msd[4] 
       0            0   -6680.0933   -6680.0933   -8281.1165    18455.831            0 
      10    70.089017   -6687.9205    -6680.102   -9637.9304    18455.831 0.00053514082 
      20    180.09083   -6700.2003   -6680.1109   -11326.743    18455.831 0.0066144209 
      30    218.60542   -6704.4933   -6680.1075   -10699.378    18455.831  0.022432956 
      40    219.14865   -6704.5494    -6680.103   -8951.3193    18455.831  0.042690684 
      50    240.47609   -6706.9311   -6680.1056   -8003.5149    18455.831  0.059191698 
      60    253.66901   -6708.4039   -6680.1068    -7626.627    18455.831   0.07070925 
      70     242.9182   -6707.2018   -6680.1039   -7466.6829    18455.831  0.079364222 
      80    245.92472    -6707.537   -6680.1038   -7609.4954    18455.831  0.086633288 
      90    257.49674   -6708.8305   -6680.1063   -7851.5904    18455.831  0.095173812 
     100    252.46946   -6708.2676   -6680.1043   -7551.0395    18455.831   0.10676573 
     110    248.46405   -6707.8212   -6680.1047   -7097.6705    18455.831   0.12025968 
     120    250.68872   -6708.0687    -6680.104   -6824.8497    18455.831   0.13340609 
     130      258.818   -6708.9777   -6680.1062   -6596.3887    18455.831   0.14573975 
     140    253.60976   -6708.3953   -6680.1047   -6185.2051    18455.831   0.15889724 
     150    247.40375   -6707.7026   -6680.1043   -5947.5032    18455.831   0.17318983 
     160    248.95468   -6707.8762   -6680.1049   -5851.7986    18455.831   0.18766652 
     170    251.06346   -6708.1121   -6680.1056   -5590.4969    18455.831   0.20144657 
     180    246.23782    -6707.572   -6680.1038   -5247.2261    18455.831   0.21382042 
     190    251.48989   -6708.1586   -6680.1045   -5416.1608    18455.831   0.22371169 
     200    260.44308   -6709.1586   -6680.1058   -5793.9896    18455.831   0.23141162 
     210    257.82494   -6708.8658    -6680.105   -6133.6533    18455.831   0.23844771 
     220    250.73963   -6708.0747   -6680.1043   -6257.2025    18455.831   0.24564622 
     230    248.07271   -6707.7773   -6680.1044   -6243.0592    18455.831   0.25309034 
     240    248.93862   -6707.8742   -6680.1047   -6226.9294    18455.831   0.26091643 
     250    248.99388   -6707.8804   -6680.1047   -6334.5414    18455.831   0.26913526 
     260    251.27669   -6708.1344   -6680.1041   -6551.8246    18455.831   0.27705303 
     270    260.34527   -6709.1477   -6680.1058        -6764    18455.831   0.28421607 
     280    260.83001   -6709.2011   -6680.1051   -6639.8092    18455.831   0.29163604 
     290    256.24266   -6708.6893    -6680.105   -6449.9322    18455.831   0.29974682 
     300    250.69638     -6708.07   -6680.1044   -6471.1016    18455.831   0.30849754 
     310    250.05901    -6707.999   -6680.1046   -6562.0942    18455.831   0.31777754 
     320    252.23509   -6708.2423   -6680.1051   -6693.6464    18455.831   0.32755563 
     330    250.81469   -6708.0833   -6680.1046   -6713.8004    18455.831   0.33779883 
     340    250.65515   -6708.0657   -6680.1047     -6614.52    18455.831   0.34801692 
     350    252.94275   -6708.3202   -6680.1041   -6588.7327    18455.831   0.35730468 
     360    261.50627   -6709.2774    -6680.106   -6797.9362    18455.831   0.36504658 
     370    261.10007   -6709.2316   -6680.1055   -6831.7443    18455.831   0.37190178 
     380    253.99916   -6708.4387   -6680.1047   -6726.1215    18455.831   0.37827271 
     390    253.05009   -6708.3325   -6680.1044    -6835.806    18455.831   0.38397661 
     400    258.03703   -6708.8906   -6680.1062   -6768.7818    18455.831   0.38955387 
     410      252.036   -6708.2195   -6680.1045   -6292.4532    18455.831   0.39652014 
     420    250.52201   -6708.0507   -6680.1046   -5826.2725    18455.831   0.40500255 
     430    256.29495   -6708.6954   -6680.1053    -5546.315    18455.831    0.4145153 
     440    262.43605   -6709.3808   -6680.1057   -5439.0868    18455.831   0.42473971 
     450    264.26046   -6709.5844   -6680.1058   -5272.9671    18455.831   0.43527985 
     460    262.52327   -6709.3894   -6680.1046   -5195.9426    18455.831   0.44476232 
     470    267.68384   -6709.9661   -6680.1056   -5304.7962    18455.831   0.45177569 
     480    270.55653   -6710.2863   -6680.1053   -5291.2639    18455.831   0.45687774 
     490    270.72724   -6710.3054   -6680.1053   -5218.7322    18455.831   0.46120142 
     500    269.05227   -6710.1187   -6680.1055   -5175.8745    18455.831   0.46642946 
     510    263.94553   -6709.5489   -6680.1053   -5239.9274    18455.831   0.47407361 
     520    257.63711   -6708.8446   -6680.1048   -5291.7388    18455.831   0.48412853 
     530    257.06548   -6708.7811   -6680.1051   -5321.5334    18455.831   0.49506416 
     540    260.38526   -6709.1518   -6680.1055   -5376.0867    18455.831   0.50501047 
     550    260.91759   -6709.2118    -6680.106    -5479.615    18455.831   0.51322197 
     560    255.01677   -6708.5518   -6680.1043   -5675.0057    18455.831   0.52041437 
     570     259.1908   -6709.0183   -6680.1051   -6233.3417    18455.831    0.5272333 
     580    265.73933   -6709.7494   -6680.1058   -6810.0612    18455.831   0.53425593 
     590    267.07214   -6709.8973    -6680.105   -7271.0617    18455.831   0.54173358 
     600    270.59769   -6710.2906    -6680.105   -7669.4363    18455.831   0.54966243 
     610    275.51295   -6710.8394   -6680.1055   -7859.4286    18455.831   0.55825095 
     620    275.26386   -6710.8118   -6680.1057   -7564.3126    18455.831   0.56786247 
     630    267.62803    -6709.959   -6680.1047   -6980.9593    18455.831   0.57832835 
     640    265.09163   -6709.6761   -6680.1047   -6568.2152    18455.831   0.58820723 
     650    267.67247   -6709.9653    -6680.106    -6347.284    18455.831   0.59641333 
     660    264.01415   -6709.5562    -6680.105   -5916.0469    18455.831   0.60309646 
     670    263.52965    -6709.502   -6680.1049   -5671.0684    18455.831   0.60844331 
     680    269.00124    -6710.113   -6680.1055   -5692.2827    18455.831    0.6132683 
     690    271.45591    -6710.387   -6680.1057   -5574.8525    18455.831   0.61933075 
     700     270.0884   -6710.2336   -6680.1048   -5412.3704    18455.831   0.62727776 
     710    274.16504    -6710.689   -6680.1055   -5445.9009    18455.831   0.63604213 
     720    276.77226   -6710.9801   -6680.1057   -5459.4182    18455.831   0.64454539 
     730    275.88502   -6710.8806   -6680.1052    -5417.932    18455.831   0.65171241 
     740    275.85971   -6710.8783   -6680.1057   -5536.9233    18455.831   0.65662341 
     750    272.97993   -6710.5569   -6680.1056   -5708.1328    18455.831    0.6598394 
     760    268.28422    -6710.033   -6680.1055   -5761.8441    18455.831   0.66298993 
     770    264.14144   -6709.5705   -6680.1051   -5775.8492    18455.831   0.66717813 
     780    263.51726    -6709.501   -6680.1053   -5700.2554    18455.831   0.67265545 
     790    266.55703   -6709.8409    -6680.106    -5605.591    18455.831   0.67864068 
     800    265.59911   -6709.7343   -6680.1063   -5512.5062    18455.831   0.68325498 
     810    257.26872   -6708.8037    -6680.105    -5609.846    18455.831   0.68551207 
     820    257.02246   -6708.7759   -6680.1047   -5957.2323    18455.831   0.68532325 
     830    268.49996   -6710.0576    -6680.106   -6395.3276    18455.831   0.68384718 
     840      275.603   -6710.8497   -6680.1057   -6790.5333    18455.831   0.68323699 
     850    277.81756   -6711.0961   -6680.1052   -7039.0507    18455.831   0.68429619 
     860    281.61629     -6711.52   -6680.1053    -7112.387    18455.831   0.68675849 
     870    285.63694   -6711.9688   -6680.1055   -6936.0551    18455.831    0.6904508 
     880    286.29079   -6712.0419   -6680.1057   -6480.6542    18455.831   0.69538495 
     890    281.96956   -6711.5596   -6680.1055   -6039.8274    18455.831   0.70113257 
     900    274.65893   -6710.7442   -6680.1055     -5564.23    18455.831   0.70667182 
     910    267.20366   -6709.9114   -6680.1045   -5257.3591    18455.831   0.71136984 
     920     269.3838   -6710.1555   -6680.1053    -5367.122    18455.831   0.71512054 
     930    273.08823   -6710.5689   -6680.1055   -5720.7294    18455.831   0.71853359 
     940    275.14424   -6710.7982   -6680.1055   -5917.6904    18455.831   0.72236347 
     950    276.67291   -6710.9689   -6680.1056   -5610.0935    18455.831   0.72713733 
     960    276.62748   -6710.9635   -6680.1053   -5046.3658    18455.831   0.73337224 
     970     278.3434   -6711.1556   -6680.1059   -4610.3497    18455.831   0.74121898 
     980    276.50421   -6710.9503   -6680.1058   -4305.2609    18455.831   0.75038076 
     990    274.46428   -6710.7216   -6680.1047   -4327.9119    18455.831   0.75935205 
    1000    282.87647   -6711.6614   -6680.1061   -4696.6429    18455.831   0.76641954 
    1010    286.63377   -6712.0812   -6680.1068   -4990.2699    18455.831   0.77271728 
    1020    279.06324   -6711.2352   -6680.1053   -4771.2676    18455.831   0.78024384 
    1030    275.82234   -6710.8738   -6680.1054    -4403.339    18455.831   0.78871428 
    1040    278.66942   -6711.1919   -6680.1059   -3941.2604    18455.831   0.79675694 
    1050    279.04998   -6711.2352   -6680.1068   -3356.1301    18455.831   0.80429238 
    1060    270.39607   -6710.2685   -6680.1054   -2836.7873    18455.831   0.81167046 
    1070    268.92869   -6710.1046   -6680.1052   -2775.6081    18455.831   0.81774479 
    1080    276.86697   -6710.9921   -6680.1072   -2982.0197    18455.831   0.82183502 
    1090    273.51021   -6710.6167   -6680.1062   -3002.8881    18455.831   0.82504043 
    1100    268.10286   -6710.0129   -6680.1056    -3041.916    18455.831   0.82859974 
    1110    268.86345   -6710.0983   -6680.1061   -3274.5241    18455.831   0.83307382 
    1120    271.12867   -6710.3511   -6680.1063   -3502.0504    18455.831   0.83788345 
    1130    271.41072   -6710.3825   -6680.1063   -3567.0764    18455.831   0.84210043 
    1140    271.86949   -6710.4327   -6680.1053   -3657.0206    18455.831   0.84510588 
    1150    281.86599   -6711.5491   -6680.1065   -4076.7437    18455.831    0.8468347 
    1160    288.73127   -6712.3154    -6680.107   -4317.2032    18455.831    0.8485126 
    1170    284.72713   -6711.8682   -6680.1065   -4221.6867    18455.831   0.85124425 
    1180    277.76624   -6711.0907   -6680.1055   -3786.2546    18455.831   0.85522238 
    1190    278.42764   -6711.1658   -6680.1068   -3453.5254    18455.831   0.86063272 
    1200    274.57485   -6710.7358   -6680.1066   -3135.4804    18455.831   0.86799772 
    1210    268.17301   -6710.0207   -6680.1056   -3061.7485    18455.831   0.87596914 
    1220    269.73514   -6710.1951   -6680.1058   -3498.6687    18455.831   0.88197829 
    1230    275.57277   -6710.8475    -6680.107   -3998.6686    18455.831   0.88464671 
    1240    273.28864   -6710.5919   -6680.1062   -4275.4959    18455.831   0.88485118 
    1250    269.21341   -6710.1371    -6680.106   -4301.1389    18455.831   0.88413656 
    1260    268.47841   -6710.0549   -6680.1057   -4311.1873    18455.831   0.88296339 
    1270    272.54156   -6710.5085   -6680.1061   -4356.8217    18455.831   0.88172746 
    1280    277.77621   -6711.0926   -6680.1063   -4588.2508    18455.831   0.88180594 
    1290    280.19269   -6711.3629    -6680.107   -4852.3632    18455.831   0.88389526 
    1300    274.38994   -6710.7142   -6680.1056   -4801.0391    18455.831   0.88737003 
    1310    272.68687   -6710.5248   -6680.1062   -4600.8128    18455.831   0.89133871 
    1320    273.33879   -6710.5972   -6680.1059   -4506.2257    18455.831   0.89528436 
    1330    275.86937     -6710.88   -6680.1064   -4590.7459    18455.831   0.89889495 
    1340    276.57557   -6710.9584    -6680.106   -4592.8619    18455.831   0.90245999 
    1350    276.61512   -6710.9634   -6680.1066   -4506.7758    18455.831   0.90646299 
    1360    272.26073   -6710.4771    -6680.106   -4467.2196    18455.831   0.91136845 
    1370    268.73878   -6710.0839   -6680.1057   -4589.1112    18455.831   0.91701889 
    1380    269.83102   -6710.2061    -6680.106   -4803.1401    18455.831   0.92344131 
    1390    271.01809   -6710.3391   -6680.1066   -4995.7936    18455.831   0.93117145 
    1400    266.53417   -6709.8383   -6680.1061   -4887.7324    18455.831   0.93925395 
    1410    264.34979   -6709.5941   -6680.1054   -4661.6641    18455.831   0.94440069 
    1420    271.24246   -6710.3639   -6680.1064   -4782.1646    18455.831   0.94464645 
    1430    278.14891   -6711.1341   -6680.1062   -5345.1098    18455.831   0.94130273 
    1440    284.26073    -6711.816   -6680.1063   -5956.3496    18455.831    0.9366539 
    1450    286.06102   -6712.0176    -6680.107   -6473.9841    18455.831   0.93338269 
    1460    278.13817   -6711.1322   -6680.1055    -6637.014    18455.831   0.93336514 
    1470    274.95588   -6710.7774   -6680.1057   -6848.7234    18455.831   0.93597431 
    1480    275.34081   -6710.8209   -6680.1062   -7017.9963    18455.831   0.93943367 
    1490    271.96867   -6710.4442   -6680.1057   -6827.7136    18455.831   0.94245071 
    1500    271.43894   -6710.3851   -6680.1057   -6399.8258    18455.831   0.94456699 
    1510    273.11981   -6710.5738   -6680.1069   -5919.9683    18455.831   0.94612167 
    1520    266.58025   -6709.8431   -6680.1057   -5429.0631    18455.831   0.94681802 
    1530    264.24493   -6709.5825   -6680.1056   -5386.7007    18455.831   0.94511663 
    1540    268.14703   -6710.0187   -6680.1065   -5636.8718    18455.831   0.94138542 
    1550    270.20911    -6710.248   -6680.1058   -5845.7424    18455.831   0.93815309 
    1560    276.27553   -6710.9252   -6680.1062   -5792.6983    18455.831   0.93754478 
    1570    281.48981   -6711.5074   -6680.1068   -5440.6487    18455.831   0.94039184 
    1580    279.21915   -6711.2534    -6680.106   -4999.2991    18455.831   0.94601391 
    1590     277.1071   -6711.0177    -6680.106   -4867.2447    18455.831   0.95254979 
    1600    278.30993   -6711.1519    -6680.106   -4854.7315    18455.831   0.95811089 
    1610    283.09805   -6711.6862   -6680.1062   -4922.4033    18455.831   0.96206314 
    1620    285.07138   -6711.9077   -6680.1076   -4696.0901    18455.831   0.96577017 
    1630    273.23535   -6710.5854   -6680.1056   -4246.7962    18455.831   0.97096923 
    1640     267.7179   -6709.9697   -6680.1053   -4035.6486    18455.831     0.977191 
    1650    272.52244   -6710.5064   -6680.1061   -4111.8074    18455.831   0.98346373 
    1660     277.8589   -6711.1018   -6680.1062   -4253.7363    18455.831   0.98934697 
    1670    281.07361    -6711.461   -6680.1068   -4561.0787    18455.831   0.99446833 
    1680    278.83973   -6711.2107   -6680.1057   -4801.2753    18455.831   0.99855733 
    1690    282.27607   -6711.5942   -6680.1059   -5070.8212    18455.831    1.0013333 
    1700    288.92729   -6712.3376   -6680.1074   -5075.7299    18455.831    1.0032748 
    1710    283.97303   -6711.7838   -6680.1062   -4524.3033    18455.831    1.0056492 
    1720    280.32496   -6711.3763   -6680.1056   -4088.2037    18455.831    1.0090707 
    1730    285.00962   -6711.9005   -6680.1072   -4166.6509    18455.831    1.0129097 
    1740    281.71349    -6711.532   -6680.1064   -4428.6075    18455.831    1.0162807 
    1750    277.27178   -6711.0355   -6680.1055   -4669.9286    18455.831    1.0185587 
    1760    282.23006   -6711.5895   -6680.1063   -4723.6015    18455.831    1.0199448 
    1770    285.90961   -6712.0006   -6680.1069   -4414.9618    18455.831      1.02094 
    1780    282.38129   -6711.6061    -6680.106   -3873.7091    18455.831    1.0213084 
    1790    282.44165    -6711.613   -6680.1062   -3619.8434    18455.831    1.0208436 
    1800    287.55602   -6712.1841   -6680.1067   -3726.4708    18455.831    1.0207901 
    1810    288.11308   -6712.2473   -6680.1079    -3934.633    18455.831    1.0230701 
    1820    276.98552   -6711.0034   -6680.1052    -4186.202    18455.831    1.0283135 
    1830    277.15263   -6711.0235   -6680.1067   -4345.9838    18455.831    1.0350393 
    1840    276.23823   -6710.9215   -6680.1067   -4368.7653    18455.831    1.0414724 
    1850    273.19513   -6710.5804   -6680.1051   -4416.5455    18455.831    1.0455768 
    1860    283.83055   -6711.7684   -6680.1067   -4696.8368    18455.831    1.0462471 
    1870    291.37755   -6712.6113   -6680.1077   -4729.2468    18455.831    1.0448258 
    1880    283.33807   -6711.7134   -6680.1066   -4658.1696    18455.831    1.0428769 
    1890    273.10669    -6710.571   -6680.1055   -4806.2478    18455.831     1.040683 
    1900    272.25017   -6710.4761   -6680.1062   -4992.1727    18455.831    1.0384095 
    1910    274.11365   -6710.6842   -6680.1065    -4851.611    18455.831    1.0367748 
    1920     274.3815    -6710.714   -6680.1064   -4374.9654    18455.831    1.0362621 
    1930    273.80361   -6710.6496   -6680.1064   -3953.3671    18455.831    1.0369737 
    1940    273.81216   -6710.6506   -6680.1064   -3660.7249    18455.831     1.038631 
    1950     274.0972   -6710.6826   -6680.1067   -3555.6748    18455.831    1.0408007 
    1960     275.1804   -6710.8028    -6680.106   -3995.0323    18455.831    1.0431217 
    1970    281.99645   -6711.5638   -6680.1067   -4818.7611    18455.831    1.0450424 
    1980     287.0536   -6712.1285   -6680.1072   -5430.2829    18455.831    1.0464652 
    1990    282.90097   -6711.6645   -6680.1064   -5324.8363    18455.831    1.0478613 
    2000    278.29624   -6711.1501   -6680.1058   -5003.2499    18455.831    1.0492005 
Loop time of 1517.29 on 16 procs for 2000 steps with 864 atoms

Performance: 0.114 ns/day, 210.735 hours/ns, 1.318 timesteps/s
96.8% CPU use with 16 MPI tasks x 1 OpenMP threads

MPI task timing breakdown:
Section |  min time  |  avg time  |  max time  |%varavg| %total
---------------------------------------------------------------
Pair    | 639.35     | 1034.1     | 1514.4     | 631.2 | 68.15
Bond    | 0.00024033 | 0.00048584 | 0.00080633 |   0.0 |  0.00
Neigh   | 0.019052   | 0.030267   | 0.049447   |   3.8 |  0.00
Comm    | 2.4927     | 423.8      | 817.24     | 890.0 | 27.93
Output  | 0.26909    | 32.667     | 71.829     | 509.1 |  2.15
Modify  | 0.010531   | 0.012086   | 0.01404    |   1.1 |  0.00
Other   |            | 26.72      |            |       |  1.76

Nlocal:        54.0000 ave          86 max          35 min
Histogram: 1 1 3 7 2 1 0 0 0 1
Nghost:        537.750 ave         662 max         448 min
Histogram: 3 1 1 5 0 0 3 1 1 1
Neighs:         0.00000 ave           0 max           0 min
Histogram: 16 0 0 0 0 0 0 0 0 0
FullNghs:      2646.75 ave        5387 max        1216 min
Histogram: 2 2 3 4 3 1 0 0 0 1

Total # of neighbors = 42348
Ave neighs/atom = 49.013889
Ave special neighs/atom = 0.0000000
Neighbor list builds = 199
Dangerous builds = 198
unfix   1

velocity    all create 937.5 1312343 dist gaussian
fix     2 all npt temp 937.5 937.5 $(100.0*dt) aniso 0.0 1.01325 $(1000.0*dt)
fix     2 all npt temp 937.5 937.5 0.10000000000000000555 aniso 0.0 1.01325 $(1000.0*dt)
fix     2 all npt temp 937.5 937.5 0.10000000000000000555 aniso 0.0 1.01325 1
run     3000
Per MPI rank memory allocation (min/avg/max) = 8.897 | 8.909 | 8.917 Mbytes
Step Temp PotEng TotEng Press Volume c_msd[4] 
    2000        937.5   -6711.1501   -6606.5706   -747.45584    18455.831    1.0492005 
    2010    817.61658   -6697.7383   -6606.5319     2056.944    18455.714    1.0571909 
    2020    650.19343   -6678.8267   -6606.2966    5756.7123    18457.524    1.0754642 
    2030    606.75439     -6673.41   -6605.7256    6211.4524    18464.317    1.0923953 
    2040     582.4812   -6669.7311   -6604.7544    5493.3692    18476.719    1.1094477 
    2050      557.484   -6665.7627   -6603.5746    4976.5927    18494.207    1.1271705 
    2060    570.04071   -6666.0081   -6602.4192    4061.6028    18516.263    1.1438766 
    2070    591.22435   -6667.3086   -6601.3566    3511.0646    18542.139     1.161079 
    2080    607.97228   -6668.1432    -6600.323    3249.6033    18571.332    1.1794643 
    2090    611.32099   -6667.4007    -6599.207    2661.2874    18603.562    1.1974545 
    2100    627.84616   -6667.9896   -6597.9524    1341.0056    18638.256    1.2140378 
    2110    664.98667   -6670.6846   -6596.5043   -543.25227     18674.18    1.2314725 
    2120    667.52071   -6669.4011   -6594.9382   -1115.9711    18709.713    1.2524183 
    2130     627.5345   -6663.3971   -6593.3946   -203.81814     18744.31    1.2761209 
    2140    628.06216   -6661.9337   -6591.8724    204.41448    18778.622    1.2983493 
    2150    638.42898   -6661.4873   -6590.2696   -334.59809    18812.992    1.3182657 
    2160    642.10388   -6660.2394   -6588.6118   -1389.0262    18846.909    1.3369028 
    2170    662.05819   -6660.7513   -6586.8978   -2098.6215    18879.423    1.3556129 
    2180    673.49193   -6660.2592   -6585.1302   -2217.8466    18909.847    1.3753207 
    2190    664.26429   -6657.4662   -6583.3665   -1884.0199     18938.05     1.395734 
    2200    665.38407   -6655.8352   -6581.6106   -1792.0076    18964.288    1.4154945 
    2210    678.11019   -6655.4565   -6579.8123   -2224.6199    18988.621    1.4338125 
    2220    683.24401   -6654.1937   -6577.9768   -2608.4656    19010.672    1.4506358 
    2230     673.9604   -6651.3227   -6576.1414   -2938.4983    19030.069    1.4653175 
    2240    680.43025   -6650.2033   -6574.3003   -3546.6531    19046.476    1.4767192 
    2250    697.75114   -6650.2515   -6572.4163   -3982.2362    19059.352    1.4852109 
    2260    705.06706   -6649.1664   -6570.5151   -3813.1871    19068.333    1.4912838 
    2270    722.62399   -6649.2196   -6568.6098   -3530.0832    19073.558    1.4948631 
    2280    741.86969   -6649.4381   -6566.6814    -2798.489    19075.368    1.4984507 
    2290    740.95416   -6647.4153   -6564.7608   -1777.0879    19074.478    1.5033229 
    2300    748.62043   -6646.3626   -6562.8528   -1281.6915    19071.817    1.5072835 
    2310    760.75639   -6645.7948   -6560.9313   -1239.4127    19067.902    1.5096389 
    2320    784.16311   -6646.4677   -6558.9932   -1297.0623    19062.806    1.5107384 
    2330    791.41906   -6645.3429   -6557.0589   -1278.6635     19056.48    1.5136578 
    2340    776.83317   -6641.8304   -6555.1735     -1099.71    19048.986    1.5209727 
    2350    792.04987   -6641.6555   -6553.3012   -1475.1246    19040.426    1.5301975 
    2360    812.96204   -6642.0852   -6551.3981   -1961.8026    19030.469    1.5408718 
    2370     801.8341   -6638.9581   -6549.5123    -1419.799    19018.756    1.5524052 
    2380    797.93036   -6636.6725   -6547.6621   -264.91358     19005.79    1.5598679 
    2390    809.41696   -6636.0778   -6545.7861    263.63301    18992.586    1.5618672 
    2400    816.95458   -6635.0316   -6543.8991    205.88167    18979.682     1.563217 
    2410    847.05191    -6636.493   -6542.0031    31.735764    18967.044    1.5672564 
    2420    847.99209   -6634.7103   -6540.1155    764.56727    18954.598    1.5764495 
    2430    849.42287   -6633.0308   -6538.2764    1496.5763    18942.944    1.5908654 
    2440    856.19379   -6631.9641   -6536.4544     2020.706    18932.792    1.6095405 
    2450    870.54531   -6631.7628   -6534.6521    1915.8877    18924.596    1.6298427 
    2460    899.51149   -6633.2119   -6532.8701    1506.9761    18918.258    1.6479131 
    2470    914.88033   -6633.1847   -6531.1284    1706.3294    18913.444    1.6642804 
    2480    912.97162   -6631.3143   -6529.4709    2172.3399     18910.31    1.6811118 
    2490    907.49746   -6629.1287    -6527.896    2588.2342    18909.286    1.7000038 
    2500    894.69757   -6626.1861   -6526.3812    3069.2448    18910.761    1.7223233 
    2510    905.82769   -6625.9456   -6524.8992     3044.956    18915.127    1.7471087 
    2520    937.87883   -6628.0396   -6523.4178    2051.1337    18922.309    1.7734317 
    2530    949.40368   -6627.8886   -6521.9812     1308.905    18931.442    1.8013404 
    2540    936.06895    -6625.072   -6520.6521    1849.0975    18941.913    1.8283725 
    2550    938.27075   -6624.0723   -6519.4068    2323.0114    18954.097    1.8500702 
    2560    947.88421   -6623.9497   -6518.2118    2787.1064    18968.478    1.8670354 
    2570    935.95093   -6621.4781   -6517.0713    3030.5935    18985.473    1.8845725 
    2580    950.13014   -6621.9744   -6515.9859    2373.9393    19005.229      1.90798 
    2590    951.25211   -6621.0513   -6514.9377    1783.4465    19027.205    1.9412473 
    2600    943.45861   -6619.2041   -6513.9599    1572.5094    19050.849    1.9780844 
    2610    929.77215   -6616.7499   -6513.0324    1539.5725    19075.933    2.0088837 
    2620    910.93085   -6613.7455   -6512.1298    1940.2196     19102.43    2.0331003 
    2630    917.14083   -6613.5291   -6511.2207    2221.8543    19130.674    2.0541372 
    2640    929.63769    -6613.981   -6510.2785    2304.9484    19160.939    2.0758997 
    2650    946.40979   -6614.9031   -6509.3296    1914.7457    19193.259    2.1008755 
    2660    954.81845    -6614.904   -6508.3926    951.38928    19227.214    2.1288805 
    2670    968.37114   -6615.5162   -6507.4929    114.37591    19261.899      2.15817 
    2680    990.21416   -6617.1163   -6506.6564   -561.04552    19296.448     2.191086 
    2690    966.43556   -6613.7359   -6505.9286   -465.41193    19330.245    2.2317086 
    2700    942.72947   -6610.4598   -6505.2969   -776.76661    19363.224    2.2749605 
    2710    936.74723   -6609.1796   -6504.6841   -1566.0656    19395.081    2.3123332 
    2720    921.21873   -6606.8229   -6504.0596   -2264.9609    19425.058    2.3402674 
    2730    924.75984   -6606.5743    -6503.416   -2669.7421    19452.463    2.3598093 
    2740    927.59065   -6606.2177   -6502.7435   -2679.4796    19476.917    2.3745899 
    2750    928.62205   -6605.6479   -6502.0587   -3080.4551     19498.34    2.3865282 
    2760    947.47027   -6607.0459   -6501.3542   -4324.0258    19516.314    2.3957441 
    2770     945.9342   -6606.1789   -6500.6585   -5262.5471     19529.71    2.4075414 
    2780    946.04132   -6605.5422   -6500.0098    -5192.531    19537.675     2.423529 
    2790    958.02085   -6606.2717    -6499.403   -4336.7361    19540.347    2.4430858 
    2800    970.35636   -6607.0932   -6498.8485   -3599.5193    19538.571    2.4644485 
    2810    989.09236   -6608.7072   -6498.3725   -3016.4656    19533.139    2.4838821 
    2820    982.41906   -6607.5905   -6498.0002    -1644.515    19524.811    2.5031549 
    2830     969.5403   -6605.8919   -6497.7382   -728.25897     19514.88    2.5244829 
    2840    940.79508   -6602.4865   -6497.5394    34.217426    19504.354    2.5482746 
    2850    943.33714   -6602.5989   -6497.3682   -153.51285    19493.898    2.5719783 
    2860    952.26111   -6603.4259   -6497.1997   -164.44061    19483.463    2.5956727 
    2870    968.87636   -6605.1397   -6497.0601    125.17406    19473.044    2.6217034 
    2880    983.34763     -6606.69   -6496.9961    115.22919    19462.857    2.6534564 
    2890    975.83705   -6605.8905   -6497.0344    348.42788    19452.956    2.6948632 
    2900    965.48693   -6604.8608   -6497.1592    718.89021    19443.546    2.7444552 
    2910    940.74187   -6602.2756   -6497.3344    1074.1323    19434.987    2.7942805 
    2920     930.6459   -6601.3297   -6497.5147    456.28466    19427.536    2.8367498 
    2930    955.77516   -6604.3094   -6497.6913   -789.07566    19420.588    2.8700109 
    2940     979.4433   -6607.1791   -6497.9208   -1301.1473    19413.007    2.8966691 
    2950    967.77886   -6606.2044   -6498.2472   -558.35267    19404.346    2.9218511 
    2960    931.93222   -6602.5792   -6498.6208    710.36546    19395.285    2.9496824 
    2970    914.74631   -6601.0203    -6498.979    1672.7628    19387.039    2.9811839 
    2980    908.91396   -6600.6676   -6499.2769    1769.6792    19380.503    3.0146301 
    2990    933.96929   -6603.7221   -6499.5364    1148.4132    19375.756    3.0451107 
    3000    937.38799   -6604.3479   -6499.7809    1000.2385     19372.28    3.0731491 
    3010    940.21822   -6604.9176   -6500.0348    1257.6695    19369.883    3.1009768 
    3020    951.22189   -6606.4096   -6500.2994    1633.8777    19368.786    3.1277382 
    3030    971.33771    -6608.955   -6500.6008    1755.8614    19369.322    3.1531797 
    3040    976.14997   -6609.8803   -6500.9893    2040.7087    19371.632    3.1791024 
    3050    949.29434   -6607.3474   -6501.4522    2375.5538    19375.963     3.204559 
    3060    938.30693   -6606.6081   -6501.9386    2236.8056    19382.582    3.2276041 
    3070      947.467   -6608.1324    -6502.441    2159.8521    19391.408     3.250599 
    3080    952.97891   -6609.2737   -6502.9674    1677.7886    19402.295    3.2775623 
    3090    942.33738   -6608.6321   -6503.5129    951.91762    19414.742    3.3100474 
    3100    932.91614   -6608.1274   -6504.0592    173.10242    19428.028    3.3447354 
    3110    927.64209   -6608.0572   -6504.5773   -815.77225    19441.359    3.3771622 
    3120    933.18397   -6609.1681     -6505.07   -1598.4084    19453.772    3.4079026 
    3130    917.10875   -6607.8467   -6505.5419   -1616.0087    19464.541    3.4401297 
    3140    899.01021   -6606.2489   -6505.9629   -1629.8933    19473.575    3.4713684 
    3150    894.10065   -6606.0444   -6506.3062   -1815.3851    19480.874    3.4990555 
    3160    868.90626   -6603.4704   -6506.5426   -1541.0419    19486.331    3.5233945 
    3170    861.04756   -6602.6895   -6506.6384   -1205.5349    19490.217    3.5395055 
    3180    891.21879   -6606.0063   -6506.5895    -1417.008    19492.806    3.5461605 
    3190    905.40628   -6607.4334    -6506.434   -1268.9931     19493.98    3.5550489 
    3200     908.6214   -6607.5656   -6506.2075   -985.54874     19493.87    3.5769667 
    3210    911.07892   -6607.5457   -6505.9135   -682.69564    19492.772    3.6105989 
    3220    912.31405   -6607.3288   -6505.5588    -338.9908    19491.006    3.6482883 
    3230    913.42698   -6607.0438   -6505.1496   -307.79137     19488.89    3.6861947 
    3240    899.03579   -6604.9737   -6504.6849   -537.31298    19486.465    3.7219614 
    3250    901.75271   -6604.7472   -6504.1553   -1136.8907    19483.483    3.7506236 
    3260    912.24526   -6605.3091   -6503.5468   -1684.4174    19479.383    3.7696874 
    3270    911.80328   -6604.6003   -6502.8872   -1575.8376     19473.67    3.7822743 
    3280    903.32371   -6602.9476   -6502.1805   -807.78715     19466.46    3.7915329 
    3290    911.42476   -6603.0885   -6501.4177   -216.27857    19458.453    3.7979526 
    3300    929.41663   -6604.2791   -6500.6012   -196.72307    19450.217    3.8070934 
    3310     962.2098   -6607.1134   -6499.7774   -377.69718    19441.819    3.8257545 
    3320    942.50785   -6604.1373   -6498.9991   -329.66064    19433.089    3.8564309 
    3330    909.66211   -6599.7452    -6498.271    146.63699    19424.122     3.889211 
    3340    932.69156   -6601.5588   -6497.5156   -269.69563    19415.262    3.9141224 
    3350    968.21592   -6604.7536   -6496.7476   -653.87915    19406.172     3.931762 
    3360    968.36394   -6604.0514    -6496.029    92.702434    19396.589    3.9487055 
    3370    976.44445   -6604.3262   -6495.4024    812.33371    19387.124    3.9730307 
    3380    978.00785   -6603.9546   -6494.8563    1538.7881    19378.534    4.0057143 
    3390    981.06235   -6603.8463   -6494.4073     2088.326    19371.509    4.0401794 
    3400    970.76671   -6602.3437   -6494.0532    2292.9756    19366.602    4.0684228 
    3410    977.97495   -6602.8873   -6493.7928     1644.421    19363.932    4.0888611 
    3420     976.4223   -6602.5427   -6493.6214    1414.4794    19362.975    4.1109917 
    3430    956.53635   -6600.2378   -6493.5347    1750.2735    19363.497    4.1390624 
    3440     967.1969   -6601.4063   -6493.5141    1548.0331    19365.718     4.170581 
    3450    966.65046     -6601.38   -6493.5487    1317.8234    19369.508    4.2029609 
    3460    964.01567   -6601.1865   -6493.6491    1386.0508    19374.636    4.2339814 
    3470    963.16038    -6601.256    -6493.814    1642.2286    19381.172    4.2664588 
    3480    954.46977   -6600.5022   -6494.0297    1963.5794    19389.354    4.3025712 
    3490    960.04383   -6601.3956   -6494.3012    1964.5657    19399.464     4.336392 
    3500    984.10311   -6604.4159   -6494.6377    1233.8548    19411.463    4.3637167 
    3510    993.83812   -6605.9507   -6495.0865     795.7194    19424.729    4.3884433 
    3520    978.88581   -6604.8542    -6495.658    623.67321    19438.805     4.404073 
    3530    964.72022   -6603.9305   -6496.3145    514.88452    19453.512    4.4051865 
    3540    958.53331   -6603.9447   -6497.0189    213.77681    19468.707    4.4014193 
    3550    970.11869   -6605.9801   -6497.7619   -251.83907    19484.099    4.4040643 
    3560    968.75154    -6606.634   -6498.5683   -753.64005    19499.221    4.4213268 
    3570    936.03777   -6603.8039   -6499.3875   -1235.3171    19513.565    4.4502691 
    3580    945.41126   -6605.6401   -6500.1781   -2137.6747    19526.592    4.4809684 
    3590    969.92212   -6609.1798   -6500.9836   -3101.9255     19537.42    4.5140596 
    3600    948.33361   -6607.6111   -6501.8231   -3048.5152    19545.178     4.550694 
    3610    914.15697   -6604.6196   -6502.6441   -2459.8497    19549.863    4.5841604 
    3620    911.65121   -6605.0834   -6503.3873   -2309.6629    19551.983    4.6071304 
    3630    917.83345   -6606.4442   -6504.0585   -2135.0587    19551.741     4.618459 
    3640    912.76691   -6606.4973   -6504.6767   -2272.8751    19549.271    4.6245417 
    3650    887.92414   -6604.2546   -6505.2054   -1883.4694    19544.553    4.6289528 
    3660     883.9752   -6604.2382   -6505.6294   -1376.9928    19537.908    4.6317991 
    3670    884.30957   -6604.5793   -6505.9332   -581.51457    19529.907    4.6402431 
    3680    889.08217   -6605.3069   -6506.1284   -239.10641     19521.29    4.6561612 
    3690    887.07574   -6605.1801   -6506.2254   -497.40841    19512.366     4.674149 
    3700    868.11409   -6603.0436   -6506.2042   -504.60005    19502.962    4.6861542 
    3710    879.06531   -6604.1122   -6506.0512   -615.30397    19493.016     4.686639 
    3720    893.02728   -6605.3862   -6505.7677   -339.46965    19482.485    4.6810548 
    3730    893.78365   -6605.0826   -6505.3797    1.8122736    19471.606    4.6769782 
    3740    903.83989    -6605.723   -6504.8983     309.4338     19460.71    4.6779215 
    3750    945.36743   -6609.7992    -6504.342    207.24354    19450.077    4.6842257 
    3760     961.5736    -6611.043   -6503.7781    196.62401    19439.639    4.6935392 
    3770    932.23898   -6607.2587    -6503.266    1190.0005    19429.477    4.7013071 
    3780    898.16119   -6602.9482   -6502.7569    2026.1792    19420.491    4.7089908 
    3790    912.99879   -6604.0395   -6502.1932    1700.0302    19413.421    4.7212188 
    3800     918.5799   -6604.0343   -6501.5653    1739.6994    19408.102    4.7398768 
    3810    912.36482   -6602.6783   -6500.9026    2068.7394    19404.567    4.7621984 
    3820    946.98807   -6605.8457   -6500.2077    1778.8014    19403.049     4.778415 
    3830    955.42232   -6606.1008    -6499.522    1643.3377     19403.34    4.7847733 
    3840    932.53769   -6602.9117   -6498.8857      1836.27    19405.333    4.7867716 
    3850    948.55709   -6604.0971   -6498.2841    1571.4436    19409.153    4.7895653 
    3860    963.66411    -6605.197   -6497.6989    950.98242    19414.552    4.7994371 
    3870    959.90611    -6604.248    -6497.169    373.80274    19420.958     4.819561 
    3880    963.15707    -6604.141   -6496.6994   -499.65667    19427.766    4.8474166 
    3890    964.06708   -6603.8249   -6496.2817   -1159.1746    19434.145    4.8765871 
    3900    965.27787   -6603.6055   -6495.9273   -1195.5307    19439.451    4.8998238 
    3910    964.24333    -6603.197   -6495.6342    -812.7386    19443.626    4.9170512 
    3920    966.48655   -6603.2127   -6495.3997   -595.86964    19446.985    4.9333181 
    3930    953.81145   -6601.6286   -6495.2295    67.885013    19449.817    4.9511743 
    3940     952.8795   -6601.4032    -6495.108    881.23809    19452.749    4.9679008 
    3950    948.13738   -6600.7776   -6495.0114    1837.7026    19456.641     4.982872 
    3960    966.85166   -6602.8122   -6494.9584    1388.1719    19462.302    4.9987197 
    3970    950.29691   -6600.9535   -6494.9465    528.45921    19469.428    5.0197853 
    3980     935.8547   -6599.3689   -6494.9729   -537.51362    19477.146    5.0465018 
    3990     932.7717   -6599.0446   -6494.9925   -1286.7289    19484.438     5.072922 
    4000    949.66107   -6600.9453   -6495.0092    -1508.919    19490.551    5.0917608 
    4010    968.68805   -6603.1156    -6495.057   -1547.4065    19495.208    5.1016163 
    4020    973.80939   -6603.8068   -6495.1769   -1236.5826    19498.372    5.1087794 
    4030    956.09572   -6602.0282   -6495.3743   -678.60245     19500.32    5.1199508 
    4040    937.60384   -6600.2062    -6495.615    6.7957368    19501.628     5.140703 
    4050     934.3389   -6600.0893   -6495.8624    363.23589    19502.942    5.1747482 
    4060    927.23187   -6599.5444   -6496.1103    644.65467     19504.65    5.2175795 
    4070    907.95338   -6597.6099   -6496.3263    634.59788    19507.009    5.2603021 
    4080    927.71354   -6599.9798    -6496.492    204.05072    19510.008    5.2929594 
    4090    966.53646   -6604.4729   -6496.6543   -56.964572    19513.282    5.3138961 
    4100    974.95857   -6605.6369   -6496.8788    105.70129     19516.58    5.3272653 
    4110    952.67569   -6603.4608   -6497.1884    1171.1893    19520.127    5.3395288 
    4120     931.1606   -6601.4037   -6497.5314    2179.1629    19524.947    5.3550865 
    4130    924.90942   -6601.0415   -6497.8665     2113.537    19532.007     5.374953 
    4140    930.00159    -6601.925    -6498.182    1674.2271    19541.347     5.397221 
    4150     928.5239   -6602.0681   -6498.4899    1656.0846    19552.629    5.4226867 
    4160    918.95348   -6601.2775   -6498.7668    1523.8683    19565.837    5.4543496 
    4170     931.2687   -6602.9051   -6499.0206    960.08056    19580.842    5.4901901 
    4180    918.55157   -6601.7053   -6499.2395    605.74598     19597.17    5.5299959 
    4190    909.75423   -6600.9015    -6499.417    78.701973    19614.431    5.5732256 
    4200    902.36418   -6600.1926   -6499.5325   -453.28505    19632.125    5.6197046 
    4210    915.38234   -6601.7016   -6499.5893   -1060.0032    19649.681    5.6724543 
    4220     915.8103   -6601.7406   -6499.5806   -1017.2471    19666.552    5.7345633 
    4230    934.97685   -6603.8329   -6499.5348    -1229.673    19682.664    5.8021665 
    4240    935.41248   -6603.8175   -6499.4708   -1200.8043    19697.834     5.868034 
    4250    923.16358   -6602.3713    -6499.391   -700.26138    19712.096    5.9239841 
    4260    919.18134   -6601.8209   -6499.2849   -158.16493     19725.92    5.9723934 
    4270    905.17304   -6600.1083   -6499.1349    20.411136    19739.827    6.0215923 
    4280    891.46979   -6598.3562   -6498.9114   -84.557831    19754.014    6.0711312 
    4290    886.13442   -6597.4322   -6498.5826   -529.48454    19768.382    6.1174064 
    4300    893.29798   -6597.7823   -6498.1336   -832.36454    19782.519    6.1617442 
    4310     891.5698   -6597.0357   -6497.5798    -217.3751    19796.165    6.2070101 
    4320    887.40146     -6595.92    -6496.929   -10.871522    19809.818    6.2531073 
    4330    911.42464   -6597.8564   -6496.1856   -706.83509    19823.658    6.2978551 
    4340    918.06878   -6597.7875   -6495.3755   -1263.5988    19837.057    6.3414857 
    4350    916.64968   -6596.8186    -6494.565   -1624.8763    19849.399    6.3872055 
    4360     912.9292   -6595.5887   -6493.7501   -1992.9703    19860.274    6.4309485 
    4370     927.7336   -6596.4321    -6492.942   -2702.3962    19869.211    6.4680902 
    4380    938.77381   -6596.8882   -6492.1665   -2698.0349    19875.542    6.4965005 
    4390    943.35273   -6596.6936   -6491.4612   -2481.3795    19879.149    6.5099226 
    4400    966.74085   -6598.6818   -6490.8404   -2861.5638    19880.114     6.506674 
    4410    981.24074   -6599.7831   -6490.3242   -2833.2276    19878.096    6.4961602 
    4420    986.03488   -6599.9419   -6489.9482   -2468.4492    19873.024    6.4899217 
    4430    975.36658    -6598.505   -6489.7014   -1691.4185    19865.252    6.4975424 
    4440     969.3672   -6597.6904   -6489.5561   -764.17795     19855.52    6.5254065 
    4450    962.59373   -6596.8708    -6489.492   -193.88054    19844.713    6.5746224 
    4460    951.10146   -6595.5868     -6489.49   -208.77339    19833.421    6.6328857 
    4470    942.51166    -6594.661   -6489.5224   -413.42281    19821.658    6.6815315 
    4480     951.6555   -6595.7242   -6489.5656     -543.867    19809.195    6.7105458 
    4490     955.4038   -6596.2023   -6489.6255   -443.48666    19795.885    6.7178571 
    4500    941.79681   -6594.7709    -6489.712    17.024521    19781.837    6.7095069 
    4510    931.98762   -6593.7696    -6489.805    197.07536    19767.456    6.7005325 
    4520    941.16169   -6594.8916   -6489.9036   -431.49177    19752.844    6.7040886 
    4530     934.9472    -6594.301   -6490.0063     174.1928    19737.585    6.7220068 
    4540    916.67327   -6592.3515   -6490.0952    1549.4278     19722.23     6.748606 
    4550    913.02185   -6591.9945   -6490.1456    2561.8819     19708.13    6.7760762 
    4560     928.6955   -6593.7465   -6490.1491     2761.605    19696.349    6.7956402 
    4570    972.16787   -6598.6048   -6490.1581    1826.4124    19687.105    6.8009338 
    4580    1000.0397   -6601.8198   -6490.2639    652.65494    19679.549    6.7936793 
    4590    975.69465   -6599.3441   -6490.5039    549.58708    19672.614    6.7813867 
    4600    959.48738   -6597.8876   -6490.8553    998.05131    19666.132    6.7675849 
    4610    957.15025   -6598.0564   -6491.2849    1423.6647    19660.534    6.7602097 
    4620    944.71919   -6597.1702   -6491.7853    1790.4312    19656.294    6.7657926 
    4630    938.10792    -6596.976   -6492.3287    2099.9376    19653.828    6.7833384 
    4640    932.49801   -6596.9107   -6492.8891     2481.709    19653.526    6.8129222 
    4650    947.58274   -6599.1754   -6493.4712    2730.9715    19655.804    6.8502594 
    4660    974.32114   -6602.8162   -6494.1292    2301.5955    19660.912    6.8889409 
    4670    970.25314   -6603.1225   -6494.8893    1565.3922    19668.521     6.922763 
    4680    949.52092   -6601.6257   -6495.7052    1041.9928    19677.981    6.9430037 
    4690    949.93117    -6602.487   -6496.5207    512.26859    19688.744    6.9493528 
    4700    932.73261   -6601.3288   -6497.2811    201.22295      19700.3    6.9557869 
    4710    926.02826   -6601.2582   -6497.9583      144.539    19712.352    6.9766696 
    4720    922.01042   -6601.3874   -6498.5358    211.39646    19724.813     7.007258 
    4730    928.34713   -6602.5766   -6499.0181    462.89909    19737.766    7.0292796 
    4740     916.9042   -6601.7027   -6499.4206    705.31778    19751.464    7.0377728 
    4750    901.41967   -6600.2887    -6499.734    719.89983    19766.151    7.0449234 
    4760     921.8172   -6602.7951    -6499.965   -122.68781    19781.775    7.0566015 
    4770      912.916   -6601.9604   -6500.1232   -237.57297    19797.642    7.0742272 
    4780    881.32205   -6598.5092   -6500.1964    148.11786    19813.604    7.0969036 
    4790    886.47058   -6599.0475   -6500.1604    24.821146    19829.961    7.1245711 
    4800    913.83639   -6601.9664   -6500.0266   -559.48372    19846.587    7.1590397 
    4810    925.29002   -6603.0581   -6499.8407   -1265.2616    19862.882    7.2000694 
    4820    916.50587   -6601.8763   -6499.6387   -1447.7086    19878.153    7.2394498 
    4830    937.98143   -6604.0399   -6499.4066   -1450.2866    19892.139    7.2685633 
    4840    969.58511   -6607.3298   -6499.1711   -1581.0676    19904.753    7.2861053 
    4850    974.15199   -6607.6719   -6499.0038   -1870.4403    19915.817    7.2908036 
    4860    959.34046   -6605.9372   -6498.9213   -1861.6238    19925.058    7.2890719 
    4870    945.53367   -6604.3675   -6498.8918   -1510.7452    19932.454    7.2950368 
    4880     935.3688   -6603.2188    -6498.877   -1432.6857    19938.299    7.3194812 
    4890    911.34895   -6600.5018   -6498.8394   -1505.7123    19942.683    7.3661947 
    4900    896.51421   -6598.7571   -6498.7496   -1972.9367     19945.46    7.4231258 
    4910     886.9518   -6597.5221   -6498.5813    -2459.042    19946.168    7.4718313 
    4920    898.25806   -6598.5297   -6498.3276   -2696.8301    19944.279     7.505215 
    4930    920.70759   -6600.7018   -6497.9955   -2365.5668    19939.532    7.5298903 
    4940    926.47713    -6600.956   -6497.6061   -1665.6182     19932.24    7.5552814 
    4950    952.79841   -6603.4799   -6497.1938   -1343.6492     19923.06    7.5864292 
    4960    961.70341   -6604.0636   -6496.7842   -1082.4583    19912.352    7.6274722 
    4970    935.96336   -6600.8111    -6496.403   -518.14286    19900.424    7.6748311 
    4980    926.41806   -6599.3585   -6496.0151   -346.19437    19887.795    7.7112431 
    4990    928.94157   -6599.2126   -6495.5878   -23.134723    19874.703    7.7286866 
    5000    931.58605   -6599.0313   -6495.1115    434.42015     19861.51     7.733462 
Loop time of 2412.95 on 16 procs for 3000 steps with 864 atoms

Performance: 0.107 ns/day, 223.422 hours/ns, 1.243 timesteps/s
97.4% CPU use with 16 MPI tasks x 1 OpenMP threads

MPI task timing breakdown:
Section |  min time  |  avg time  |  max time  |%varavg| %total
---------------------------------------------------------------
Pair    | 1746.1     | 2104.7     | 2368.5     | 424.9 | 87.22
Bond    | 0.00031066 | 0.00081943 | 0.0017445  |   0.0 |  0.00
Neigh   | 0.034864   | 0.044048   | 0.055991   |   3.0 |  0.00
Comm    | 38.321     | 239.87     | 608.94     |1195.3 |  9.94
Output  | 0.17515    | 0.17797    | 0.2174     |   2.4 |  0.01
Modify  | 5.9248     | 68.155     | 119.05     | 582.3 |  2.82
Other   |            | 0.01675    |            |       |  0.00

Nlocal:        54.0000 ave          67 max          44 min
Histogram: 2 1 2 2 3 2 2 1 0 1
Nghost:        510.375 ave         585 max         452 min
Histogram: 1 2 0 5 3 2 1 0 1 1
Neighs:         0.00000 ave           0 max           0 min
Histogram: 16 0 0 0 0 0 0 0 0 0
FullNghs:      2366.25 ave        3338 max        1689 min
Histogram: 3 2 2 2 1 1 2 1 1 1

Total # of neighbors = 37860
Ave neighs/atom = 43.819444
Ave special neighs/atom = 0.0000000
Neighbor list builds = 300
Dangerous builds = 300
unfix   2

fix     3 all npt temp 937.5 937.5 $(100.0*dt) aniso 1.01325 1.01325 $(1000.0*dt)
fix     3 all npt temp 937.5 937.5 0.10000000000000000555 aniso 1.01325 1.01325 $(1000.0*dt)
fix     3 all npt temp 937.5 937.5 0.10000000000000000555 aniso 1.01325 1.01325 1
run     20000
Per MPI rank memory allocation (min/avg/max) = 8.901 | 8.909 | 8.917 Mbytes
Step Temp PotEng TotEng Press Volume c_msd[4] 
    5000    931.58605   -6599.0313   -6495.1115    434.42015     19861.51     7.733462 
    5010    950.22575   -6601.1198   -6495.1207   -516.57723     19861.59     7.737276 
    5020    932.55762   -6599.1706   -6495.1424   -1244.5048    19861.151    7.7407547 
    5030    914.85212     -6597.21   -6495.1569   -1310.4635    19859.466    7.7484531 
    5040    916.51842   -6597.3695   -6495.1305   -1382.6684     19856.38    7.7627682 
    5050     940.7374    -6600.005   -6495.0644   -1288.4935    19851.867    7.7854229 
    5060    963.15785    -6602.442   -6495.0003   -967.65885    19846.018    7.8164483 
    5070    950.61106   -6601.0172   -6494.9751   -153.14149    19839.189    7.8522099 
    5080    940.84208   -6599.9369   -6494.9845    476.07208    19832.175    7.8856996 
    5090    937.40305   -6599.5683   -6494.9996    214.56724    19825.574    7.9136259 
    5100    943.46456   -6600.2669    -6495.022   -527.47714     19819.17    7.9399641 
    5110    923.26409   -6598.0418   -6495.0503   -1079.6754    19812.227    7.9746142 
    5120    907.75172   -6596.3169   -6495.0559   -1194.7042    19804.176    8.0122367 
    5130    901.96606   -6595.6095   -6494.9939    -938.8856    19794.896    8.0408923 
    5140    906.13373   -6595.9177   -6494.8371   -667.89813     19784.62    8.0583419 
    5150    928.65768   -6598.1594   -6494.5662   -631.15154    19773.611    8.0763191 
    5160    941.39055   -6599.2186   -6494.2051   -420.81293    19761.937    8.1076109 
    5170    938.23369   -6598.4266   -6493.7653    201.11482    19749.858    8.1571519 
    5180    954.82942   -6599.7655   -6493.2529    704.47294    19737.951    8.2188606 
    5190    958.14936   -6599.5612   -6492.6782    1261.6222    19726.776    8.2825096 
    5200    956.52586   -6598.7871   -6492.0852    1623.4122    19716.873    8.3409064 
    5210    916.25036   -6593.6797   -6491.4706    2194.4319    19708.675    8.3874082 
    5220    919.33732   -6593.3471   -6490.7936    2193.9387    19702.696    8.4183981 
    5230    945.79886   -6595.5297   -6490.0244    1947.2289    19698.973    8.4373634 
    5240    951.47075    -6595.362    -6489.224     1986.893    19697.303    8.4511379 
    5250    953.70481    -6594.846   -6488.4588    2009.9503    19697.691    8.4675133 
    5260    953.77385   -6594.1425   -6487.7476    2028.8431    19700.192    8.4934989 
    5270    959.49698   -6594.1327   -6487.0994    1460.3313    19704.766    8.5240478 
    5280    983.69353   -6596.2564   -6486.5239     688.5797    19710.866    8.5486753 
    5290    976.63501   -6594.9995   -6486.0544    536.60834    19717.775    8.5705411 
    5300    959.86477   -6592.7762   -6485.7018    1039.7656    19725.316    8.5966059 
    5310     956.3264   -6592.1053   -6485.4256     1630.224     19733.96    8.6314223 
    5320    973.18593   -6593.7761   -6485.2158    1579.2222    19744.282    8.6776535 
    5330    976.84399   -6594.0605   -6485.0921     1228.652     19756.28    8.7330068 
    5340    976.02291   -6593.9406   -6485.0638    732.29521    19769.603    8.7896374 
    5350    959.28043   -6592.1319   -6485.1227    167.42655    19783.734    8.8463662 
    5360    930.24519   -6588.9868   -6485.2166   -93.867961    19798.129    8.8995723 
    5370    942.53264   -6590.4444   -6485.3035   -730.60908    19812.429    8.9358917 
    5380    973.63703   -6594.0087    -6485.398   -1216.6856    19826.035    8.9509546 
    5390    983.66198   -6595.3052   -6485.5762    -1047.377    19838.465    8.9566147 
    5400    953.96042   -6592.2687    -6485.853   -540.94248    19849.875    8.9699255 
    5410    953.14075   -6592.5209   -6486.1966   -631.14944    19860.706    9.0029443 
    5420    953.10169   -6592.9131   -6486.5932   -734.56253    19870.914    9.0570696 
    5430    941.44212     -6592.07   -6487.0507   -105.61466    19880.477    9.1267336 
    5440    917.32826   -6589.8542   -6487.5248    355.29137    19889.969    9.1986537 
    5450    925.86041   -6591.2801    -6487.999   -191.79343    19899.778    9.2621143 
    5460    912.71716    -6590.266   -6488.4511    -249.0405    19909.502    9.3164396 
    5470    922.03645   -6591.7409   -6488.8863   -264.00455    19919.008    9.3598329 
    5480    946.15817   -6594.8824    -6489.337   -274.36377    19928.296    9.3905839 
    5490     918.1448   -6592.2308   -6489.8103    91.937007    19937.388    9.4126389 
    5500    914.80798   -6592.3303   -6490.2821    42.552653     19946.58    9.4309967 
    5510    919.51613   -6593.3088   -6490.7354   -45.041341    19955.882    9.4481156 
    5520    918.48048   -6593.6434   -6491.1855   -59.108426    19965.211    9.4724689 
    5530    913.49104   -6593.5432   -6491.6419   -218.23791    19974.522    9.5065643 
    5540    898.77513   -6592.3391   -6492.0794   -374.29692    19983.672    9.5399182 
    5550    917.32505   -6594.8318   -6492.5028   -941.54214    19992.439    9.5646918 
    5560    933.22021   -6597.0553   -6492.9531   -1392.3924    20000.279    9.5850166 
    5570    916.92311   -6595.7314   -6493.4472   -1739.8527    20006.696    9.6071877 
    5580    924.03386   -6597.0759   -6493.9985   -2569.6107    20011.241    9.6292206 
    5590    914.29288   -6596.5989   -6494.6081    -3162.679    20013.065    9.6459642 
    5600    887.26224   -6594.2343   -6495.2589   -2646.3408    20011.615    9.6561624 
    5610    869.51292   -6592.8881   -6495.8926   -1750.3844    20007.344    9.6608146 
    5620    874.40545   -6594.0158   -6496.4746   -1281.3869    20001.112    9.6581266 
    5630    888.73627   -6596.1504   -6497.0106   -1373.5877    19993.399    9.6496845 
    5640     889.8315   -6596.7711   -6497.5091   -1210.9688    19984.182    9.6423415 
    5650     904.2797   -6598.8532   -6497.9794   -1350.3759    19973.554     9.640583 
    5660    921.82176   -6601.2709   -6498.4403   -1842.6358     19961.35    9.6423098 
    5670    927.86792   -6602.4374   -6498.9323   -2186.9473    19947.084    9.6416674 
    5680    911.80374   -6601.1668   -6499.4537   -2299.4819    19930.364    9.6358057 
    5690    897.55047   -6600.0939   -6499.9708   -1820.9683    19911.098    9.6268687 
    5700    895.43168   -6600.3371   -6500.4504   -1242.3035    19889.725    9.6238401 
    5710    881.65333   -6599.2158    -6500.866   -649.40784    19866.838     9.628612 
    5720    869.22404   -6598.1516   -6501.1883     -101.381    19843.068    9.6293733 
    5730    875.04948   -6599.0084   -6501.3953   -172.58833    19818.924    9.6171811 
    5740    882.53792   -6599.9365    -6501.488   -203.09077      19794.4     9.598824 
    5750    882.33377   -6599.8878   -6501.4621    121.77206    19769.505     9.591248 
    5760    893.16391   -6600.9397   -6501.3059     387.3912    19744.526    9.6011882 
    5770    891.41724   -6600.4492   -6501.0103    1069.1646     19719.82    9.6199474 
    5780    898.15535   -6600.7612   -6500.5707    1603.1525    19696.024     9.638568 
    5790    911.80732   -6601.6861   -6499.9726    2285.5599    19673.756    9.6542433 
    5800    935.43377   -6603.5882   -6499.2391    2788.5009    19653.681    9.6704514 
    5810    940.54219   -6603.3368   -6498.4179    3336.4451    19636.364    9.6949468 
    5820     941.9269    -6602.626   -6497.5527    3772.9284     19622.39    9.7285148 
    5830    963.93814   -6604.2174   -6496.6886    3256.3227    19612.114    9.7661602 
    5840    977.94957   -6604.9724   -6495.8806    2555.4193    19605.099    9.8148264 
    5850    967.67576   -6603.1377    -6495.192    2519.0307    19600.732    9.8762219 
    5860    952.26457   -6600.8483   -6494.6218    2791.3021    19598.957    9.9381363 
    5870    920.28113   -6596.7726   -6494.1139    3389.6061    19600.092    9.9892361 
    5880    926.95049   -6597.0308   -6493.6281    3375.3792    19604.668    10.022041 
    5890    942.73253   -6598.3074   -6493.1441     3440.928    19612.802    10.037756 
    5900    939.00871   -6597.4615   -6492.7137    3784.6406     19624.62    10.047308 
    5910    926.89063   -6595.7341    -6492.338     4192.136    19640.525    10.067526 
    5920    944.83621   -6597.3891   -6491.9912    3534.4607    19660.862    10.110193 
    5930     965.4372   -6599.3761   -6491.6802    2485.9818    19685.083    10.172036 
    5940    946.33248   -6597.0034   -6491.4386    2128.1924    19712.284    10.239412 
    5950    933.55338   -6595.3991   -6491.2598     1868.543    19742.039    10.298216 
    5960     935.0191   -6595.3935   -6491.0907    1559.8943    19774.097    10.345841 
    5970    941.43456   -6595.9425   -6490.9241    1093.6068    19808.124    10.392299 
    5980    947.56053   -6596.4715   -6490.7697    736.41015     19843.68    10.451084 
    5990    966.31433   -6598.4336   -6490.6398    264.34924     19880.36    10.524411 
    6000    966.42313   -6598.3729    -6490.567    40.122223    19917.666    10.607544 
    6010    932.85116   -6594.6075   -6490.5465     27.86543    19955.344    10.700154 
    6020    916.56055   -6592.7593   -6490.5156    -677.2361    19993.224    10.792228 
    6030    934.80423   -6594.7158    -6490.437   -1519.5276     20030.57    10.879118 
    6040    943.44561   -6595.5754   -6490.3326   -2532.6938    20066.422    10.969815 
    6050    916.99827   -6592.5076   -6490.2151   -2854.7671    20099.753    11.071126 
    6060    919.34318   -6592.6215   -6490.0674   -2957.8305    20130.098    11.174057 
    6070    943.83053   -6595.1794   -6489.8937   -3209.4043     20157.26    11.273843 
    6080    944.50385   -6595.0895   -6489.7287   -3102.2652    20180.988    11.367634 
    6090    943.64613   -6594.8464   -6489.5812   -3344.2178     20201.31    11.444315 
    6100    964.99583   -6597.1096   -6489.4629   -4220.1964    20217.906    11.499193 
    6110    957.13716   -6596.1673   -6489.3972   -4302.5883    20229.951    11.538699 
    6120     939.5874   -6594.1912   -6489.3788   -3955.9705    20237.312    11.567809 
    6130    954.16796   -6595.8415   -6489.4026   -4170.0325     20240.25    11.597029 
    6140    929.81872   -6593.1722   -6489.4496   -3369.2834    20238.737    11.637481 
    6150      908.689   -6590.8572   -6489.4916   -2572.6261    20233.527     11.68657 
    6160    911.86792   -6591.2001   -6489.4798   -2381.5038    20225.468    11.733941 
    6170    920.68001   -6592.1097   -6489.4065   -2118.5648     20214.84    11.773841 
    6180    893.28296    -6588.911   -6489.2639    -1360.448    20201.996     11.81207 
    6190    893.45366   -6588.6592   -6488.9931   -1321.3825    20187.639     11.84928 
    6200    916.19493   -6590.7371   -6488.5341   -1567.7645    20171.877    11.877478 
    6210    916.55649   -6590.0993   -6487.8561   -1391.4837     20154.52    11.898348 
    6220    940.02857   -6591.8138   -6486.9522   -1056.1177    20135.736    11.916851 
    6230    948.25463   -6591.6051   -6485.8258   -246.17615    20115.951    11.928509 
    6240    955.36176   -6591.1475   -6484.5755    619.82551    20096.015    11.926172 
    6250    975.18196   -6592.0882   -6483.3051     810.6701    20076.784    11.919063 
    6260    995.23064   -6593.1693   -6482.1498    1125.2355    20058.554    11.921215 
    6270    1005.5336   -6593.3832   -6481.2144    1435.7812    20041.641    11.931697 
    6280    1011.5782   -6593.3777   -6480.5346     1393.686    20026.346    11.944872 
    6290    1017.7768   -6593.6409   -6480.1063    1236.4982    20012.625    11.962339 
    6300    1001.9361   -6591.6699   -6479.9024    1664.6993    20000.359     11.99065 
    6310    980.61835   -6589.2542   -6479.8648    2523.7007    19989.985    12.024141 
    6320    996.88635   -6591.1407   -6479.9365    2773.5824    19982.297    12.050176 
    6330     1011.927    -6593.027    -6480.145    2741.0099    19977.592    12.063264 
    6340    980.52331   -6589.8705   -6480.4916    3072.3102     19975.89    12.063941 
    6350    962.78072   -6588.3318   -6480.9322    3238.6895     19977.46    12.056528 
    6360    966.42846   -6589.2322   -6481.4256     2839.614    19982.413    12.046238 
    6370    953.96957     -6588.38   -6481.9633    2800.1772    19990.411     12.03915 
    6380    944.56368   -6587.8674   -6482.4999    2915.8725    20001.402    12.038229 
    6390    983.25638    -6592.752   -6483.0683    2373.1358     20015.39     12.04972 
    6400    959.05902   -6590.6727   -6483.6882    2587.2181    20031.963     12.08518 
    6410    931.41258   -6588.2011   -6484.3007    2112.7723    20051.177    12.136442 
    6420    944.05994   -6590.1791   -6484.8678    1043.6497    20072.521    12.185509 
    6430    944.83462    -6590.793   -6485.3953    242.67137    20094.916    12.234764 
    6440    952.42069   -6592.1419   -6485.8979   -469.00563    20117.478    12.287094 
    6450    939.60099   -6591.1954   -6486.3814    -827.5482    20139.475    12.333539 
    6460    928.83968   -6590.4296   -6486.8162   -1732.2292    20160.395    12.363009 
    6470    935.94512    -6591.599   -6487.1929   -3180.2552    20179.246    12.375117 
    6480    937.45568   -6592.0984   -6487.5238   -4153.5071    20194.558    12.382229 
    6490      923.887   -6590.8687   -6487.8077   -4249.4753    20205.338    12.393161 
    6500     920.0225   -6590.6792   -6488.0493   -3688.4361    20211.491    12.404663 
    6510     920.9238   -6590.9722   -6488.2418   -3472.2753    20213.536    12.413824 
    6520    927.01165   -6591.8103   -6488.4008   -3921.5701    20211.708    12.427081 
    6530    941.66816   -6593.5922   -6488.5477   -4736.4624    20205.578    12.446557 
    6540    959.62558   -6595.7746   -6488.7269   -5554.3491    20194.322    12.467567 
    6550    938.79214   -6593.6784   -6488.9547   -5700.9578    20177.158    12.476578 
    6560    927.67711   -6592.6864   -6489.2027   -4991.0163    20154.002    12.461022 
    6570    926.59244   -6592.7832   -6489.4205   -3765.5018    20125.671    12.429833 
    6580     933.7557   -6593.7589    -6489.597   -2614.3873    20093.519    12.399888 
    6590    954.58714   -6596.2469   -6489.7613    -1758.476    20058.837    12.377923 
    6600    946.24616   -6595.4739   -6489.9187   -705.85113    20022.668    12.360558 
    6610    948.64992   -6595.9191   -6490.0958    286.81222    19986.147    12.343001 
    6620    928.14137   -6593.7944   -6490.2588    1451.0392    19950.415    12.323994 
    6630     933.1448   -6594.4817   -6490.3879    2051.6021    19916.647     12.29365 
    6640    978.12202   -6599.6546   -6490.5436    1862.6095    19885.403    12.251162 
    6650    960.59279   -6597.9199   -6490.7643    2832.3236    19856.704    12.217014 
    6660    959.16595     -6598.06   -6491.0636    3080.3234    19831.304     12.20899 
    6670     960.5711    -6598.593   -6491.4398    2807.1585    19809.478    12.225825 
    6680    958.74702   -6598.8603   -6491.9106    2594.1992    19790.917     12.25587 
    6690    947.66862   -6598.1921   -6492.4782    2829.2612    19775.372     12.28535 
    6700    911.24263   -6594.7412   -6493.0907    3772.2806    19763.086    12.303417 
    6710    901.92936   -6594.3036    -6493.692     4088.109     19754.85    12.307784 
    6720    912.77595   -6596.1142   -6494.2927    3491.7411    19750.882    12.308857 
    6730    900.02197   -6595.2671   -6494.8683    3344.7729    19750.666    12.316849 
    6740    919.61591   -6598.0253   -6495.4408    2568.2546    19753.854    12.333188 
    6750    929.91716    -6599.749   -6496.0154    1817.8134    19759.676     12.35849 
    6760    946.42977   -6602.2106   -6496.6349    1066.8824    19767.294    12.388804 
    6770    963.72046   -6604.8546   -6497.3501    535.08051    19775.932    12.421892 
    6780    948.34646   -6603.9588   -6498.1693    701.14216    19785.088    12.459175 
    6790    938.82841   -6603.8026   -6499.0749    689.45734    19794.823    12.503859 
    6800    915.60035   -6602.1375   -6500.0009    892.98272    19805.162     12.56162 
    6810    889.55683   -6600.0985   -6500.8671     1397.851    19816.337    12.623645 
    6820    888.62485   -6600.7229   -6501.5954    1003.5114    19828.744    12.667209 
    6830    924.47314   -6605.3367   -6502.2103    38.092229    19841.974    12.681603 
    6840    914.56734   -6604.7442   -6502.7229   -80.798846    19855.158    12.687058 
    6850    902.26546   -6603.7802   -6503.1311     108.2729    19868.119    12.693682 
    6860    890.91771   -6602.7898   -6503.4066    101.27087    19881.024    12.711288 
    6870    878.23412   -6601.5066   -6503.5383    266.16903    19893.896    12.750628 
    6880    879.33685   -6601.6312   -6503.5399     208.3622    19906.851    12.807054 
    6890    877.04698   -6601.2591   -6503.4232   -165.24845    19919.839    12.867901 
    6900    885.96791   -6602.0504   -6503.2194    -903.3669    19932.439    12.918028 
    6910     889.9495   -6602.2289   -6502.9537   -1413.0502     19943.94    12.950211 
    6920    895.53559   -6602.5569   -6502.6585   -1543.6431    19953.813    12.968052 
    6930    869.16786   -6599.2924   -6502.3354   -594.01023    19962.028     12.97368 
    6940    856.04664   -6597.4546   -6501.9613     53.49175    19969.467    12.967092 
    6950    893.08186   -6601.1263   -6501.5017   -320.45933    19976.776    12.953321 
    6960    924.43519   -6604.1222        -6501   -556.34409    19983.661    12.945422 
    6970    910.48703   -6602.0817   -6500.5155    46.176263    19989.946    12.953557 
    6980    911.07124   -6601.6778   -6500.0464    376.63339    19996.164    12.970779 
    6990     927.1632   -6602.9933   -6499.5669   -46.602652    20002.623    12.988513 
    7000    931.58727   -6603.0177   -6499.0977   -313.99308    20008.964    13.007102 
    7010    918.58193   -6601.1178   -6498.6486   -61.817415    20014.935    13.026092 
    7020    919.87948   -6600.8126   -6498.1986    149.08368    20020.748    13.048758 
    7030    938.08277   -6602.3887   -6497.7441    112.98295    20026.595    13.077294 
    7040    896.49693   -6597.2985   -6497.2929    1017.5805    20032.594    13.108577 
    7050    887.37062   -6595.8064   -6496.8188    1265.1872     20039.53    13.133753 
    7060    916.44568   -6598.4922   -6496.2614    601.01968    20047.655    13.149801 
    7070    937.68725    -6600.262   -6495.6616   -255.84237    20056.291    13.157587 
    7080    926.96571   -6598.4865   -6495.0821   -80.015159    20064.662    13.162499 
    7090    931.52895   -6598.4353   -6494.5219   -142.00621    20072.817    13.167541 
    7100    954.53142   -6600.4597   -6493.9803   -512.26732    20080.683    13.174944 
    7110    905.66615   -6594.5107   -6493.4823    149.16205    20088.008    13.196794 
    7120    913.94107    -6594.942   -6492.9905   -105.33334    20095.301    13.231613 
    7130     947.5442   -6598.1598   -6492.4598   -735.79181    20102.363    13.269886 
    7140    958.56334   -6598.8951   -6491.9659   -449.84705    20108.646    13.304761 
    7150    933.55563   -6595.6703   -6491.5308    136.63927    20114.415    13.335212 
    7160    919.89475   -6593.7445   -6491.1288   -99.721461    20120.186     13.35936 
    7170    943.62408   -6595.9821   -6490.7194   -1231.7567    20125.683    13.377969 
    7180    937.91259   -6594.9519   -6490.3264   -1632.5323    20129.855    13.388327 
    7190    913.24958   -6591.8309   -6489.9565   -1628.4353    20132.263    13.385093 
    7200    924.96901   -6592.7513   -6489.5696   -2109.4364    20132.833    13.369987 
    7210    925.72455   -6592.4242   -6489.1582   -1938.3478    20131.198    13.349068 
    7220    929.17488   -6592.3945   -6488.7436   -1641.3813    20127.491    13.330748 
    7230    951.37442    -6594.451   -6488.3238   -1258.5024    20122.087     13.32215 
    7240      963.397   -6595.4069   -6487.9385   -914.00951    20115.381    13.323707 
    7250    940.46086   -6592.5185   -6487.6087   -26.915069    20107.859    13.332848 
    7260    941.85593    -6592.378   -6487.3126    60.815129    20100.316    13.349324 
    7270    956.77379   -6593.7596   -6487.0301    91.026314     20092.94    13.373602 
    7280    958.21123   -6593.6828   -6486.7929    910.76639    20085.839    13.400574 
    7290    941.87139   -6591.6618   -6486.5947    1752.3422    20079.806    13.420464 
    7300    934.08697   -6590.6142   -6486.4154    1683.3277    20075.651    13.429403 
    7310    938.83949   -6590.9635   -6486.2345    865.25632    20073.298    13.437549 
    7320    951.07724   -6592.1511    -6486.057      116.329    20071.912    13.453748 
    7330    953.84013   -6592.3013    -6485.899   -372.05259    20070.727    13.482785 
    7340    973.72481   -6594.4149   -6485.7945   -819.22338    20069.157    13.521428 
    7350    963.18733   -6593.1992   -6485.7542   -238.91376    20066.838    13.543642 
    7360    968.78491   -6593.8547   -6485.7853    280.33882    20064.265     13.53704 
    7370    998.80615   -6597.3238   -6485.9055    318.28722    20061.977    13.511479 
    7380    1012.7053   -6599.1547   -6486.1859   -247.72047    20059.979    13.484832 
    7390    977.76118   -6595.7281   -6486.6574   -389.60442    20057.785    13.475204 
    7400    939.97119   -6592.1219   -6487.2667   -588.38544    20055.189    13.490346 
    7410    922.44046   -6590.8281   -6487.9285    -1142.419    20051.967    13.519566 
    7420    955.64645   -6595.2778    -6488.674   -2104.8866    20047.507    13.551817 
    7430    975.86841   -6598.4256    -6489.566   -2411.4879    20040.904    13.592351 
    7440    947.46238    -6596.285   -6490.5941   -1871.5512     20031.88    13.638528 
    7450    901.60923   -6592.2024   -6491.6265   -1060.3301    20020.997    13.688671 
    7460    900.57187   -6593.0191   -6492.5589   -1497.8693    20008.959    13.735835 
    7470    907.89224   -6594.6419   -6493.3651   -2342.4694    19995.437    13.767778 
    7480    901.43511   -6594.5992   -6494.0427   -2602.3966    19979.626    13.781948 
    7490    881.06632   -6592.8306   -6494.5463   -2100.2706    19961.306    13.778132 
    7500    886.61143   -6593.7778    -6494.875   -1469.5639    19940.976    13.754434 
    7510     880.4718   -6593.2478   -6495.0298   -456.72645    19919.379     13.72216 
    7520    873.50074    -6592.474   -6495.0337     424.0806    19897.563    13.697117 
    7530    887.40265   -6593.9004   -6494.9093    997.97357    19876.467    13.686532 
    7540    910.14043   -6596.2329   -6494.7054    1409.9052    19856.678    13.691175 
    7550    914.17832   -6596.4297   -6494.4517    2003.2329    19838.653    13.703553 
    7560    961.34564   -6601.4463   -6494.2068    1640.6681    19822.852    13.713463 
    7570    982.07521   -6603.5791   -6494.0272    1654.8337    19809.035    13.723531 
    7580    970.09313   -6602.1814   -6493.9661    2161.8219     19797.17    13.747447 
    7590    945.64022   -6599.4626    -6493.975    2707.0887    19787.728    13.786369 
    7600    948.48999   -6599.8231   -6494.0176    2974.7556    19781.206    13.822502 
    7610    954.45851   -6600.5511   -6494.0798    2892.0008    19777.851    13.847452 
    7620    958.69946   -6601.1309   -6494.1865    2245.5627    19777.496    13.866653 
    7630    937.03603   -6598.8447   -6494.3169     1685.609    19779.503    13.885751 
    7640    941.69738   -6599.5038   -6494.4561    698.63653    19783.201    13.901986 
    7650    954.36727   -6601.0599   -6494.5988   -471.26893    19787.577    13.917774 
    7660     953.5299   -6601.1419   -6494.7742   -1125.8803    19791.463    13.937604 
    7670    933.84472   -6599.1528    -6494.981   -752.04467    19794.242    13.953206 
    7680    929.95481   -6598.9212   -6495.1833   -641.95057    19796.172    13.955781 
    7690    932.00544   -6599.3251   -6495.3585   -462.76177    19797.422    13.948597 
    7700    940.72097   -6600.4547   -6495.5158   -203.73312    19798.181    13.942868 
    7710    939.01522   -6600.4243   -6495.6757    254.57662    19798.738    13.950453 
    7720    907.47721    -6597.053   -6495.8225    998.68558     19799.59    13.971821 
    7730    897.65483   -6596.0571   -6495.9224    1542.7887    19801.468    13.998382 
    7740    894.01223   -6595.6708   -6495.9424    2138.6437    19804.954    14.023519 
    7750    905.18889   -6596.8538   -6495.8786    2615.5047    19810.637    14.045953 
    7760     922.9502    -6598.698   -6495.7415    2518.5232    19818.959    14.063322 
    7770    933.47931   -6599.6818   -6495.5508    1930.7252    19829.816    14.076255 
    7780    939.92431   -6600.1752   -6495.3253    780.13361    19842.552     14.08804 
    7790    927.02258   -6598.4781   -6495.0674   -423.77029    19855.984    14.102086 
    7800    912.23404   -6596.5119   -6494.7509   -1244.2813    19868.878    14.120488 
    7810    907.55297   -6595.5785   -6494.3396   -1189.0419    19880.432    14.136515 
    7820    917.51032   -6596.1542   -6493.8045   -1066.8057    19890.635    14.139449 
    7830    930.83309   -6596.9725   -6493.1367   -1307.4838    19899.582    14.130438 
    7840    916.82814   -6594.6234   -6492.3499   -886.90319    19907.135    14.126474 
    7850    933.61219   -6595.5997   -6491.4539   -507.12563    19913.675    14.139471 
    7860    936.99485   -6594.9819   -6490.4587   -194.00063    19919.619    14.170507 
    7870    938.95468   -6594.1872   -6489.4454    172.52089    19925.327    14.213076 
    7880    939.57689   -6593.2719   -6488.4607    251.83333    19931.143    14.255296 
    7890    935.62328   -6591.9235   -6487.5533    468.39476    19937.212    14.290635 
    7900    954.99583   -6593.2819   -6486.7507    128.64643    19943.696    14.322793 
    7910    970.87267   -6594.3874   -6486.0851   -357.60417    19950.259     14.35658 
    7920    960.41373   -6592.7126    -6485.577   -600.39324    19956.445    14.390406 
    7930    996.46611   -6596.3875   -6485.2302   -1343.6018    19961.883    14.415269 
    7940    987.68117     -6595.21   -6485.0326   -958.29758    19965.975    14.423027 
    7950    989.07216   -6595.3222   -6484.9897   -492.98315     19969.03    14.412755 
    7960     994.4112   -6595.9968   -6485.0687   -235.27299    19971.529    14.395328 
    7970    989.22058   -6595.6064   -6485.2573    300.34765    19973.792    14.381128 
    7980    987.66006   -6595.7222   -6485.5472    781.13212    19976.347    14.374506 
    7990     975.0597   -6594.6847   -6485.9153    1131.0657    19979.699    14.373761 
    8000    952.78494   -6592.6132   -6486.3286    1309.5751    19984.233    14.371148 
    8010    944.32114   -6592.0757   -6486.7353    1099.1855    19990.133    14.365377 
    8020    973.98876   -6595.7924   -6487.1425    187.66669    19997.112    14.362405 
    8030    989.03565   -6597.9375   -6487.6091   -736.82816    20004.269    14.363838 
    8040    956.24764   -6594.8028    -6488.132   -1129.7003    20010.668    14.368459 
    8050    927.09903   -6592.0629   -6488.6436   -1171.4658    20015.865    14.379815 
    8060    921.98596   -6591.9505   -6489.1016   -1014.7302    20019.796    14.399911 
    8070    910.94584   -6591.1031   -6489.4857   -391.68778    20022.668    14.418299 
    8080    913.15827   -6591.6611   -6489.7969    100.88224    20025.085    14.417536 
    8090    904.28856   -6590.8959   -6490.0212    513.32854    20027.622    14.398828 
    8100    914.22308   -6592.1526   -6490.1696    78.322802    20030.607    14.383578 
    8110    946.62266   -6595.8728   -6490.2756   -548.63018    20033.643    14.394688 
    8120    950.65638   -6596.4379   -6490.3908   -485.87941    20036.171    14.430493 
    8130    941.39848   -6595.5411   -6490.5266   -799.26809    20038.143    14.474954 
    8140    959.27939   -6597.6969   -6490.6878   -1481.5354    20039.208    14.516637 
    8150    944.01607   -6596.1904    -6490.884   -1157.2269    20038.783    14.553005 
    8160    897.69021   -6591.2138   -6491.0751   -97.564088    20037.199    14.582749 
    8170    902.13932   -6591.8389   -6491.2039    315.66358    20035.443    14.596377 
    8180    909.41277   -6592.6948   -6491.2484    184.43803     20033.98    14.595619 
    8190    913.44038   -6593.1364   -6491.2407   -216.11407      20032.7    14.586167 
    8200    914.87564   -6593.2183   -6491.1625   -472.38922    20031.215    14.565981 
    8210    935.63434   -6595.4265   -6491.0551   -472.04498    20029.242    14.538947 
    8220    926.34115   -6594.2463   -6490.9115    273.90172     20026.86    14.518645 
    8230    932.21316   -6594.7389   -6490.7491    759.91271    20024.749     14.51502 
    8240    927.84711   -6594.0513   -6490.5485    907.56983    20023.442    14.527327 
    8250    927.10596   -6593.7288   -6490.3087    215.18316    20023.032    14.547503 
    8260    920.87647   -6592.7382   -6490.0131   -811.12217    20022.815     14.57113 
    8270    910.40313   -6591.1847   -6489.6279   -1423.0282    20021.785    14.589382 
    8280    927.41716   -6592.5775   -6489.1228   -2174.5199    20019.196    14.586727 
    8290     912.1209   -6590.2273   -6488.4788   -2166.8917    20014.355    14.559977 
    8300    935.81859   -6592.0894   -6487.6975   -2130.4015    20007.176    14.523653 
    8310    952.09453   -6592.9932   -6486.7856   -1763.1755    19997.754    14.498764 
    8320    945.90352    -6591.341    -6485.824   -1378.4404    19986.449    14.491082 
    8330    948.56304   -6590.6675   -6484.8539   -1307.2263    19973.633     14.49012 
    8340    964.57135   -6591.5119   -6483.9125   -1149.8988    19959.442    14.489005 
    8350    997.04968   -6594.2897   -6483.0673   -983.77454    19944.039    14.483811 
    8360    986.06513   -6592.3946   -6482.3976   -178.80857    19927.666    14.480062 
    8370    970.79204   -6590.1894   -6481.8961     921.0044    19911.172     14.47598 
    8380    1005.9675   -6593.7427   -6481.5255    1480.6966    19895.636    14.467236 
    8390    1016.1964   -6594.7008   -6481.3426    2032.9375    19881.709    14.464266 
    8400    971.99658   -6589.7633   -6481.3356    2391.3975    19869.969    14.472545 
    8410    977.44386   -6590.4769   -6481.4416    1420.5538    19860.651     14.49489 
    8420    991.37971    -6592.217   -6481.6271    922.75989    19852.917    14.538989 
    8430    974.60939   -6590.6082   -6481.8891    1572.0142    19846.307    14.601608 
    8440    971.39649   -6590.5636   -6482.2029    2024.5833     19841.35    14.668847 
    8450     983.2591   -6592.2514   -6482.5674    2079.5078     19838.51    14.728118 
    8460    976.69812   -6591.9475   -6482.9954    1922.1327    19837.873    14.774878 
    8470    980.63426    -6592.873   -6483.4818    1296.3611     19839.21    14.805321 
[...]
   22890    977.35734   -6581.6001   -6472.5744    2559.0095    20159.681    53.668364 
   22900    989.83075   -6583.3734   -6472.9563    2826.9896    20167.096    53.756467 
   22910    989.89867   -6583.8528   -6473.4281     2840.701    20177.638    53.886012 
   22920    998.41357   -6585.4001   -6474.0256    1854.2613    20191.229    54.028302 
   22930    953.01773   -6581.0032   -6474.6926    1128.7823    20206.968    54.152306 
   22940    943.33628   -6580.5833   -6475.3528   -194.75769    20223.953    54.238682 
   22950    942.98696   -6581.1742   -6475.9826   -661.72905    20240.909    54.288783 
   22960    924.74986   -6579.7238   -6476.5666   -177.53769    20257.325    54.319083 
   22970    913.81286   -6579.0235   -6477.0863    208.63347    20273.625    54.357858 
   22980    909.44398   -6578.9691   -6477.5193    576.34458    20290.249    54.430412 
   22990    911.34891   -6579.5226   -6477.8603    706.62311     20307.59    54.526066 
   23000    932.38439   -6582.1452   -6478.1363   -219.51893    20325.662    54.630803 
   23010    938.29133   -6583.0397   -6478.3719   -1008.2905    20343.584    54.729841 
   23020    941.23731   -6583.5951   -6478.5986   -1499.6672    20360.483    54.816302 
   23030    926.81138    -6582.202   -6478.8148   -1751.1307    20375.815    54.898099 
   23040    916.98756   -6581.2962   -6479.0048   -2277.5135    20389.234    54.967508 
   23050    933.52319   -6583.2956   -6479.1597   -2894.8525    20400.151    55.018977 
   23060    928.10352   -6582.8175   -6479.2862   -2438.8872    20408.006    55.064366 
   23070    929.96581   -6583.1377   -6479.3986   -1946.6286    20413.164      55.1173 
   23080    938.18188   -6584.1553   -6479.4997   -1739.6791    20416.156    55.184506 
   23090    937.64275   -6584.2004    -6479.605   -1931.3739    20417.165    55.278489 
   23100    937.38213   -6584.2909   -6479.7245   -2258.0758    20416.002    55.384234 
   23110    923.70707   -6582.8976   -6479.8567   -2223.7105     20412.36    55.459835 
   23120    899.92245   -6580.3536   -6479.9659   -1449.3747    20406.296    55.488039 
   23130    902.54307   -6580.6838   -6480.0038   -981.10916     20398.55     55.48362 
   23140    920.77275    -6582.673   -6479.9594   -831.84448    20389.672    55.467813 
   23150    954.99589   -6586.4118   -6479.8806   -876.71812    20379.824    55.457509 
   23160    943.42182   -6585.0335   -6479.7934   -514.22192    20369.035     55.46411 
   23170     943.9861   -6585.0241    -6479.721   -188.78159    20357.644    55.495908 
   23180    943.94068   -6584.9437   -6479.6457    -47.90835    20346.019    55.545374 
   23190    939.09334   -6584.3336   -6479.5763    220.95009    20334.316    55.574009 
   23200    902.14237   -6580.0957   -6479.4603    1439.1933    20322.956    55.551503 
   23210    916.46959   -6581.5011   -6479.2675    1722.9985    20313.067     55.48476 
   23220    936.14039   -6583.3978   -6478.9699     1407.227     20305.04    55.424449 
   23230     942.4495    -6583.742   -6478.6103    758.30287    20298.522     55.41701 
   23240    929.77321   -6581.9109   -6478.1933    539.51175    20292.901    55.442517 
   23250    946.33124   -6583.2708   -6477.7061    99.920028    20287.822    55.465207 
   23260    947.70337   -6582.8725   -6477.1547    119.46134    20282.883    55.464895 
   23270    934.38391    -6580.788   -6476.5561    662.64352     20278.12    55.456577 
   23280    929.01528   -6579.5355   -6475.9025    853.67667    20274.044     55.45941 
   23290     934.1332   -6579.3824   -6475.1785    678.95996    20270.878    55.468997 
   23300    939.52157   -6579.2098   -6474.4047     448.8646    20268.454    55.482052 
   23310    940.73504   -6578.5462   -6473.6058    351.13353    20266.539    55.504802 
   23320    937.38964   -6577.3901   -6472.8229    429.38382    20265.018    55.533182 
   23330    950.17291   -6578.0553   -6472.0621    401.95097    20263.978    55.557946 
   23340    980.46028   -6580.7327   -6471.3609    385.41149    20263.372    55.596543 
   23350    971.29498   -6579.1233   -6470.7739    1030.5076    20263.271    55.677307 
   23360    980.66122   -6579.7123    -6470.318    1029.8352    20264.236    55.787729 
   23370    1008.2165    -6582.457    -6469.989    790.48654    20266.337    55.877725 
   23380    1000.7956   -6581.4618   -6469.8216    887.40671    20269.369    55.903648 
   23390    1001.2018   -6581.5056   -6469.8201    479.90822    20273.338    55.870548 
   23400     1003.189   -6581.8677   -6469.9605   -282.08198    20277.822    55.838334 
   23410     1003.064   -6582.1579   -6470.2646   -507.14114    20282.071    55.851187 
   23420    977.74498    -6579.766   -6470.6971   -363.56449    20285.833    55.911259 
   23430    960.38548   -6578.3475   -6471.2151   -522.80824    20289.196    56.005435 
   23440    930.00018    -6575.485   -6471.7421   -724.43336    20291.999    56.117954 
   23450    930.01609   -6575.9852   -6472.2405   -783.30826    20294.028    56.228708 
   23460    938.52457   -6577.3974   -6472.7035   -731.23911    20295.211    56.320498 
   23470    939.97072    -6578.002   -6473.1469   -547.76657    20295.628    56.387819 
   23480    957.22578   -6580.3758   -6473.5958    -486.3817     20295.43    56.433657 
   23490    946.54856   -6579.6408   -6474.0519   -456.05761    20294.694    56.460408 
   23500    963.09791   -6581.9584   -6474.5234    -725.6457    20293.417    56.467688 
   23510    975.04669   -6583.8028   -6475.0349   -638.71058    20291.365    56.458952 
   23520    963.49722   -6583.0719   -6475.5924   -234.63331    20288.619    56.449569 
   23530    939.81838   -6580.9942    -6476.156    264.16448    20285.602    56.452412 
   23540    907.79408    -6577.909   -6476.6432    633.58284    20282.862    56.467491 
   23550    932.58742   -6581.0804   -6477.0489    260.43953    20280.734    56.506058 
   23560    938.87495   -6582.1169    -6477.384    146.08698    20278.924    56.560702 
   23570    942.85613   -6582.8655   -6477.6885    2.0409858    20277.252    56.609805 
   23580    922.97443   -6580.9044   -6477.9453     80.53501    20275.597    56.649212 
   23590    909.62715    -6579.604   -6478.1337    461.21167    20274.061    56.665386 
   23600     921.9735   -6581.1024   -6478.2549     376.7479    20272.966    56.652402 
   23610    924.51459   -6581.4554   -6478.3244     124.5145     20272.28    56.624836 
   23620    943.23243    -6583.593    -6478.374   -314.58743    20271.711    56.591919 
   23630    949.08595   -6584.2993   -6478.4274   -149.14212    20270.863    56.553698 
   23640     947.9587   -6584.2412   -6478.4949    248.77875    20269.873    56.505683 
   23650    971.32362   -6586.9427   -6478.5901    33.915199    20269.101    56.458962 
   23660    988.06674   -6588.9746   -6478.7543   -312.95037    20268.357     56.43475 
   23670    973.78561   -6587.6358   -6479.0086   -186.34919    20267.313    56.413457 
   23680    941.37621   -6584.3176   -6479.3057    550.07273    20266.119    56.378203 
   23690    936.20068   -6584.0277   -6479.5931    1185.6046    20265.512    56.344388 
   23700    933.75994   -6584.0137   -6479.8514    1691.5908    20266.197    56.329018 
   23710    936.85497   -6584.5876     -6480.08    1914.3006     20268.76    56.348921 
   23720    947.88234   -6586.0426   -6480.3049    1265.7685    20273.389    56.396047 
   23730    911.06141   -6582.1338   -6480.5035    1122.6331    20279.582     56.44414 
   23740    912.64504   -6582.4563   -6480.6493    243.78551    20287.021    56.480637 
   23750    923.83335   -6583.7823   -6480.7273   -248.64045    20294.905    56.514271 
   23760    918.65368   -6583.2445   -6480.7673   -249.61372    20302.692    56.556779 
   23770    911.20674   -6582.4101   -6480.7636   -664.39014    20310.279    56.616199 
   23780    921.95163    -6583.549   -6480.7039   -1157.0087    20317.264     56.67674 
   23790     959.2619   -6587.6368   -6480.6297   -1208.7961    20323.114    56.729372 
   23800    944.11795   -6585.9012   -6480.5834   -133.78639     20327.86     56.77895 
   23810    920.84469   -6583.2787   -6480.5571    418.51582    20332.486    56.821044 
   23820     918.8042   -6583.0026   -6480.5086    261.17193    20337.611    56.858469 
   23830    906.81454   -6581.5661   -6480.4096    37.058227    20343.134    56.891761 
   23840    905.06408   -6581.2158   -6480.2545    7.4415103    20348.837    56.926171 
   23850    910.67949    -6581.624   -6480.0364   -100.58288     20354.65    56.965433 
   23860    901.99488   -6580.3714   -6479.7525    53.587149    20360.511    56.991318 
   23870    929.51269   -6583.1004   -6479.4118   -183.82655    20366.519     56.99686 
   23880    947.43348   -6584.7234   -6479.0358   -254.60352    20372.483    57.005372 
   23890    945.88065   -6584.1962   -6478.6818    -56.53793    20378.325    57.031638 
   23900     949.5797   -6584.2751    -6478.348   -293.92476     20384.19    57.061854 
   23910    961.00108   -6585.2463   -6478.0452   -790.36074    20389.817    57.070212 
   23920    941.58224   -6582.8097   -6477.7748   -836.43238    20394.745    57.053165 
   23930    924.56902   -6580.6584   -6477.5213   -1525.7197    20398.769     57.02985 
   23940    917.49672   -6579.5781   -6477.2299   -2630.2566    20401.118    57.008671 
   23950    919.23403   -6579.4407   -6476.8987   -2936.3998    20400.631    56.981672 
   23960    909.75142   -6577.9922    -6476.508   -2276.0924    20396.932    56.932407 
   23970    908.52754   -6577.3885   -6476.0409   -1165.0737    20390.654    56.863448 
   23980    924.40388   -6578.5947    -6475.476   -393.85296    20382.903    56.786351 
   23990    958.56453   -6581.7526   -6474.8232   -97.441336    20374.494    56.716574 
   24000    946.69296   -6579.7262   -6474.1212    515.16103    20365.843    56.666741 
   24010    937.34329   -6577.9567   -6473.3947    692.24477    20357.525    56.649157 
   24020    954.61001   -6579.0944   -6472.6063    374.03555    20349.764    56.667975 
   24030    960.58306   -6578.9143   -6471.7598    141.49265    20342.262    56.712221 
   24040    979.45933   -6580.1468   -6470.8866    380.65561    20334.815    56.765535 
   24050    983.98851   -6579.7686   -6470.0032    994.34474    20327.676    56.813538 
   24060    981.58433   -6578.6676   -6469.1704    1790.7144    20321.507    56.842017 
   24070    993.63423     -6579.24   -6468.3986    2273.7534    20317.169    56.859128 
   24080    989.08639   -6578.0445   -6467.7105    2573.4996     20315.28    56.872548 
   24090    995.24832   -6578.1327   -6467.1112    2255.3185    20316.189     56.86643 
   24100    1024.7775   -6580.9341   -6466.6186    1341.5534    20319.576    56.851987 
   24110    1037.6375   -6582.0404   -6466.2904    929.87387    20324.608    56.860625 
   24120    1040.4144   -6582.2284   -6466.1686    888.74025    20330.843    56.897197 
   24130    1054.2526   -6583.9244   -6466.3209    1236.7126    20338.253    56.947828 
   24140    1028.8985   -6581.5967   -6466.8216    2335.6234    20347.297    56.999758 
   24150    1015.8515   -6581.0788   -6467.7591     2533.027    20359.058     57.04448 
   24160    993.96429   -6580.1171   -6469.2389    1992.0153    20373.852    57.089992 
   24170    957.99295    -6578.024   -6471.1584    883.80996    20391.153     57.16255 
   24180    937.69784   -6577.7466    -6473.145   -501.14435    20409.808    57.249061 
   24190    945.06524    -6580.224   -6474.8005   -1568.6107    20428.312    57.318831 
   24200    943.93322   -6581.3213   -6476.0242   -1745.2301    20445.508    57.381893 
   24210    892.69032   -6576.4131   -6476.8321   -1177.6307    20461.145    57.444913 
   24220    883.57457   -6575.8809   -6477.3168    -1363.062    20475.683    57.488178 
   24230    913.05487   -6579.4579   -6477.6053   -2313.0423    20488.878    57.515778 
   24240    904.93487   -6578.7257   -6477.7788   -2297.1468    20499.816    57.540427 
   24250    893.79104   -6577.5803   -6477.8766   -1999.5275    20508.345    57.545437 
   24260    886.15652   -6576.7319   -6477.8798   -1644.0599    20514.769    57.521115 
   24270    905.11905   -6578.7549   -6477.7875   -1810.8562    20519.406    57.495708 
   24280    926.96487   -6581.0275   -6477.6232   -2499.9521    20521.999    57.510309 
   24290    917.91295   -6579.8081   -6477.4135   -2542.8514    20521.859    57.559345 
   24300    911.54334   -6578.8472   -6477.1632   -2063.1007    20518.889    57.599691 
   24310     915.0848   -6578.9439   -6476.8648   -1521.0588    20513.528    57.623131 
   24320    904.75223   -6577.4387   -6476.5122   -875.84389    20506.382    57.641064 
   24330    919.35514   -6578.6571   -6476.1016   -801.73686    20498.084    57.640238 
   24340     947.0707    -6581.293   -6475.6458   -828.77309    20488.741    57.617777 
   24350    944.46522   -6580.5421   -6475.1856   -366.75368     20478.37    57.583826 
   24360    951.89925    -6580.934   -6474.7482   -496.34391     20467.36    57.538847 
   24370    946.76804   -6579.9521   -6474.3387   -688.97221    20455.638    57.496586 
   24380    935.41253   -6578.3018   -6473.9551   -351.49172    20443.026    57.463201 
   24390    938.51115   -6578.2675   -6473.5752   -80.159306     20429.79    57.444631 
   24400    944.17286   -6578.5059    -6473.182    93.950305    20416.278    57.433408 
   24410     976.2777    -6581.729   -6472.8238   -483.24666    20402.572    57.409856 
   24420    961.29206   -6579.7598   -6472.5263   -121.01785    20388.231    57.389767 
   24430    970.66723   -6580.5777   -6472.2983    313.29436    20373.527     57.40944 
   24440    987.43847   -6582.2898   -6472.1396      502.961    20358.923    57.457483 
   24450    981.11962   -6581.5147   -6472.0693    949.89974    20344.719    57.478787 
   24460    1002.3562   -6583.9373   -6472.1229    962.35138    20331.309    57.438772 
   24470    981.96511   -6581.8547    -6472.315    1575.9704    20318.859    57.367637 
   24480     956.1117   -6579.2634   -6472.6077    1888.1245    20307.959    57.289896 
   24490    954.02907   -6579.3915   -6472.9681    1720.2539     20298.95    57.220496 
   24500     931.9514   -6577.3226    -6473.362    1774.0806    20291.747    57.188271 
   24510    927.77268    -6577.249   -6473.7546    1778.5094    20286.417    57.200945 
   24520    952.72571   -6580.4283   -6474.1503    1084.9101    20282.894    57.245141 
   24530    964.40321   -6582.1692   -6474.5886     646.9501    20280.571    57.297463 
   24540    961.62282   -6582.3636   -6475.0931    362.31085     20278.95    57.355208 
   24550    969.39339   -6583.8038   -6475.6665    324.43691    20277.726    57.434687 
   24560    959.46931   -6583.3341   -6476.3039    729.07023    20276.887    57.513486 
   24570    920.03123   -6579.5883   -6476.9574    1236.9677    20276.842    57.554715 
   24580    907.99171    -6578.842   -6477.5542    875.21637    20278.063    57.550383 
   24590     893.3644   -6577.7057   -6478.0495    346.55873    20280.285    57.514685 
   24600    891.09902   -6577.8432   -6478.4397   -190.02259    20282.927    57.485816 
   24610    888.30979   -6577.8084   -6478.7161    -572.8559    20285.424    57.484471 
   24620    908.34215   -6580.2195   -6478.8926   -589.36283    20287.363    57.507324 
   24630    920.26172   -6581.6574   -6479.0008   -271.44851    20288.713    57.533793 
   24640    914.77267   -6581.1096   -6479.0653   -86.181848    20289.775    57.538811 
   24650    909.79872   -6580.5783   -6479.0889   -23.345565    20290.748    57.521722 
   24660    898.55325   -6579.2797   -6479.0447    423.02398     20291.76    57.505143 
   24670     906.1548   -6580.0006   -6478.9176    228.13181    20293.176    57.505196 
   24680    919.81935   -6581.3221   -6478.7149   -169.78512     20294.85    57.538249 
   24690    933.02816    -6582.532   -6478.4513   -248.36394    20296.414    57.595484 
   24700    960.78768    -6585.354   -6478.1767   -826.21465    20297.663    57.651547 
   24710    961.82134   -6585.2188   -6477.9262   -1130.9549    20298.063    57.705323 
   24720    960.71774   -6584.8879   -6477.7184   -1046.5365    20297.243    57.759442 
   24730    961.14927   -6584.7689   -6477.5513   -56.504856    20295.347     57.79852 
   24740    960.80284   -6584.6077   -6477.4287    597.34306    20293.329     57.83035 
   24750    971.97953   -6585.7895   -6477.3638    388.77337     20291.86    57.873219 
   24760    951.00577   -6583.4469   -6477.3608    380.59888    20290.832    57.919206 
   24770    948.31496   -6583.1904   -6477.4045    497.90137    20290.228    57.965665 
   24780    986.22302   -6587.5189   -6477.5043    392.23194    20290.149    58.012906 
   24790    984.58779   -6587.5577   -6477.7255    820.63656    20290.559    58.048539 
   24800    959.01538   -6585.0587   -6478.0791    1283.7024    20291.909    58.083804 
   24810    972.92909   -6587.1058   -6478.5741    903.77164    20294.614    58.125349 
   24820    965.32655   -6586.9221   -6479.2385    1212.7047    20298.445    58.166154 
   24830    944.44265   -6585.4196   -6480.0656     1869.498    20303.721    58.196454 
   24840    928.50914   -6584.5729   -6480.9963    1900.4362    20311.108    58.218945 
   24850    926.01363   -6585.2619   -6481.9637    906.49162    20320.638    58.252665 
   24860    932.24063   -6586.9178    -6482.925   -601.54564    20331.271    58.316227 
   24870    922.06109   -6586.6846   -6483.8273   -1073.1214     20341.51    58.413387 
   24880     928.5274   -6588.2379   -6484.6593   -640.64463     20350.79    58.526424 
   24890    905.32907   -6586.3663   -6485.3755    44.076472    20359.524    58.624655 
   24900    880.74221   -6584.1757   -6485.9275    374.51894    20368.405    58.700179 
   24910    879.57482   -6584.4228   -6486.3049     375.5599    20377.801    58.786267 
   24920    879.40912   -6584.6134   -6486.5139   -91.040097    20387.719    58.896239 
   24930    887.14053   -6585.5547   -6486.5928   -794.61467     20397.66    58.999971 
   24940    892.00464    -6586.064   -6486.5596   -1141.8054     20406.89    59.078084 
   24950    894.91586   -6586.2619   -6486.4327   -1550.1523    20414.943    59.131927 
   24960    879.19532   -6584.3039   -6486.2283   -1392.7256    20421.431    59.182631 
   24970      854.092   -6581.2056   -6485.9304   -1157.2494    20426.463     59.25302 
   24980     859.0011   -6581.3226   -6485.4997   -1427.9614    20430.211    59.331685 
   24990    870.05706   -6581.9875   -6484.9313   -1708.3737    20432.417    59.410126 
   25000    878.17474   -6582.2246   -6484.2628   -1969.3936    20432.732     59.49846 
Loop time of 15867.9 on 16 procs for 20000 steps with 864 atoms

Performance: 0.109 ns/day, 220.388 hours/ns, 1.260 timesteps/s
97.3% CPU use with 16 MPI tasks x 1 OpenMP threads

MPI task timing breakdown:
Section |  min time  |  avg time  |  max time  |%varavg| %total
---------------------------------------------------------------
Pair    | 10436      | 13863      | 15180      |1190.4 | 87.36
Bond    | 0.0024445  | 0.0055105  | 0.0097625  |   3.3 |  0.00
Neigh   | 0.22767    | 0.29091    | 0.34845    |   6.6 |  0.00
Comm    | 444.6      | 1720.7     | 4999.6     |3259.3 | 10.84
Output  | 1.4252     | 1.4516     | 1.8325     |   8.2 |  0.01
Modify  | 193.09     | 282.72     | 430.3      | 449.1 |  1.78
Other   |            | 0.1113     |            |       |  0.00

Nlocal:        54.0000 ave          60 max          44 min
Histogram: 1 0 0 3 0 4 1 0 4 3
Nghost:        502.500 ave         530 max         463 min
Histogram: 2 1 0 2 1 1 0 3 4 2
Neighs:         0.00000 ave           0 max           0 min
Histogram: 16 0 0 0 0 0 0 0 0 0
FullNghs:      2266.62 ave        2748 max        1649 min
Histogram: 1 1 2 1 2 2 2 1 1 3

Total # of neighbors = 36266
Ave neighs/atom = 41.974537
Ave special neighs/atom = 0.0000000
Neighbor list builds = 2000
Dangerous builds = 2000
unfix   3
                
Total wall time: 5:30:03
