1.00x-LiKCl-full/712.5K/mixed.data (written by ASE) 

864 	 atoms 
2  atom types
0.0      15.613400011352246  xlo xhi
0.0      15.650667222148753  ylo yhi
0.0      60.676647560236653  zlo zhi


Masses 

1 35.45
2 39.0983


Atoms 

     1   0   1   0.0      4.2249396516995823      4.1665609170690763      5.7844899055986714
     2   0   2   0.0      4.3256678159690551      17.234857058185192       5.771832094306367
     3   0   1   0.0      4.2293655292714121      9.3637275249315799      10.993419037118723
     4   0   2   0.0      9.3631018680214897      6.7784919258741478       5.702396144104088
     5   0   2   0.0      1.6332728938582666      4.2238373965361475      5.8339605132991075
     6   0   2   0.0      6.8094900657113415      4.1506926476947301      5.7648856748282995
     7   0   1   0.0      6.9083400006002229      17.163826496638819      5.7846515951730737
     8   0   1   0.0      1.6741548923994733      14.615449287229952      8.4163071681068473
     9   0   2   0.0      4.1752291244766999      6.8293344096029145      5.7979577129222735
    10   0   1   0.0      6.9004439798516159      14.624882066972644      8.4434539981300141
    11   0   2   0.0      6.7675970682673476      12.035747721862636       8.435658093158338
    12   0   2   0.0      1.6239972895293311      1.6497371780008749      3.2184416504351323
    13   0   1   0.0      6.7857937146120157      6.6625202189581874      5.8313325864619294
    14   0   1   0.0      9.3577987853738946      6.7546997200500671      8.3724253451561559
    15   0   1   0.0      4.2109662183048311      9.3548059383894699      5.7474486109550984
    16   0   2   0.0       6.877637527601606      9.3508462571029121      5.8327220262859871
    17   0   2   0.0      1.6676466465815127      4.1346227111682117      11.012779982482893
    18   0   2   0.0       4.145404161070644      4.1586093740259367      3.1801425844180025
    19   0   2   0.0      4.2711367951983252      12.007340322807488      5.8467577101541259
    20   0   1   0.0         6.8935990640722      11.998976592655616      5.8124047343504568
    21   0   1   0.0      6.8156792352403981      9.4611660868168919      8.4249506570479546
    22   0   1   0.0      4.3527907582560772      14.630493760777359      5.7826452391296561
    23   0   2   0.0      6.8847037661440806      14.621162866104942      5.7502531748904477
    24   0   1   0.0       4.315940666740202      17.221430046685789       8.324150056247241
    25   0   2   0.0      1.6630902262355058      14.608210936640596       10.99825079809295
    26   0   2   0.0      4.2136898842508295      4.2000729260785681      8.4138260048428268
    27   0   1   0.0      4.1889168202045557      11.933987978852857      8.4130555265893445
    28   0   1   0.0      1.6989666109472916      17.248495482982516      5.8862388983606841
    29   0   1   0.0      6.8024836812716538      4.1515019154233439      8.4044468010370821
    30   0   2   0.0      6.9275667365619098      17.206904384734848      8.4508946458216307
    31   0   2   0.0      9.3678110449166425      4.1910778206312926      8.3235645062721311
    32   0   2   0.0      4.1865362983983996      11.904677964784979      11.001992836361374
    33   0   1   0.0      4.1335972003245143      6.7654707157789584      8.4056229508718907
    34   0   2   0.0      6.8207188741756539      6.7483368449315932      8.3798478204920919
    35   0   1   0.0       1.736801251878441      17.117252115356887      10.982972660321536
    36   0   2   0.0      4.1591481079443469      9.4519551932898729      8.3884734265313412
    37   0   1   0.0      6.7823052536457364      9.4213551553308328       3.199285443167061
    38   0   2   0.0      4.2678268246317472      14.546270090903013      8.4056945380565971
    39   0   1   0.0      9.4238927927693084      4.2364417397453016      5.7159135961114771
    40   0   2   0.0      1.7756980654353862      17.221770871853494      8.4319638307340732
    41   0   1   0.0      6.9124882058188186      1.6319344849378783      10.963467959268382
    42   0   2   0.0       1.682653420900823      14.716148240893217      5.7981381517278221
    43   0   2   0.0      6.6877605058748628      6.7553528596263472      3.2053235264385669
    44   0   1   0.0      1.6938382325971399      12.191023484201212      5.8369026272579774
    45   0   2   0.0      4.1556581745208101      6.7941922603014335      11.010867994305244
    46   0   1   0.0      4.2866074943977823      4.1301534687832966      10.985062143280601
    47   0   1   0.0      9.4180742699244799      11.970923416544577      8.3329856177251642
    48   0   1   0.0      1.6643617851127752      4.2313750896350033      8.3557292988761844
    49   0   2   0.0      9.4022675607752859      6.7861028075088887      11.008599482904257
    50   0   2   0.0      9.4202333770621749      14.596088977498097      8.3459742992004955
    51   0   2   0.0      4.3611363655873321      17.214412868906251      11.014300338416163
    52   0   1   0.0      4.2738761341796021      11.925903412330046      3.1796435712080537
    53   0   1   0.0      4.3332960793754882      1.6347089490101971      13.565540803266249
    54   0   2   0.0      4.2396706884672852      4.2525719841136631      13.634958440959251
    55   0   1   0.0      9.4096471881483161      17.250247404978058      18.753881793153532
    56   0   1   0.0      1.6429111684661506      9.4679488528976208      13.695739124179577
    57   0   1   0.0      4.2617113816515522      14.624395642874227      16.378290357820653
    58   0   1   0.0       1.655028496470103      14.693870793361105      13.581018058679115
    59   0   1   0.0      6.8330418800993451      4.2203868523481294      13.631061140855097
    60   0   2   0.0      6.9024658087168893      1.6064775270578804      13.586496321449106
    61   0   2   0.0      4.2674585115481616      17.160759009881509      16.277955657980812
    62   0   2   0.0      6.8840775841482662      4.1843463338791214      11.023405204306268
    63   0   1   0.0      4.1484785025116224       6.806077693125391      13.661993456175773
    64   0   1   0.0      9.3878032906508864      6.8263914785958715      13.695612453970099
    65   0   2   0.0      6.7814686028370597      6.8296278072112342      13.720448353994575
    66   0   1   0.0      6.7887459671563306      12.014797919954406      11.015230291679075
    67   0   1   0.0       9.368903376199512      12.002108108145984       18.74415643379546
    68   0   1   0.0      4.2655041291422169      6.7602105990325878      18.847951110602114
    69   0   2   0.0      4.2489095578855185      9.4432187545117188      13.646889777998055
    70   0   1   0.0      6.7844260434754373      6.7664213876292267      11.031675202571973
    71   0   1   0.0      6.8230848162204421      9.4716984588042337      13.675211849493998
    72   0   1   0.0      4.2110115350043156      12.064772979593569      13.588950675319392
    73   0   2   0.0      6.8879107324965139      6.8052203955523725       18.83501029494067
    74   0   2   0.0      6.8180006536900963      12.086675800077884      13.604823508736231
    75   0   2   0.0      4.3009608487652109      14.692613987731196      13.612769498277853
    76   0   2   0.0      6.9085515213675848      14.622154700230023      11.071639019706442
    77   0   2   0.0       9.402249233813933      4.2123465858848927      18.819773286645184
    78   0   1   0.0      6.8303729710933556      14.637006068107217      13.653873150703502
    79   0   1   0.0      6.9060848323540238      14.649486710601822      18.786473699689815
    80   0   1   0.0       4.165053257109772      4.1507004219801642      16.262759886800652
    81   0   2   0.0      6.8295948318695299      12.033861218683965      18.797337848261549
    82   0   1   0.0      4.2329291937477613      12.048448784622298      18.803651047297862
    83   0   2   0.0      4.2323959953312338      11.999901023399607      16.272403599545441
    84   0   2   0.0      6.9273440958884285      4.1232782658630613      16.204320392380577
    85   0   1   0.0      6.8543427601860882      17.205063688070268      16.192193669846702
    86   0   2   0.0      4.1936741614560162      6.7766569311691205      16.293680584882622
    87   0   1   0.0      6.8857732262369344      6.7963127637825744      16.283323388885478
    88   0   2   0.0      6.8229282485980054      14.579246988373884      16.207757155662271
    89   0   1   0.0      9.3901552700155193      12.138177896448941      13.496741448565651
    90   0   1   0.0      4.2107915305336849      9.3205468626845338      16.218026920070997
    91   0   1   0.0      6.8583934978353485         12.040715226465      16.124343452242734
    92   0   1   0.0       4.292450255948431      14.604066400199764       11.02708873132929
    93   0   2   0.0      6.8404720744903633      9.3876491110297646      16.250100471704535
    94   0   1   0.0       1.638871539963987      17.232266796398214      16.257398255717099
    95   0   2   0.0      1.6811720915752695      14.691287590900748      16.337444495580307
    96   0   2   0.0      6.8329588557104914      17.214179688029887      18.797957073811951
    97   0   2   0.0      9.4058440075372474      12.017948186935953      16.139154625137429
    98   0   2   0.0      1.6827396564635082      17.239517550395988      13.646653018700558
    99   0   2   0.0      1.6623421567024774      9.4299788763093098      11.038066982280668
   100   0   1   0.0      6.8821384136205639       4.128289279911959      18.744881803162951
   101   0   1   0.0      1.6323719683583295      12.066518470595534      11.069214400683077
   102   0   2   0.0      9.4107936003444159      4.1524454950364476      13.596300239526085
   103   0   2   0.0      1.6765086547108483      12.075516783765719      13.621919409506621
   104   0   2   0.0      9.4180147756412804      14.518998425296299      18.788523683233677
   105   0   2   0.0      1.6480254565906862       9.459680108193762      16.282040862404884
   106   0   1   0.0      6.9295874784972122      9.4171074634614023      18.791722287706058
   107   0   2   0.0      1.6832315682460322      6.8722523356509537      18.823662735246515
   108   0   2   0.0        6.79131697407378      9.4185169657779717      11.048603791787214
   109   0   2   0.0      9.4139206012583507      14.722752620666125       13.57703749507559
   110   0   2   0.0      1.6196281306704829      6.7748464064678213      13.730119258187489
   111   0   1   0.0      4.2681089345079704      4.2662295356368034      21.519202615458891
   112   0   1   0.0      9.4180125352186366      1.6018742182929617      24.025334518280971
   113   0   2   0.0      9.3564092450132179      14.634786741650528       24.00233102744544
   114   0   1   0.0      1.7145021400420575      4.2624963446760606      18.884152999067908
   115   0   2   0.0      6.8554754298500571      4.2459880010389242      21.426641564112082
   116   0   1   0.0      9.3651840028105262      9.4745619099251002      26.679735744318226
   117   0   2   0.0      4.3095486026375056      6.9139366823761499      21.457215423208304
   118   0   2   0.0      4.2987537332612442      4.1334247860197371      18.890130516076603
   119   0   1   0.0      6.8955238203396299      6.8352201212442552      21.430358403540041
   120   0   1   0.0      4.2609935839010822      1.6165062644684831      18.917533588800087
   121   0   1   0.0      1.6892052287961654      9.5135727349650203      18.872457638699835
   122   0   1   0.0      4.1771996221364001      9.4674850294342754      21.483933488547571
   123   0   2   0.0      4.2462593989714108      14.701247692298731      24.227525327744718
   124   0   2   0.0      6.8249533364871011       9.463767337222567      21.400308140006619
   125   0   2   0.0      6.7758839492194873      4.1696287126263778       26.59043586521021
   126   0   1   0.0      9.3575807905531647       14.69333648951565      26.644687401700487
   127   0   2   0.0      4.2534783198583579      12.058588506350116      21.472554540780134
   128   0   1   0.0      9.3472843951264082      6.7563319846944569      24.070024727681314
   129   0   2   0.0      6.8048927018157954      12.055230263859896      23.987616845831234
   130   0   1   0.0       6.770064213410306      12.037804423598441      21.304741628285889
   131   0   2   0.0      4.3186836710435177      1.6444649986179498      21.482331259995302
   132   0   2   0.0      9.4092642406083407      12.021544628615628      21.412007624824149
   133   0   1   0.0      4.2479191612327263      14.750651240487084      21.607926759893527
   134   0   2   0.0      9.3846535324206606      17.232366692875907      21.463102163469941
   135   0   1   0.0      4.1760681388530214      1.6507639082863133      24.098347158703081
   136   0   2   0.0      9.3272932399714232      12.083967750009553      26.612349458895459
   137   0   2   0.0      6.7815384823726594      17.215944146111511      23.994487404838345
   138   0   1   0.0      6.8113922829059543      1.6391313668052652       21.39272983470422
   139   0   2   0.0      6.7933793238971925      14.585317631098077      21.351347360064917
   140   0   2   0.0      4.2012374060268343      4.2471051696208697      24.172535235665414
   141   0   2   0.0      9.3494882923538185      9.3897731985380446      24.093887297289601
   142   0   1   0.0      1.6417481268682845        12.1311105427946      21.513966425435829
   143   0   1   0.0      6.8463533331833153      14.567548919078225      23.967886190625904
   144   0   1   0.0      6.7747811506203366      4.1681782127582849      24.053165317700813
   145   0   1   0.0      6.8000370524808176       9.379283792142548      23.995264216238819
   146   0   1   0.0      4.1989314489097733      6.8360747995841056      24.107184779785705
   147   0   1   0.0      1.7549789334422419      14.762968758324378      19.021180723629431
   148   0   1   0.0      4.1538062995650371       12.12567402266213      24.116994798638139
   149   0   2   0.0      6.7695617177655434      6.7786076527847854      24.022985315682511
   150   0   2   0.0       4.169749752554738       9.434508485442354       24.07953696407403
   151   0   2   0.0      9.4089518430320176       4.167853975888411      24.006949298734082
   152   0   2   0.0      4.3089877350349024      14.689831950623036       18.89980804424512
   153   0   2   0.0      1.6436244275452991      1.6640371065602357      18.911859346186887
   154   0   2   0.0      6.7648466310911859      14.585888028827668      26.630982381706698
   155   0   1   0.0      1.7208742818619105       4.242282029019429      24.141998869264111
   156   0   2   0.0      6.7082245682000909      9.3195090854396554      26.608739318968301
   157   0   2   0.0      1.6538587062564127      4.2478214868337858      21.500135448580842
   158   0   1   0.0      6.6791634854491386      6.7533901150453719       26.63323503513168
   159   0   2   0.0      1.6254395743847865      12.131837692856339      18.971985810466954
   160   0   1   0.0      6.7490972335548589      11.850697537344283      26.487435850416496
   161   0   2   0.0      4.1219969186499332      6.8960382111926917      26.676536671131153
   162   0   1   0.0      6.8262540533919198      17.144426982354858      26.614570043293586
   163   0   1   0.0      4.1618525739918821       9.409027539262274      26.664421704547571
   164   0   1   0.0      1.6784772612334451      1.7087726329843884      26.644146217050558
   165   0   2   0.0      4.2738628111769579      9.4546226151367598      18.879015128894792
   166   0   1   0.0      9.4223825415115421      12.097907120589108      24.083785217173766
   167   0   1   0.0        9.41907636234831       14.58578405911242       21.43827703676169
   168   0   2   0.0      4.1660342509727686      4.2294796905404874       29.33411521796442
   169   0   1   0.0      4.2781191851764149      1.6026794840363254       29.33564197888732
   170   0   2   0.0      9.3787931743301129      1.6744690995860232      26.709587672797561
   171   0   2   0.0       9.337035162501417      6.7714233623558115      31.958240757348051
   172   0   1   0.0      6.7466085097427388      4.1468914846838194       34.51610890881021
   173   0   1   0.0      6.7897292564581759      4.2077138628102588      29.232810203488832
   174   0   1   0.0      4.1906812469432282      6.9237520043882919        29.3208329865687
   175   0   1   0.0      9.2839684746783391      6.8678675976538521      29.386711125031507
   176   0   2   0.0      6.6998907496493514      6.8131614635041977      29.224201089890137
   177   0   2   0.0      4.1706319487434387      9.4381745006090725      29.253948513894692
   178   0   1   0.0      9.3294030124916834      4.0912306634310109      31.944969661948861
   179   0   1   0.0      6.7990551996193087      9.4173209615191595      29.248136237264514
   180   0   2   0.0      9.3620901309076352       14.63124949448464      29.185502020171196
   181   0   2   0.0      9.3188904983466898      6.7902694124802192      26.795251128799062
   182   0   1   0.0      4.1315711262720889      12.004832654032917      29.334157605968866
   183   0   2   0.0      6.7440357025620488       11.98021422098061      29.101626208492931
   184   0   2   0.0      9.4060696759623781      4.2748700827032247      29.290211662145971
   185   0   2   0.0      1.6598549369903148      1.6078763864465007      29.328947714599654
   186   0   2   0.0      4.2564186104212531      14.656481415022197      29.399137587514648
   187   0   2   0.0       4.185666368481348      12.099364362989762      26.694782033649847
   188   0   2   0.0      6.8123335146719963      1.6123094849490103      29.295006412408082
   189   0   1   0.0      6.7844886770104136      14.697881812665669      29.266079945677664
   190   0   2   0.0      6.8838572026821012      17.161319807978231      34.501211063340548
   191   0   1   0.0      4.1848465702757922      4.2186426983582157      31.911931852304644
   192   0   2   0.0      6.8615637429112759      11.995338288893022      34.518157588946828
   193   0   2   0.0      6.7749059976777293      4.1405996849595965      31.908184204105186
   194   0   1   0.0      4.2407972333424873      17.187916379513268      34.509452057128151
   195   0   2   0.0      4.1525845628259521      6.8687532896338199      31.859925162972075
   196   0   1   0.0      1.6312336162974548      14.659607234583042      29.381354356018676
   197   0   1   0.0      9.3841386429584315      14.566358585044574      31.884419339059832
   198   0   1   0.0      6.7570344173228296      6.8161114779105603       31.90651164995224
   199   0   2   0.0      4.2005509235335445      1.6366935639842899      31.874935269315895
   200   0   1   0.0      4.1619508439055304      9.3627615504255619      31.837471637293586
   201   0   2   0.0      4.2615497437400141      9.4121631157664005      34.475684015206838
   202   0   2   0.0       6.812290346702091      9.3746234111430127       31.84666945767805
   203   0   2   0.0      4.1932696209150162      1.6556497213167247      26.724744330235279
   204   0   1   0.0      9.3033799820206404      6.7499085730167989       34.47233375951491
   205   0   1   0.0      4.2333345118336903      14.627159529432891      31.974723040507261
   206   0   2   0.0      4.1560567309750818      12.004403899565498      31.905535455323346
   207   0   2   0.0      6.7505384489023825      14.622639461778428      31.836369366734182
   208   0   1   0.0      6.7835770116931338      17.177417365594287      31.938283782967581
   209   0   1   0.0      6.8298487300199131      11.930306367426487      31.902704183245358
   210   0   2   0.0      1.6510086047216803      14.669367145305625      26.829321036645013
   211   0   1   0.0      4.0797825593010923       6.798517446453693      34.516657433067166
   212   0   2   0.0      9.3698706184061216      9.4348052139666212      29.268708400277326
   213   0   1   0.0      6.9255974567586893      14.529703704489343      34.480416688616138
   214   0   1   0.0      9.3877416900992223      9.4032070143632129       31.87381242609845
   215   0   1   0.0       1.666376515537781      12.055272605397203      31.995297006778895
   216   0   2   0.0      9.4208401749879336      11.997153272098002      31.771086095523803
   217   0   1   0.0      4.1899310069225972      4.2951871216851556      26.740364894527758
   218   0   1   0.0      4.1522594367664958      14.716607375182445      26.813337414632713
   219   0   1   0.0      9.4074591037441948      12.058361640864696      29.202931800613754
   220   0   2   0.0      4.2500889768241965      14.580276682938775       34.50060809102672
   221   0   1   0.0      1.6336761626019061      4.2881088438034798      34.497039091914154
   222   0   2   0.0      9.4203732980195767      9.3957304410135372      34.478771103928636
   223   0   2   0.0      12.029341455706806      4.1465915462177492      5.8355958179147471
   224   0   1   0.0      12.131113742660744      17.177763620531394      5.8543733539852187
   225   0   2   0.0      14.694955041903908      14.670636421062051      8.4213694074385756
   226   0   1   0.0      14.629222192495401       4.150165985362495       5.721524709094564
   227   0   1   0.0      12.109068611314758       4.168910501658404       3.294847172380662
   228   0   2   0.0      14.635228782434835      1.6036014805434406      5.8644845108934227
   229   0   2   0.0      14.575866029796529      9.4560625886138094      3.2012899816439453
   230   0   2   0.0      14.650453373767224      9.4714699982529886      8.4753495953160325
   231   0   1   0.0      9.5108265828220873      14.572974072210794      5.6878621211676661
   232   0   1   0.0      14.708199985014263      12.055076867469939      3.2640819409156485
   233   0   1   0.0      11.878173411730707      6.6896295409406559      5.7960557348383119
   234   0   1   0.0      17.094399847328425      6.7912981837276201      5.8216921710547531
   235   0   1   0.0      12.105527376992651      14.571750311357517      8.3374800559332005
   236   0   1   0.0      9.5071807697261015      9.4631936291110712      10.999548690091743
   237   0   2   0.0      14.513179336825226      6.7220739568113741      5.7432735483627013
   238   0   2   0.0      12.080366791958687      4.1605017730414247      10.995374102120969
   239   0   2   0.0      12.065395027410997      9.3566905550878339      5.7576933347032782
   240   0   2   0.0      9.4342795420279799      17.197323406839914      10.933616613380041
   241   0   1   0.0      14.654505258835947      9.3764765436702682      5.8004878765013821
   242   0   1   0.0      17.205879380735041      9.3994836897028193      3.1897877291215622
   243   0   1   0.0      14.634334397827747      6.8450618846718108      8.3820029025103295
   244   0   1   0.0      12.087936684962552       11.90041435969677      5.7120536539912852
   245   0   1   0.0      9.4565966246680357      17.116136525287537      8.3101080583049338
   246   0   1   0.0      17.166777264858126      9.4018965118395172      8.3195016661896233
   247   0   2   0.0      14.636880223364289      12.082384629040458      5.8688609124347328
   248   0   1   0.0      14.540602112080251      12.133770699698697      8.5313334131280776
   249   0   2   0.0      12.121322032201931      17.177891788420411      3.2206145122165872
   250   0   2   0.0      12.119507265044398      14.486015380976811       5.740585125920135
   251   0   2   0.0       9.451719255754508       11.98307884214373      5.7612396061600553
   252   0   1   0.0      12.099496320145819      9.3470965849864776      8.3975891224207615
   253   0   1   0.0      14.678530571738394      14.708683710890458       5.854161205704461
   254   0   2   0.0       11.96974163803875        11.9561260641632      8.3710153161777825
   255   0   2   0.0      12.084439159221462      17.220254468876224       8.387727611522088
   256   0   1   0.0      12.031281262640549      4.1536240637877793      8.4159727901414065
   257   0   1   0.0      12.117463496621131      14.651757473627201      3.2185046702154878
   258   0   2   0.0      11.995493921067281      6.7553854843698398      8.3800797308463846
   259   0   2   0.0      17.195889951016223      6.7930981209474384      8.4595866280588385
   260   0   1   0.0       14.70434933815819      1.6797452345140229      8.4933715999376105
   261   0   2   0.0      14.669314734823299      4.2659413076806896      8.4153860847501356
   262   0   1   0.0      9.5375321103250279      9.4097590326561438      5.8097738454201178
   263   0   2   0.0      17.225328611416757      12.064472478800489      3.2410009438044689
   264   0   2   0.0      14.708237650913421      14.701591492152733      3.2211140749662381
   265   0   2   0.0      9.5297250451640849      17.204586940836109       5.736198913188753
   266   0   2   0.0      9.4926190978565739      9.3209411989264002      8.4002998777754314
   267   0   2   0.0      12.115740486723567        9.42043261207359      10.977718903102593
   268   0   2   0.0      17.112620050683297      6.8526594746508849      3.2628490682073794
   269   0   1   0.0      11.995021775034568      12.034277103729005      10.958088203952617
   270   0   2   0.0      12.028473844038484       14.61175989830331      11.002291343808505
   271   0   1   0.0      9.5206134714939239      14.568734153208984      10.917096422680689
   272   0   1   0.0      14.702339672197288      1.6293482244604733      3.2413968756120606
   273   0   2   0.0      17.203096958752894      9.4644867184348556      5.7266572165964451
   274   0   1   0.0      9.4869121939025582      4.1759927760193989      10.987352514308245
   275   0   2   0.0      9.4273103856858711      4.1991276236938502      3.2069762460299529
   276   0   2   0.0      12.142220169610122      12.004014135822276      3.1855581236193933
   277   0   2   0.0      17.227986100877224      12.002374105224126      8.4930738708953797
   278   0   1   0.0      17.222203166661988      14.661632893108953      3.3306942472883825
   279   0   2   0.0      9.4292736714967589      11.964975635145715      10.944233539111874
   280   0   1   0.0      12.006266403082009      6.7691477739767363      11.013686055564616
   281   0   1   0.0      12.000232987291836      4.2217257679317228      13.701598177295534
   282   0   2   0.0      12.096555588624058      1.6118141526306335      13.555594359251923
   283   0   1   0.0      17.220069857470264      6.8887338188126455      16.313779267279806
   284   0   1   0.0       14.72282599749429      1.6749584167432938      13.642196932701351
   285   0   2   0.0      14.611153041005702      4.2528849521288627      13.625705707062021
   286   0   2   0.0      14.573545350438042      6.8153785669962881      11.066213732159067
   287   0   1   0.0      14.725302553852336       9.388025486420446      11.055501561588347
   288   0   2   0.0      14.687389485638706      17.212765464097167      11.054253026687118
   289   0   2   0.0      11.970479595243704      6.7922755905026735      13.641847169777826
   290   0   1   0.0      14.620342178451786      14.559435066483891      11.064382151478965
   291   0   1   0.0      14.535720973870944      6.7942715898217756      13.761199005246311
   292   0   1   0.0      9.5348061390000751      1.6246907929381305       13.57133646605101
   293   0   1   0.0      14.703912235775096       4.161807233894562       11.05990359878713
   294   0   1   0.0      9.4545196151261379      9.4120081799368691      16.113800853613938
   295   0   1   0.0      12.107923819522536      9.4589120283700225      13.459386740053057
   296   0   1   0.0      9.4837911175444489      14.601364943977961      16.196280246528573
   297   0   2   0.0       14.64767400849488      9.4654092425100949      13.654198730820976
   298   0   1   0.0      17.202092569650407       4.131436669017992      13.618918935749424
   299   0   1   0.0       11.96897532193981      9.3598667929565593      18.805293486127148
   300   0   2   0.0        11.9891089455528      12.083193068630528      13.621369865726987
   301   0   1   0.0      14.608383055348586      6.8498271484084468      18.806562915012883
   302   0   1   0.0      14.651260418684229       12.08145754740794      13.654796032538332
   303   0   2   0.0       12.06996208457644      14.588497988629197       16.27499273881309
   304   0   1   0.0      12.058498900120558      14.656456161860415      13.680414170196297
   305   0   2   0.0      14.646974304647621      11.961686471631166      11.092904105550879
   306   0   2   0.0      9.5163037733616029      17.144052294444709       16.21885830359561
   307   0   2   0.0      14.630893836223407      12.088165454081329      16.227738259101432
   308   0   2   0.0      14.676627260840064      14.704557749930663      13.704564323067991
   309   0   2   0.0      12.022802184517777      4.1950362737736961      16.245545954440018
   310   0   1   0.0      12.150135849457978      1.6027816624658868      16.178167031824017
   311   0   2   0.0      12.063288923594975       11.96273641745651      18.815024252463008
   312   0   1   0.0      17.214353938674211      12.105354834713125      16.269371043804476
   313   0   1   0.0      14.652458057154263      4.3144775886091482      16.276576730756908
   314   0   2   0.0      14.703790842767924      17.248475678528674       16.24626652424001
   315   0   1   0.0      12.018507150112056      6.8172617646502589      16.288317174549345
   316   0   1   0.0      12.052496526376171      4.1363044390887245      18.815860270222146
   317   0   2   0.0      14.671229075189734      6.8854718358104732      16.315705141413542
   318   0   2   0.0      12.052766805087368      9.4271169188158765      16.143461687629447
   319   0   1   0.0      9.5047822492950296      4.1182849046493377      16.217812291082129
   320   0   1   0.0       14.61323452666557      9.4951598596008537      16.221864118063245