0.90x-LiKCl-full/750.0K/mixed.data (written by ASE) 

864 	 atoms 
3  atom types
0.0      15.866041032572815  xlo xhi
0.0      15.852264407688516  ylo yhi
0.0      77.123516894945084  zlo zhi


Masses 

1 35.45
2 39.0983
3 6.94


Atoms 

     1   0   1   0.0      3.8619740216094409      3.7353672619555698      5.2977983907966362
     2   0   3   0.0      4.0865573603836047      1.4595132642980335      5.6802729909449727
     3   0   1   0.0      1.3332927949278965      3.9324748075379636      7.8717571082840125
     4   0   2   0.0      6.5124573882555481      3.8282740377423226      5.2688335800528687
     5   0   1   0.0      6.3686057785494183      17.103632147790201      5.3060893503318471
     6   0   3   0.0      3.7666775442385716       6.895705077317011       5.134288990732724
     7   0   1   0.0      4.1002308469604483      6.4958339762505588      2.8245442503445339
     8   0   2   0.0      9.1978696362259207      14.526802529939975      7.9024184168633118
     9   0   1   0.0      6.7443982427879021      6.5603425141737644       5.297927834275729
    10   0   1   0.0      1.4203641798029811      14.571897961345488      7.9168788745034711
    11   0   1   0.0      3.9839723306526587      9.1049785216150241      5.1634148988824071
    12   0   1   0.0      9.2434557294582564      1.3233538534731351      2.6792032379475645
    13   0   3   0.0      3.6333395011307763      8.7425116936036247      2.9448375668538667
    14   0   2   0.0      6.5937770675597687      9.2616785307887852      5.1650354805588679
    15   0   2   0.0      3.9331991908759063      11.902554458444069      5.2702527758665987
    16   0   2   0.0      3.8688494573112098       14.43963952174321      2.6446385062007138
    17   0   1   0.0      6.4988637575026891      11.754139729646404      5.2672102354706434
    18   0   2   0.0      1.3390942434062021      6.5415896275579177      8.0130666610582786
    19   0   1   0.0      3.9686145779317439       14.65634677302878      5.3226085453516827
    20   0   2   0.0      9.0975180856958886       1.369305573455976      5.3590977411549128
    21   0   3   0.0      8.9242332327910177      6.7213504328571085      5.6079896242075824
    22   0   2   0.0      6.5707209549161663      14.357261961998574      5.2522395780714648
    23   0   2   0.0       3.973371196024265      3.9216816389030322      8.0030863271633592
    24   0   1   0.0      3.8554264702977514      17.154562865441452      7.8942294275638245
    25   0   1   0.0       6.600482675350805       14.46680378576951      7.9430041007140071
    26   0   1   0.0      6.6240872467884362      3.8785520448261268      7.8761034680219346
    27   0   2   0.0      6.6365098550996589      17.104637574375634      8.0994619425609145
    28   0   2   0.0      9.1315041761704379       14.45127539434106       2.752553398691624
    29   0   1   0.0      3.9937689783858064      6.6039128962378957      7.6072163906603558
    30   0   1   0.0      9.2190869787602292      8.9901722327012319      5.3616285304762084
    31   0   2   0.0      6.6393311202262018      6.6430680223859948       7.985458145792399
    32   0   2   0.0      6.5102260039428543      11.868525628094645      8.0050076276171538
    33   0   1   0.0      9.1188851795997401      4.1528338151572193      5.2911755594418288
    34   0   2   0.0      3.9057353050172061      9.3168125390297938      7.9376039798523843
    35   0   1   0.0      6.7147088120569238      9.2250812564395623      7.8638362226378664
    36   0   1   0.0      3.9286728095831989      11.929475066879469      7.8955793679811146
    37   0   1   0.0      3.9400675255088511      17.121382162505363      2.7987995432445705
    38   0   2   0.0      3.9492767923922933      14.548673299057867      7.9832986519116629
    39   0   2   0.0      9.1831912554019706      11.828829908421135      5.2582208103040475
    40   0   1   0.0      6.6445684901517801      3.9221613100805746      2.6428401076183179
    41   0   1   0.0      9.2032099011424009       9.209478277725033      10.270119007478119
    42   0   2   0.0      9.1703855370646359      6.5673939681942306      10.529179507793287
    43   0   1   0.0      9.2008582445451559      11.838790718944601      2.7047174057958352
    44   0   1   0.0        6.48545064559144      14.485359522830887      2.6475214642980931
    45   0   1   0.0      1.3170226045801972      11.886256742095366      5.1352514936282754
    46   0   2   0.0      3.9205129957429499      3.9005852451910705      13.196087746373772
    47   0   1   0.0      3.9665112667569211      14.523461111453674      10.615879957380145
    48   0   1   0.0      6.5594125954573421      11.864931383842652      10.728999515780743
    49   0   1   0.0      3.9576417882775097       1.323334520277369      13.339268104271142
    50   0   1   0.0      6.5362316400160028      4.0533187232413841      13.233386934765397
    51   0   2   0.0      6.6013288255626961      17.149591223902675      13.180327163331706
    52   0   2   0.0      6.5609519388781443      14.470212383709814      10.695938910657274
    53   0   1   0.0      1.3515093673133003      11.874298736468326      10.598327144472368
    54   0   1   0.0      6.6785545274355265      9.1765438245489754      18.390772391910417
    55   0   3   0.0      4.0467245328356523      6.8016064319876506      10.978756084457396
    56   0   1   0.0      3.9591256356228071      6.6432261787675335      13.266955168809607
    57   0   1   0.0      3.9695978383951389       1.362988119187315      18.387365834135601
    58   0   1   0.0      6.4823252637412212      11.778547520834277      15.842115080563143
    59   0   2   0.0      6.6424638907962272      6.6392755387303035      13.298264938928188
    60   0   2   0.0      4.0169974648640494      9.2278497263528223      13.239181568302524
    61   0   2   0.0      3.8568629429404835      1.3486297637379099      10.622348676929157
    62   0   2   0.0      3.9029411126884406      11.873738792593006      10.597934832057025
    63   0   1   0.0      6.5643637917637525      9.2672778469931529      13.377552791746607
    64   0   1   0.0      4.0992176137625744       11.86331168626262      13.258945459655207
    65   0   1   0.0      1.3374456187215082      3.9192261935009625      13.158335667127869
    66   0   2   0.0      1.3676106924341844      6.5411095429471189      18.413046193296402
    67   0   2   0.0      6.7368778530270346      11.987085005225929      13.310593387653533
    68   0   1   0.0      9.2254778069798533      1.3502576819294492      13.282888239782386
    69   0   2   0.0      3.9633392428100684      14.486797855641232      13.274069224439248
    70   0   1   0.0      4.0661155455343838      11.822642079018376      18.407785189532881
    71   0   2   0.0      9.1629578316089848      6.7285762162324163      15.877120002164075
    72   0   2   0.0      9.2246333835424075      17.134165424630122      15.848461617414907
    73   0   2   0.0      9.2028515854028932      3.9389471689294524      18.480916848711384
    74   0   1   0.0      6.5212056560288874      14.599122061835345      13.391353105170593
    75   0   2   0.0      1.3253268160074814      14.485429648531348      15.850870220942422
    76   0   3   0.0      4.4117939435941631      17.085036351714571      16.129871725342277
    77   0   2   0.0      6.6429571072596811      14.524337928493434      15.891761123720716
    78   0   1   0.0      4.0164987553013329      3.8147783749836432      15.835623623204022
    79   0   1   0.0      6.4734400857548913      3.8671469806607717       18.43388536610378
    80   0   1   0.0      6.3177344205600514      6.5656647023081671      10.696852190451827
    81   0   1   0.0      6.5393118676217465      17.158276642368318      15.841398515838698
    82   0   2   0.0      6.6722913375159889      4.0454669820520355      15.840194095886668
    83   0   2   0.0      6.6051237766772113      9.2901308820506827      10.630552106072525
    84   0   2   0.0      3.9167534208373316      6.5613486039686553      15.851883571384121
    85   0   2   0.0      9.2059866789763305      3.9726756848061058        13.1721638805908
    86   0   1   0.0      1.3269094198951017      14.532946524241961      13.277254940443928
    87   0   1   0.0      6.5705163541182063      6.7804078587603325      15.907149226254417
    88   0   1   0.0      3.9466603992665883      4.1374933601025603      10.651446658907822
    89   0   1   0.0      3.9217504852164606      9.2163874401515891      15.872376819998754
    90   0   2   0.0      3.9192459534101647      11.912017730223305      15.823928629586328
    91   0   1   0.0      3.9849268184976681      14.585437659502016      15.958454541720034
    92   0   3   0.0      6.1014529187469764      9.0487245468498134      15.560302233121588
    93   0   1   0.0      1.5984664165347111      6.5811658082757027      10.658766142923779
    94   0   2   0.0      1.3843723103973602       9.222061390790607      10.613701382069099
    95   0   1   0.0      9.1724536032649162      1.3427413183466612      18.351929023219228
    96   0   1   0.0      6.5668809503566585      17.082564475740448      10.590342413093822
    97   0   1   0.0      1.4019350603029439      17.136521036856902      15.877558258033478
    98   0   2   0.0      6.5831418023894193      3.8220061058873767      10.625475306758855
    99   0   1   0.0      1.4325805503749911      9.1478189698619303       13.20757747740959
   100   0   2   0.0       1.330076940753302      1.3863860450881389      18.434094746850885
   101   0   1   0.0      9.1635620768311341      14.575614267370778      10.585659541197213
   102   0   1   0.0      9.2255143592776552      14.466485605062669      15.798630194250727
   103   0   2   0.0      1.3661661372943366      11.866179124095552      18.457206375712591
   104   0   2   0.0      6.6341683346529932        6.51988155527612      18.483568147617486
   105   0   1   0.0      4.0994623601512945      6.6577983955491655      18.474105907613765
   106   0   1   0.0      1.4179593913046429      4.0049894909830792      18.432977937922701
   107   0   2   0.0      9.2053845714363725      11.881569063196448      10.589111620419846
   108   0   1   0.0      3.9351296858900473      9.1869975926898668      10.572089113085127
   109   0   2   0.0      1.3235850668650517      14.535119237649795      10.618539718066195
   110   0   1   0.0      3.9748898875129006      3.8973329644687489      21.276414602200198
   111   0   1   0.0      6.5652529708719314       14.60935332543972      18.561886336990611
   112   0   2   0.0      6.6004886765451332       3.943105833926424      21.044285115463232
   113   0   2   0.0      3.9875985341535021      4.0733654720061638      18.541812826412777
   114   0   1   0.0      1.3661091817835715      11.978667213130048      26.332312302157696
   115   0   2   0.0      3.9741997484638301       6.646141908659013      21.047951207572041
   116   0   1   0.0      6.5846553400486165      14.509926017207139      23.827612598376739
   117   0   2   0.0      1.3753313271991749      11.969388386253286      23.766002430634323
   118   0   1   0.0      6.6473930418905951       6.612723062626598      21.300210266421033
   119   0   1   0.0       3.910133667845932      9.2233306669281632      21.222803473371926
   120   0   3   0.0      1.7061170868518958      9.0198334090504382      21.425044244420953
   121   0   2   0.0      6.6539697242855587      9.2374914104961903      21.060137556854365
   122   0   1   0.0      1.3499465484058695      9.1643481171500945      18.596230035616244
   123   0   1   0.0      9.2232215946721503      4.0999075840038195      21.112197198845408
   124   0   2   0.0      4.0254785894482055      11.883858460544015      21.147504163043742
   125   0   1   0.0      6.6258350259096748         11.800412337973      21.174501174802579
   126   0   2   0.0      4.0410465889027636      9.2654693926649117      18.582336034951368
   127   0   2   0.0      3.9748388806505703      17.083450376324588       21.10134340625293
   128   0   2   0.0      4.0168125433362736      14.507045277733795      18.677975232356921
   129   0   2   0.0       9.113445790564505      14.508467858114386      23.811808272574197
   130   0   1   0.0      3.9718591178983753      14.465226884431512      21.270442277016294
   131   0   1   0.0       6.611005311038415      17.121135431796773       21.18839248257423
   132   0   2   0.0      6.5726328349131986      14.454365761938885      21.240689441604616
   133   0   2   0.0      9.2361510180304087      11.878238918408364      26.422172774957154
   134   0   1   0.0      9.1974789883025263      11.923964521340082      23.712419273955724
   135   0   1   0.0      1.5455234373497462      3.9819347335529427      23.671567466276862
   136   0   1   0.0       4.012204948769913      4.0661831491388511      26.145582183303752
   137   0   3   0.0      4.2720550427027906      4.5545787303815004      24.004541393380016
   138   0   1   0.0      6.6033514885975277       11.92763356194169      26.341525214183832
   139   0   1   0.0       6.545433243436114      4.1035195050027866      23.803825012521791
   140   0   1   0.0      3.9792219184688471      6.7112078953354688      23.758510232003346
   141   0   1   0.0      9.2104119294287869      14.627533969262451      21.133722988406944
   142   0   2   0.0      6.6560709904556257      17.111235902760534      23.726076707234974
   143   0   3   0.0      6.1785807171484253      6.3472906923381629      23.610423931891013
   144   0   1   0.0      1.3663202040469133      1.4025005835317654      26.388519728108193
   145   0   2   0.0      3.9447356722706672      9.3661835857349338      23.872116634487739
   146   0   2   0.0      6.6334017060569055      11.818814533889455      23.771770666095421
   147   0   1   0.0       3.984478565401679      1.5911577445248681       23.64385615324781
   148   0   1   0.0      6.6562406210016762      9.0540924482237131      23.738267258585047
   149   0   2   0.0      3.9169127679077635      14.539312730068829      23.791434179999648
   150   0   1   0.0      4.0120995429009616      11.942153624464954      23.694867785150755
   151   0   2   0.0       6.620758224168263      1.3248756928422385      18.567106793870906
   152   0   2   0.0      6.7083281896867559      11.841407540167772      18.576407036649179
   153   0   1   0.0      6.5243368584504546      6.5811828038461391      26.316522958337657
   154   0   1   0.0       6.658603430800671       1.324374896703419      26.357859989679007
   155   0   1   0.0       1.360949662119282      17.087792933045105        21.0893783064286
   156   0   2   0.0       1.351747782295476       3.972937357001642      26.387634542605589
   157   0   2   0.0      4.0618238717109136      17.134391673710567      26.395608522614339
   158   0   2   0.0      9.2180362267630542      1.3591590914431133      21.061382918204593
   159   0   2   0.0      9.1883081524491175      11.997024332835011      21.073478871755285
   160   0   2   0.0      1.3797637919227703        3.94668097488309      21.108554171680105
   161   0   2   0.0      3.9422708882545123      11.981846174549474      26.373975016221316
   162   0   1   0.0      1.3809712585157303      9.1637910936318026       23.65086656439825
   163   0   2   0.0      6.6337171435599558      9.3272651452579041       26.40269018329888
   164   0   1   0.0      9.2314322118632504      3.9641141573204091      26.409007479069757
   165   0   2   0.0       4.035576374840625      3.9412214588271004      28.862145190673985
   166   0   1   0.0      3.9971176495361771      9.4168948010802573      26.440476543611581
   167   0   1   0.0      6.6958214908227003       4.066528357595212      29.061772910242254
   168   0   1   0.0      1.3477782126069298      4.1505840336737734      29.137732756580839
   169   0   2   0.0       6.525087049186328      14.444867079989141       31.69876774017149
   170   0   1   0.0      6.6512340764121225      1.3429441313865351      31.691530014271983
   171   0   1   0.0      3.8899148431055917      6.5136529319528993        29.1034685991118
   172   0   2   0.0      9.2188852608540675       6.576978408707042      26.483855721768336
   173   0   2   0.0      6.5623080324639078      6.6464417000262541      29.077724959156491
   174   0   2   0.0      3.9572125606088973      9.2904503551198445       28.98367596260244
   175   0   2   0.0       9.231863195732128      3.9689131399909807      34.288541140268542
   176   0   1   0.0      6.6115398207945839      9.2494241438993594      29.013979408106906
   177   0   3   0.0      1.5832466720436893      4.5356288962516285       31.36483140154548
   178   0   1   0.0      3.9523209602201295      11.901889569717397      28.979763608007531
   179   0   2   0.0      6.5042176779067802       11.96359638570107      29.032989928289112
   180   0   1   0.0      3.9976689583920648      1.3530759300061383      29.060773259906675
   181   0   2   0.0      9.2387683985226872      9.2569726807086194      29.068586556049105
   182   0   2   0.0      3.8830487401386189      14.622997641419694      29.028243743854247
   183   0   2   0.0      6.5846592766830545      1.4707575001554025      29.019732086493867
   184   0   1   0.0      6.6419571573797196      14.651636050850961      29.042206911547069
   185   0   1   0.0      3.9649111479921775      14.510053260917413      26.474450140830605
   186   0   2   0.0      6.6396713281468713       3.937867660955864      26.449646002221257
   187   0   1   0.0      3.7904091518356129      3.9757650315199928      31.579547826284127
   188   0   2   0.0      9.2251975518266818        14.5843726639573      29.172444827606427
   189   0   1   0.0      1.3974353918834912      3.9238736700201424       34.19769664751346
   190   0   1   0.0      9.2420461049754916      6.6499323122908809      29.112105087367873
   191   0   2   0.0      1.3759184331986196      17.146656664639018      29.025103102822982
   192   0   2   0.0      6.5423904594223554       3.980222038281215      31.707179817739785
   193   0   1   0.0       6.308747228898457      9.1552190314598576      34.287227599859307
   194   0   2   0.0      4.1171915130151291      6.6035601535184218      31.713920267140772
   195   0   1   0.0      9.2373289875579161      14.741492436136028      31.817045741156207
   196   0   2   0.0       3.930772896407984      17.103047776445152      31.628173030558742
   197   0   1   0.0       6.698205149092809      6.6418344058070886      31.653527846160692
   198   0   2   0.0      9.2420264292999121      1.3535951735071499      26.425304791940611
   199   0   1   0.0      3.9829898527221377      9.3221062129404295      31.835666662511279
   200   0   1   0.0      1.3506749965435083      9.1301192683543775      28.983943993501669
   201   0   1   0.0      1.3735030476332817      9.1927945466218723       34.28419637750364
   202   0   2   0.0      6.6950581126032187      9.2615132647467071      31.694788382729136
   203   0   1   0.0      3.8683082851401158      14.478814761001924      31.728656921099947
   204   0   2   0.0      3.9870604701559191      11.884489527032745      31.605521011077123
   205   0   2   0.0      3.8465287513118649      6.8462688998501537      26.547076215472515
   206   0   2   0.0      6.6331740623740041      14.539539545016829       26.44018527172404
   207   0   1   0.0      9.1809559517124431      17.165075980335466      29.040412765119477
   208   0   1   0.0      6.6573728775044296      11.871947540194174      31.555473585225251
   209   0   2   0.0      6.6613562046294303      6.5276704568678481      34.221182439642917
   210   0   2   0.0      4.0865954015724109      3.8533819114142998       34.23537097176991
   211   0   2   0.0      6.6567331172836264      11.872702760846988       34.18874889599207
   212   0   2   0.0      6.4980085659707436      17.047447904548399      34.231670795339816
   213   0   1   0.0      3.9148944798554246      11.739149205271126      34.305362696550553
   214   0   2   0.0      9.2387439019545941      11.906232854285058      31.796437278756372
   215   0   2   0.0      11.864750807603352       3.864479665087317      5.3133344101680411
   216   0   2   0.0      17.057811549982823      17.114967259246786      8.0195528849716027
   217   0   1   0.0      14.437226761781359      6.6369225612086256      2.8670100080116541
   218   0   2   0.0      14.538794853490248      3.9118411510009476      2.6895866527529821
   219   0   1   0.0      14.534740679553416      4.1221816881095723      5.3196247093877682
   220   0   3   0.0       9.566070439037464      8.7428118812241919       7.714820064627018
   221   0   1   0.0      11.770134826452297      6.6404811206349326      5.3292161064285253
   222   0   1   0.0      9.3057933586924548      6.5264159750071844      7.8986027273725838
   223   0   3   0.0      14.285777561788201      6.8181938841088163       5.691519838004222
   224   0   2   0.0      9.2619638228811105      3.8336807757874829      7.9950479868197082
   225   0   1   0.0      14.515480824700798      14.482107296377702      10.496640985221838
   226   0   2   0.0      11.856978061173599      9.2451777638286572      5.2294711789523181
   227   0   1   0.0      14.559255030451697      9.0864046404617369      5.2258399854822475
   228   0   1   0.0      11.813949956399433      11.995406956322814      5.2485181132564991
   229   0   1   0.0      9.2917413070708275      17.143701660536991      8.0434582335923466
   230   0   2   0.0      14.526181499449118      11.817927874353003      5.2223358310336341
   231   0   1   0.0      11.835828553899162      17.076575417966726      5.2252769382309081
   232   0   1   0.0      17.104561634305703      6.6107638812545817      5.2380187344199491
   233   0   3   0.0      11.524582023200507      14.138253019692481      4.9475426577572534
   234   0   2   0.0      11.962835811421861      3.7936720011790426      10.518448715115149
   235   0   2   0.0      11.799276150931274      14.542806545754143      10.518013377274265
   236   0   2   0.0        14.4180811563745      17.133055745082867      5.3241648167674605
   237   0   1   0.0      14.285122662247744      14.472276995229819      5.2536826873165356
   238   0   1   0.0      11.962313181421736      3.9121185381090111      2.7400108803481094
   239   0   2   0.0       11.94818499803775      17.092353529858762      7.8801558577140831
   240   0   1   0.0       11.99689536469927      3.8956956659041753       7.867420047304627
   241   0   2   0.0      14.540618290952423       14.40285240647351      7.9374645429999502
   242   0   2   0.0      14.547121638226004      3.8387687925570795      7.9357616532925652
   243   0   1   0.0      14.465807761674103      17.076661888737934      2.6574412677779633
   244   0   2   0.0      11.926447150147686        6.47042548340964      8.0276210393709757
   245   0   1   0.0      9.3790050686995734      14.474536451714833      5.3304482031904481
   246   0   1   0.0      14.571292706418211      6.7241675273747905      7.7842624044174196
   247   0   1   0.0      17.060252195619199      9.2779137157845923      7.9159141775363073
   248   0   1   0.0      11.871762242216418      9.1719663570869159      7.9112541517350872
   249   0   2   0.0      17.088986935147773      3.9340296528204322      10.540364374313391
   250   0   1   0.0       14.43581658682014      17.070636804264382      7.8924258621563865
   251   0   3   0.0      14.973027306228085      8.8528811793535347      7.3950597819246386
   252   0   1   0.0       11.85948026413282      14.547958653622736      2.7273162596848017
   253   0   2   0.0      11.874974914078177      11.835057512502317       7.946152419301403
   254   0   1   0.0      14.482890697864203      11.681110248736598      7.8872227448534185
   255   0   1   0.0      11.837587615629463      14.410787929050361      7.8097294698170678
   256   0   1   0.0       9.279901233815151      11.835284116324409      7.9297830566976435
   257   0   2   0.0       17.16429526902623      9.2890405528050586      5.2347889211658298
   258   0   2   0.0      17.027671257056902      3.7307403042090326      5.2160937489639725
   259   0   2   0.0      17.068297765646175      14.523528072582803      5.2947626430444128
   260   0   1   0.0      17.065795451847979      17.057882937116641      5.2967943341545922
   261   0   2   0.0       14.54085002721663      17.167876130539341      10.526728835945164
   262   0   1   0.0      11.841113827245417      11.905176310688745      10.499711527374586
   263   0   2   0.0      14.670188827118588      6.5566107143147221      10.513204736485662
   264   0   1   0.0      11.869298374521085      17.100587570993152      10.471495458697721
   265   0   2   0.0      17.055732853988737      12.044837557494525      7.9267237313157866
   266   0   1   0.0      14.565108253839236      9.2110062191931448      10.537651827378216
   267   0   1   0.0      14.536444490424165      3.9819971957106031      10.539584635426994
   268   0   2   0.0       17.05457161742958      17.084793833438969      2.6661914618136304
   269   0   1   0.0      9.2482542519478699      6.7268895626398564      2.7267043152024613
   270   0   1   0.0      11.936845530683851      9.2656926351925257      2.6269371962264856
   271   0   1   0.0      12.015004137469997      3.9758294215375884      13.317439928003052
   272   0   2   0.0      9.3060265819018895       11.95555256562476      15.856037291315785
   273   0   1   0.0      9.3917312735361342      11.858939347470429      13.184727944202223
   274   0   2   0.0       14.69718719174686      3.8958957451104723      13.127620755881553
   275   0   2   0.0      9.3232801564761054      9.2943008493092947      13.145096372349339
   276   0   1   0.0      14.418456703574529      17.124481949780009      13.174937148129221
   277   0   1   0.0      17.129942253137273      6.6180839813424859      15.836777773367595
   278   0   1   0.0      9.2718811855754453      3.8827757847339672      10.619378705008025
   279   0   1   0.0      11.867730024015481      6.4612437537906935      15.657439106681629
   280   0   3   0.0      11.578723062413362      6.0966809529146397      13.368785860108934
   281   0   1   0.0      9.2536940523913547      9.2646024415403261      15.879486304033568
   282   0   1   0.0       14.40511620957786      6.6177905888859536      13.099670280165517
   283   0   1   0.0      17.129534842837877      11.814776682208429      15.864218712993329
   284   0   1   0.0      14.597756671806271      6.5323755906568906      18.431002149955475
   285   0   1   0.0      11.982939468512367      8.9416343547454122      13.267926352807144
   286   0   1   0.0      14.478681989650466      9.3157177078205322      15.885618805167192
   287   0   2   0.0       14.48086749975241      11.892993010325782      15.740618181716926
   288   0   2   0.0      14.632319271758062      9.2508996706299964      13.264648161173715
   289   0   1   0.0      14.558219578907941      12.073399065262297      18.427927280371811
   290   0   1   0.0      14.480934751215276      14.496063128257592      15.879652064132323
   291   0   2   0.0      17.172827007315682      6.5026023209016968      13.241867844691194
   292   0   2   0.0      11.944209235767998      11.911370267759533      13.203251058782504
   293   0   2   0.0      14.485291462749936      17.138218511663972      15.874033348107444
   294   0   1   0.0      14.608482680458716      11.930938719042931      13.213012828910683
   295   0   2   0.0      9.2535005581807432      17.126045982338184      10.638314124038313
   296   0   2   0.0      11.834061886541091      9.3179024900502654      15.868040061718027
   297   0   1   0.0      14.517511330782796       16.94895173648062      18.462864222558075
   298   0   2   0.0      11.830261296429295       17.16507917855148      13.197832808399722
   299   0   1   0.0      11.911316406051878      14.551899012351413      13.109867075007461
   300   0   1   0.0      11.863205038597625       11.95235458581919      15.844060603560395
   301   0   2   0.0      11.834400833055993      14.546229148871859      15.766439827311713
   302   0   2   0.0      14.606260885985918      14.480021849373529      13.069514037473065
   303   0   2   0.0      17.109261563405084       9.261000516934816      15.902005196675258
   304   0   2   0.0      14.582434400737931      6.6923466999713757      15.860247469254592
   305   0   1   0.0      9.4179653394983216      4.0833466712228299      15.814751388022923
   306   0   3   0.0      11.835140599119008      4.0610025628429689      15.448893906188852
   307   0   1   0.0      11.863112000282232      1.4427438736216933      15.886652122629732
   308   0   1   0.0      17.113975000873943      17.089542473298216      10.659403859196042
   309   0   1   0.0      14.407784794259758      3.9264565601004517      15.765422501806658
   310   0   2   0.0      17.152917112152458      11.891525613912766      13.269811267648485
   311   0   2   0.0      9.2854018148317721      14.496595051116756      13.240531535124505
   312   0   1   0.0         9.2609399353457      11.967376619195655      18.454970689347466
   313   0   2   0.0      11.938795956177442      9.1929675286793824      10.566229985158035
   314   0   2   0.0      17.084133683859182      17.117347185278586      13.254238616989888
   315   0   2   0.0      14.607923703582147       11.86937285125148        10.5949278076145
   316   0   1   0.0      11.917194432221802      6.5431712910407818      10.679180959051223
   317   0   1   0.0      11.976542932478258         4.0364758788485      18.324887277110484
   318   0   1   0.0      9.4505628590996285      6.6068708495778194      13.145559527374955
   319   0   2   0.0      9.2492965229792183       14.50040604332958      18.446410922936192
   320   0   2   0.0      17.125552811698228      3.9801656116193751      15.868889828452474