LAMMPS (29 Sep 2021 - Update 3)
OMP_NUM_THREADS environment is not set. Defaulting to 1 thread. (src/comm.cpp:98)
  using 1 OpenMP thread(s) per MPI task
units	metal
atom_style	full

read_data	mixed.data
Reading data file ...
  orthogonal box = (0.0000000 0.0000000 0.0000000) to (15.969932 15.719106 81.083077)
  2 by 1 by 8 MPI processor grid
  reading atoms ...
  864 atoms
Finding 1-2 1-3 1-4 neighbors ...
  special bond factors lj:    0        0        0       
  special bond factors coul:  0        0        0       
     0 = max # of 1-2 neighbors
     0 = max # of 1-3 neighbors
     0 = max # of 1-4 neighbors
     1 = max # of special neighbors
  special bonds CPU = 0.002 seconds
  read_data CPU = 0.017 seconds

pair_style	quip
pair_coeff	* * /ocean/projects/cts180021p/wuziqi/clease/mint-PD/PhaseDiagram-Clease/Liquid/GAP_potential/gap_LiKCl.xml "Potential xml_label=GAP_2021_9_27_0_1_17_37_618" 17 19 3

neighbor	0.3 bin
neigh_modify	delay 10

timestep	0.001
compute	msd all msd
thermo_style	custom step temp pe etotal press vol c_msd[4]
thermo	10
dump	1 all custom 10 xyz-mix.dump type id x y z
dump	2 all custom 10 force-mix.dump type id fx fy fz

fix     1 all nve
run     2000
Neighbor list info ...
  update every 1 steps, delay 10 steps, check yes
  max neighbors/atom: 2000, page size: 100000
  master list distance cutoff = 6.22
  ghost atom cutoff = 6.22
  binsize = 3.11, bins = 6 6 27
  1 neighbor lists, perpetual/occasional/extra = 1 0 0
  (1) pair quip, perpetual
      attributes: full, newton on
      pair build: full/bin
      stencil: full/bin/3d
      bin: standard
Per MPI rank memory allocation (min/avg/max) = 8.888 | 8.903 | 8.913 Mbytes
Step Temp PotEng TotEng Press Volume c_msd[4] 
       0            0   -6930.8241   -6930.8241   -4495.9065    20354.533            0 
      10    65.904237   -6938.1841   -6930.8324   -5379.5912    20354.533 0.0005000384 
      20    168.73131   -6949.6632    -6930.841   -6364.5261    20354.533 0.0061479459 
      30    200.57733   -6953.2127    -6930.838   -5696.6671    20354.533  0.020662009 
      40    199.55606   -6953.0935   -6930.8327   -4580.1506    20354.533   0.03833664 
      50    226.88579   -6956.1474   -6930.8379   -4419.7801    20354.533  0.051806208 
      60    238.47957   -6957.4392   -6930.8365   -4645.7272    20354.533  0.061424452 
      70    236.06355   -6957.1692   -6930.8359    -4807.043    20354.533  0.069853138 
      80    232.99362   -6956.8259   -6930.8351    -5036.908    20354.533  0.079308594 
      90    234.23747   -6956.9654   -6930.8358   -5260.6038    20354.533  0.090830495 
     100    232.00556   -6956.7159   -6930.8353   -5208.0306    20354.533   0.10432197 
     110    232.79067   -6956.8033   -6930.8352   -5031.3164    20354.533   0.11840709 
     120    238.30149    -6957.419   -6930.8361   -4942.2097    20354.533   0.13201584 
     130    238.74514   -6957.4687   -6930.8363   -4988.8033    20354.533   0.14538478 
     140    232.54984   -6956.7771   -6930.8358   -4942.4536    20354.533   0.15867927 
     150    225.40044   -6955.9792   -6930.8355   -4787.8719    20354.533   0.17110203 
     160    224.38726   -6955.8659   -6930.8352   -4620.0724    20354.533    0.1817825 
     170    231.86358   -6956.7009   -6930.8362   -4442.3359    20354.533   0.19072597 
     180    237.58036   -6957.3391   -6930.8366   -4192.2572    20354.533   0.19889867 
     190    235.69365   -6957.1279    -6930.836   -3927.7806    20354.533   0.20710191 
     200    234.44619   -6956.9885   -6930.8356   -3773.8119    20354.533   0.21513007 
     210    236.73114   -6957.2437    -6930.836   -3777.5502    20354.533   0.22305549 
     220    238.14425   -6957.4012   -6930.8359   -3899.9101    20354.533    0.2315521 
     230     238.4388   -6957.4341   -6930.8359   -4006.5782    20354.533   0.24098695 
     240    239.23886    -6957.523   -6930.8356   -3984.7528    20354.533   0.25141959 
     250     242.0724   -6957.8401   -6930.8366   -3793.3442    20354.533   0.26265129 
     260       239.05   -6957.5024    -6930.836   -3540.3897    20354.533   0.27417391 
     270    235.84511    -6957.145   -6930.8361   -3272.6541    20354.533   0.28493922 
     280    231.62838   -6956.6748   -6930.8363   -2948.2435    20354.533   0.29437431 
     290    226.51317   -6956.1028    -6930.835   -2633.8875    20354.533   0.30220439 
     300    232.88912   -6956.8151    -6930.836   -2478.1682    20354.533   0.30835486 
     310    239.65399   -6957.5709   -6930.8371   -2317.7128    20354.533   0.31386348 
     320    236.98534   -6957.2718   -6930.8357   -2020.1819    20354.533   0.31985126 
     330    235.73864   -6957.1329   -6930.8359   -1957.4113    20354.533   0.32664959 
     340    236.09186   -6957.1723   -6930.8359   -2003.6376    20354.533   0.33435107 
     350    237.19352   -6957.2955   -6930.8363   -2145.8328    20354.533   0.34289663 
     360     235.6501   -6957.1226   -6930.8355   -2186.0282    20354.533   0.35153924 
     370      237.245   -6957.3009   -6930.8359   -2246.4379    20354.533   0.35886165 
     380     239.0727   -6957.5047   -6930.8358   -2396.5837    20354.533   0.36451066 
     390    241.64207   -6957.7913   -6930.8358   -2701.0958    20354.533   0.36907283 
     400    244.68963   -6958.1321   -6930.8366    -3058.184    20354.533   0.37340775 
     410    240.84575   -6957.7024   -6930.8357   -3233.9135    20354.533   0.37836011 
     420    237.91038    -6957.375   -6930.8357   -3296.1667    20354.533    0.3837999 
     430    237.53548   -6957.3335    -6930.836     -3297.92    20354.533   0.38923076 
     440    236.65311   -6957.2351   -6930.8361   -3132.9159    20354.533   0.39408345 
     450    236.54722   -6957.2227   -6930.8355   -2838.3736    20354.533   0.39819744 
     460    240.22636   -6957.6339   -6930.8363   -2750.9298    20354.533   0.40204023 
     470    240.52465   -6957.6669    -6930.836   -2995.4918    20354.533   0.40599969 
     480    237.66852   -6957.3482   -6930.8359   -3342.9489    20354.533   0.40967234 
     490     233.8587   -6956.9231   -6930.8358   -3484.3142    20354.533   0.41268728 
     500    232.08796   -6956.7258   -6930.8361   -3205.4816    20354.533   0.41521326 
     510    230.70203   -6956.5715   -6930.8364   -2716.5526    20354.533   0.41731564 
     520    228.05602   -6956.2759   -6930.8359   -2363.5724    20354.533   0.41870774 
     530    227.97164    -6956.267   -6930.8365   -2215.6832    20354.533   0.41939371 
     540    224.82248   -6955.9152   -6930.8359   -2142.5726    20354.533   0.41965215 
     550    224.12424   -6955.8368   -6930.8354   -2230.4398    20354.533   0.41896539 
     560    230.14975   -6956.5094   -6930.8358   -2549.6413    20354.533   0.41694428 
     570    236.18881   -6957.1833   -6930.8361   -2919.3179    20354.533   0.41431605 
     580    239.11248   -6957.5092   -6930.8358   -3311.7801    20354.533   0.41218239 
     590    240.41038    -6957.654   -6930.8359   -3417.9605    20354.533   0.41128732 
     600     241.9108   -6957.8213   -6930.8358   -3319.9933    20354.533   0.41181297 
     610    244.71998   -6958.1355   -6930.8366   -3218.6172    20354.533   0.41378595 
     620     241.0794   -6957.7291   -6930.8363   -3147.9995    20354.533   0.41727735 
     630    235.50013   -6957.1059   -6930.8355   -3135.0665    20354.533   0.42154918 
     640    235.11112   -6957.0634   -6930.8364   -3257.6948    20354.533   0.42544554 
     650    231.17765   -6956.6238   -6930.8356   -3363.2824    20354.533   0.42831027 
     660    230.96587      -6956.6   -6930.8354    -3278.616    20354.533   0.42962018 
     670    236.71051   -6957.2418   -6930.8364   -3057.6575    20354.533   0.43008462 
     680    237.89077   -6957.3735   -6930.8365   -2729.6334    20354.533   0.43147958 
     690    233.77068   -6956.9134    -6930.836   -2455.8007    20354.533   0.43467882 
     700    232.73214   -6956.7972   -6930.8356   -2458.1317    20354.533   0.43896836 
     710     238.6713   -6957.4612    -6930.837     -2772.14    20354.533   0.44306523 
     720    238.40713   -6957.4307    -6930.836    -2807.083    20354.533   0.44626276 
     730     240.4682   -6957.6606    -6930.836   -2649.5036    20354.533   0.44805059 
     740    245.36669   -6958.2082   -6930.8372   -2598.8991    20354.533   0.44927166 
     750    241.62154   -6957.7892    -6930.836   -2531.0184    20354.533   0.45180545 
     760    240.83361   -6957.7015   -6930.8361   -2663.8574    20354.533   0.45609454 
     770    242.81641   -6957.9232   -6930.8366   -2904.7405    20354.533   0.46149917 
     780    240.55873   -6957.6716   -6930.8369   -3011.4883    20354.533   0.46731331 
     790    234.48344    -6956.992    -6930.835   -2984.9723    20354.533   0.47270083 
     800    241.36903   -6957.7616   -6930.8365   -3043.6074    20354.533   0.47702973 
     810    248.02611   -6958.5044   -6930.8367   -3212.7271    20354.533   0.48113406 
     820    247.07524   -6958.3983   -6930.8367   -3298.0857    20354.533   0.48604281 
     830    241.62282   -6957.7892   -6930.8358   -3451.0521    20354.533   0.49200069 
     840    241.09937   -6957.7309   -6930.8359   -3767.5583    20354.533    0.4980224 
     850    243.86884   -6958.0407   -6930.8367   -3969.0277    20354.533   0.50315689 
     860    240.67295   -6957.6839   -6930.8364   -3878.9651    20354.533   0.50749313 
     870    234.88256   -6957.0377   -6930.8362   -3705.4216    20354.533   0.51123394 
     880     230.9712   -6956.6008   -6930.8356   -3732.8653    20354.533   0.51418617 
     890    234.71187   -6957.0191   -6930.8366   -3903.3458    20354.533   0.51649556 
     900    236.69755   -6957.2408   -6930.8368   -4096.5729    20354.533   0.51925856 
     910    234.14135   -6956.9543   -6930.8355   -4214.9524    20354.533   0.52270274 
     920     239.2214   -6957.5215    -6930.836    -4371.806    20354.533    0.5260843 
     930    246.23434   -6958.3046   -6930.8368   -4388.3174    20354.533   0.52947161 
     940    244.93011   -6958.1585   -6930.8361    -4140.633    20354.533    0.5331014 
     950    244.54566   -6958.1146   -6930.8351   -3874.4856    20354.533   0.53608506 
     960     253.5944   -6959.1267   -6930.8378   -3771.8165    20354.533   0.53803089 
     970     248.3829   -6958.5442   -6930.8367   -3524.3442    20354.533   0.53986141 
     980    238.35135   -6957.4243   -6930.8358   -3260.4338    20354.533   0.54101785 
     990    236.50322   -6957.2181   -6930.8358   -3175.8957    20354.533   0.54134372 
    1000    241.19481   -6957.7423   -6930.8367   -3304.4267    20354.533   0.54225539 
    1010    241.95562   -6957.8272   -6930.8367   -3391.2596    20354.533   0.54502288 
    1020    240.16869   -6957.6269   -6930.8357   -3447.0496    20354.533   0.54930268 
    1030    245.53617   -6958.2267   -6930.8368   -3456.4918    20354.533   0.55419445 
    1040    247.77076    -6958.476   -6930.8368   -3298.5887    20354.533   0.55950896 
    1050     244.2442   -6958.0816   -6930.8358   -3136.4369    20354.533   0.56417367 
    1060    244.98518   -6958.1647   -6930.8363    -3248.508    20354.533   0.56688242 
    1070    245.91228   -6958.2687   -6930.8368   -3519.1406    20354.533   0.56812185 
    1080    243.86214    -6958.039   -6930.8358   -3692.2455    20354.533   0.56934968 
    1090    246.84293   -6958.3726   -6930.8369   -3906.5524    20354.533   0.57178329 
    1100      244.881   -6958.1533   -6930.8365   -4089.2355    20354.533   0.57651628 
    1110    240.43499   -6957.6569    -6930.836   -4077.0823    20354.533    0.5832495 
    1120    237.92872   -6957.3775   -6930.8362   -4003.4461    20354.533   0.59023617 
    1130    236.51172   -6957.2189   -6930.8357   -4042.4172    20354.533   0.59550452 
    1140    238.96444   -6957.4936   -6930.8368   -4040.0227    20354.533   0.59831056 
    1150    235.78148   -6957.1379   -6930.8361   -3879.2914    20354.533   0.59921996 
    1160    234.20341   -6956.9615   -6930.8358   -3837.8249    20354.533    0.5985221 
    1170    240.41902   -6957.6544   -6930.8353    -3935.141    20354.533   0.59722217 
    1180    255.54411   -6959.3435   -6930.8372     -4092.55    20354.533   0.59743217 
    1190    258.99242   -6959.7285   -6930.8375   -4046.2257    20354.533    0.6011544 
    1200    248.88394   -6958.5986   -6930.8352   -3714.2841    20354.533   0.60762836 
    1210    248.47025   -6958.5542    -6930.837   -3470.6197    20354.533   0.61448368 
    1220    244.95446   -6958.1613   -6930.8363   -3177.7538    20354.533   0.62050251 
    1230     241.8534   -6957.8153   -6930.8362   -3046.6572    20354.533   0.62473384 
    1240    239.93171   -6957.6017    -6930.837   -2953.8402    20354.533   0.62763822 
    1250    233.26136   -6956.8559   -6930.8352   -2777.3686    20354.533   0.63038166 
    1260    237.93988   -6957.3787   -6930.8361   -2775.1391    20354.533    0.6330371 
    1270    246.35675   -6958.3182   -6930.8368   -2888.4422    20354.533   0.63643977 
    1280    248.45813   -6958.5525   -6930.8366   -2920.0425    20354.533   0.64183599 
    1290    245.47675   -6958.2198   -6930.8365   -2685.1116    20354.533   0.64908358 
    1300    241.63357   -6957.7906    -6930.836   -2354.7632    20354.533   0.65669456 
    1310    242.43427   -6957.8804   -6930.8365   -2080.8148    20354.533   0.66291632 
    1320    245.28186   -6958.1979   -6930.8364   -1915.3295    20354.533    0.6669735 
    1330    248.60459   -6958.5691   -6930.8369   -2012.6907    20354.533   0.66938419 
    1340    247.35187   -6958.4291   -6930.8367   -2148.5782    20354.533   0.67162517 
    1350    244.12194   -6958.0683   -6930.8361   -1975.6824    20354.533   0.67460298 
    1360    246.17117   -6958.2975   -6930.8367   -1695.7314    20354.533   0.67795806 
    1370    247.81913   -6958.4815   -6930.8369   -1406.6961    20354.533   0.68155459 
    1380    246.54204   -6958.3387   -6930.8366   -1365.9532    20354.533   0.68550067 
    1390    245.37096   -6958.2083   -6930.8368   -1609.7263    20354.533   0.68946972 
    1400    243.36629   -6957.9841   -6930.8362   -2040.6718    20354.533   0.69316197 
    1410    243.94371   -6958.0489   -6930.8367    -2492.182    20354.533   0.69632692 
    1420    241.91407   -6957.8222   -6930.8364   -2641.5513    20354.533   0.69908731 
    1430    240.29252    -6957.641   -6930.8361   -2738.6597    20354.533   0.70169952 
    1440    243.00906   -6957.9446   -6930.8366   -2920.7186    20354.533   0.70454594 
    1450    244.25454   -6958.0838   -6930.8369   -3048.4377    20354.533   0.70795341 
    1460    242.09952    -6957.843   -6930.8364   -2976.5792    20354.533   0.71130224 
    1470    243.45842   -6957.9943   -6930.8362   -3081.8274    20354.533    0.7132231 
    1480    250.70065   -6958.8033   -6930.8373   -3338.8349    20354.533   0.71370178 
    1490    252.18388   -6958.9685    -6930.837   -3376.1382    20354.533    0.7144344 
    1500    251.43885   -6958.8853   -6930.8369   -3315.8008    20354.533   0.71637247 
    1510    251.24938    -6958.864   -6930.8368   -3301.7557    20354.533   0.71942223 
    1520    249.70733   -6958.6922    -6930.837   -3282.0336    20354.533   0.72323431 
    1530    244.44696   -6958.1054    -6930.837   -3302.2244    20354.533   0.72763008 
    1540    236.75683   -6957.2464   -6930.8358   -3274.9713    20354.533    0.7323608 
    1550    237.57971   -6957.3389   -6930.8365   -3428.4116    20354.533   0.73683196 
    1560    241.15015   -6957.7371   -6930.8364   -3593.4236    20354.533   0.74115804 
    1570    245.97302   -6958.2754   -6930.8368   -3733.6516    20354.533   0.74547586 
    1580    248.38573   -6958.5448    -6930.837   -3697.1233    20354.533   0.74963233 
    1590    246.86432   -6958.3746   -6930.8366   -3466.8015    20354.533   0.75351214 
    1600     247.7118   -6958.4687    -6930.836   -3388.9239    20354.533   0.75677589 
    1610    253.82537   -6959.1519   -6930.8373    -3531.034    20354.533   0.75955216 
    1620    251.92871   -6958.9401   -6930.8371   -3648.0728    20354.533   0.76294914 
    1630    244.66821   -6958.1291    -6930.836   -3657.5504    20354.533   0.76703359 
    1640    244.28177   -6958.0866   -6930.8366   -3671.0399    20354.533   0.77099433 
    1650    244.83575   -6958.1483   -6930.8365   -3788.3144    20354.533   0.77508445 
    1660    246.40424   -6958.3232   -6930.8364    -3813.853    20354.533   0.77989624 
    1670     250.2724    -6958.755   -6930.8367   -3565.9239    20354.533   0.78529205 
    1680    252.16532   -6958.9666   -6930.8372   -3320.4462    20354.533   0.79034429 
    1690    248.06278   -6958.5083   -6930.8366    -3241.467    20354.533   0.79410211 
    1700    246.18953   -6958.2989   -6930.8361   -3435.3007    20354.533   0.79613512 
    1710    251.37963   -6958.8788   -6930.8371   -3765.1983    20354.533   0.79697816 
    1720    252.49637   -6959.0036   -6930.8373   -4015.6546    20354.533   0.79809077 
    1730    246.19105   -6958.2991   -6930.8361   -4012.8085    20354.533   0.80001418 
    1740    244.72061   -6958.1349   -6930.8359   -3836.2711    20354.533   0.80174398 
    1750    250.77886   -6958.8116   -6930.8368   -3664.5304    20354.533   0.80300604 
    1760    253.23106   -6959.0851   -6930.8368   -3574.9487    20354.533   0.80474848 
    1770     250.9182   -6958.8268   -6930.8365   -3643.0638    20354.533   0.80759401 
    1780    248.19059    -6958.522   -6930.8359    -3925.933    20354.533   0.81194222 
    1790    251.50586   -6958.8923   -6930.8365   -4358.7518    20354.533   0.81788965 
    1800    254.74644   -6959.2547   -6930.8373   -4555.0094    20354.533   0.82537267 
    1810    250.83969   -6958.8178   -6930.8362   -4276.5786    20354.533   0.83331392 
    1820     251.8855   -6958.9345   -6930.8362   -4012.9598    20354.533   0.83972246 
    1830      255.594   -6959.3496   -6930.8377   -3901.3718    20354.533   0.84445553 
    1840    246.70995   -6958.3569   -6930.8361   -3626.6691    20354.533   0.84851616 
    1850    241.86654   -6957.8157   -6930.8351   -3456.7016    20354.533   0.85180041 
    1860    250.43531   -6958.7737   -6930.8372    -3514.864    20354.533    0.8548436 
    1870    251.67809   -6958.9117   -6930.8366    -3317.435    20354.533   0.85904271 
    1880    249.74232   -6958.6953   -6930.8361   -2814.4162    20354.533   0.86408884 
    1890    251.03758   -6958.8407    -6930.837   -2598.2462    20354.533   0.86903478 
    1900    247.47063   -6958.4421   -6930.8364   -2762.2368    20354.533   0.87371783 
    1910    246.41436   -6958.3238   -6930.8359   -3170.3298    20354.533   0.87809892 
    1920    252.32808   -6958.9847   -6930.8371   -3481.0709    20354.533    0.8826292 
    1930    251.70282   -6958.9148    -6930.837   -3522.0143    20354.533   0.88826081 
    1940    246.41342   -6958.3234   -6930.8356   -3409.4835    20354.533   0.89502972 
    1950     251.5574   -6958.8983   -6930.8367   -3383.3627    20354.533   0.90192896 
    1960    256.70331    -6959.473   -6930.8374   -3284.7665    20354.533   0.90797257 
    1970    251.99325   -6958.9465   -6930.8363   -3170.8424    20354.533   0.91214044 
    1980    249.36931   -6958.6536    -6930.836    -3268.664    20354.533   0.91382089 
    1990    253.19383   -6959.0808   -6930.8367   -3484.4565    20354.533   0.91429439 
    2000    255.75062   -6959.3664    -6930.837   -3645.8324    20354.533   0.91593526 
Loop time of 1495.86 on 16 procs for 2000 steps with 864 atoms

Performance: 0.116 ns/day, 207.758 hours/ns, 1.337 timesteps/s
97.3% CPU use with 16 MPI tasks x 1 OpenMP threads

MPI task timing breakdown:
Section |  min time  |  avg time  |  max time  |%varavg| %total
---------------------------------------------------------------
Pair    | 648.8      | 1191.7     | 1464       | 610.9 | 79.67
Bond    | 0.00023746 | 0.00057052 | 0.001231   |   0.0 |  0.00
Neigh   | 0.018346   | 0.028452   | 0.037101   |   3.5 |  0.00
Comm    | 30.256     | 282.2      | 798        |1205.6 | 18.87
Output  | 0.52818    | 11.397     | 26.107     | 287.4 |  0.76
Modify  | 0.0093038  | 0.010668   | 0.01317    |   1.2 |  0.00
Other   |            | 10.52      |            |       |  0.70

Nlocal:        54.0000 ave          71 max          39 min
Histogram: 3 2 1 1 0 4 1 0 3 1
Nghost:        497.125 ave         591 max         387 min
Histogram: 1 2 1 1 1 3 2 1 2 2
Neighs:         0.00000 ave           0 max           0 min
Histogram: 16 0 0 0 0 0 0 0 0 0
FullNghs:      2382.00 ave        3956 max        1259 min
Histogram: 3 2 2 0 2 3 1 1 1 1

Total # of neighbors = 38112
Ave neighs/atom = 44.111111
Ave special neighs/atom = 0.0000000
Neighbor list builds = 199
Dangerous builds = 198
unfix   1

velocity    all create 712.5 1312343 dist gaussian
fix     2 all npt temp 712.5 712.5 $(100.0*dt) aniso 0.0 1.01325 $(1000.0*dt)
fix     2 all npt temp 712.5 712.5 0.10000000000000000555 aniso 0.0 1.01325 $(1000.0*dt)
fix     2 all npt temp 712.5 712.5 0.10000000000000000555 aniso 0.0 1.01325 1
run     3000
Per MPI rank memory allocation (min/avg/max) = 8.897 | 8.905 | 8.914 Mbytes
Step Temp PotEng TotEng Press Volume c_msd[4] 
    2000        712.5   -6959.3664   -6879.8859   -972.14054    20354.533   0.91593526 
    2010    635.67933   -6950.7729   -6879.8619    677.92478     20354.05   0.92640454 
    2020    516.90776   -6937.3638   -6879.7019    3105.0999    20354.658    0.9449701 
    2030    478.51298   -6932.6759   -6879.2971    3800.7152    20359.572   0.96039055 
    2040    469.34234   -6930.9446   -6878.5888     3568.493    20369.952   0.97122882 
    2050    455.34779   -6928.4777    -6877.683    3135.6373    20385.555     0.980622 
    2060    449.86361   -6926.9557   -6876.7727    2600.5514    20405.784   0.99032208 
    2070    478.19994   -6929.2838   -6875.9399    1996.2382    20429.866    1.0011088 
    2080    490.38571   -6929.8415   -6875.1383    2000.5208    20457.032     1.014704 
    2090    471.99798   -6926.9881    -6874.336    2154.4611    20487.231    1.0302074 
    2100    486.16945   -6927.6911   -6873.4582    1468.5555    20520.549    1.0437549 
    2110    500.96351   -6928.3157   -6872.4325    742.15693    20556.101    1.0553574 
    2120    495.90152   -6926.6494   -6871.3308    120.07061    20592.788    1.0665422 
    2130    496.66247   -6925.5886   -6870.1851    -737.8157    20629.597    1.0777734 
    2140    496.05363   -6924.3328   -6868.9972     -1339.52    20665.287    1.0897837 
    2150    491.13849   -6922.5772   -6867.7899   -1628.9072     20698.94    1.1024535 
    2160    490.37147   -6921.2647   -6866.5631   -1889.3776    20730.048    1.1149912 
    2170    497.07339   -6920.7509   -6865.3016   -1856.0454    20758.223      1.12708 
    2180    507.91096   -6920.6685   -6864.0103   -1537.2977    20783.496    1.1392635 
    2190    532.92547   -6922.1352   -6862.6866   -1388.7754    20806.279    1.1526368 
    2200    536.67906   -6921.2088   -6861.3414    -1469.103     20826.79     1.169006 
    2210    526.41569   -6918.7483   -6860.0258   -1912.6459    20844.892    1.1867115 
    2220    536.23481   -6918.5174   -6858.6996   -2658.9844    20859.913     1.202486 
    2230    552.68272   -6918.9822   -6857.3296   -3119.8865    20870.802    1.2155326 
    2240    564.35906   -6918.8962   -6855.9411   -3165.5845    20876.881     1.226036 
    2250    562.64214   -6917.3231   -6854.5595   -2507.4292    20878.171    1.2341568 
    2260    566.89029   -6916.4197   -6853.1822    -1793.673    20875.622    1.2399821 
    2270    578.89959   -6916.3662   -6851.7891   -1344.7873     20870.32    1.2445174 
    2280    575.25191    -6914.573   -6850.4028     -606.147    20863.078    1.2496879 
    2290    569.75079   -6912.5949   -6849.0383    -226.5715    20854.945    1.2556743 
    2300    576.87736   -6912.0215   -6847.6699   -485.46047    20846.474    1.2626071 
    2310    586.65698   -6911.7199   -6846.2774   -707.63377    20837.381    1.2708436 
    2320    605.59779   -6912.4177   -6844.8624   -662.68364    20827.376    1.2796697 
    2330    624.46464    -6913.088    -6843.428   -506.40868    20816.517    1.2893828 
    2340    626.57686   -6911.9006    -6842.005    32.387834    20805.104    1.3008594 
    2350    618.23111   -6909.5699   -6840.6053     754.6748     20793.94    1.3145322 
    2360    616.72969   -6908.0181   -6839.2209    1187.9937    20784.053     1.330185 
    2370    622.02089   -6907.2238   -6837.8365    1289.4882    20776.094    1.3467372 
    2380    632.05106    -6906.948   -6836.4417    1138.1189    20770.187    1.3638021 
    2390    654.38542   -6908.0344   -6835.0367    1014.3508      20766.1    1.3822282 
    2400    648.49277   -6905.9945   -6833.6542    1423.8931    20763.689    1.4025351 
    2410    637.64337   -6903.4624   -6832.3323    1901.6876    20763.479    1.4217237 
    2420    646.28645   -6903.1213    -6831.027    1804.6576    20766.071    1.4363532 
    2430     638.6254   -6900.9643   -6829.7247    1498.1868    20771.328    1.4475476 
    2440    633.16257   -6899.0731   -6828.4429    1174.8024    20778.779    1.4577564 
    2450    648.03474   -6899.4304   -6827.1412    751.80672    20787.884    1.4683078 
    2460    655.79467   -6898.9795   -6825.8246    474.46524    20798.019     1.479011 
    2470    659.70148   -6898.1122   -6824.5215    516.46284    20808.786    1.4881803 
    2480     682.1235   -6899.3277   -6823.2358    622.90138    20820.212    1.4946995 
    2490    709.05826   -6901.0619   -6821.9654    535.63512    20832.396    1.5002709 
    2500    713.96908   -6900.4075   -6820.7632    615.39715    20845.278    1.5075104 
    2510    715.60603    -6899.478   -6819.6511    383.04008    20858.874    1.5171689 
    2520    716.39284   -6898.5293   -6818.6146    315.21939    20872.894     1.531101 
    2530    703.72903   -6896.1455   -6817.6435    621.32277    20887.268    1.5492268 
    2540    697.13968   -6894.4887   -6816.7217    908.04089    20902.397    1.5679128 
    2550    704.28443   -6894.3765   -6815.8126    775.26523     20918.66    1.5848488 
    2560    710.17704   -6894.1356   -6814.9143    299.49652    20935.871    1.5999349 
    2570     722.6465   -6894.6468   -6814.0345   -81.718053    20953.341    1.6146491 
    2580    722.17602   -6893.7554   -6813.1956   -60.156773    20970.507    1.6319043 
    2590     710.4473   -6891.6606   -6812.4091     231.0555    20987.383    1.6513413 
    2600    710.43885   -6890.9079   -6811.6574    636.56058    21004.412    1.6692018 
    2610    737.56666    -6893.199   -6810.9223    838.28224    21022.162    1.6842915 
    2620    727.80116   -6891.4231   -6810.2358    1120.3932    21041.003    1.6988302 
    2630     697.3249   -6887.4055   -6809.6178    1316.6491    21061.341    1.7113903 
    2640    701.60887   -6887.2767   -6809.0111    1064.2576    21083.399    1.7190327 
    2650    714.86543   -6888.1218   -6808.3774    630.97582    21106.815    1.7240408 
    2660    719.13594   -6887.9667    -6807.746    195.21475    21130.915    1.7297101 
    2670    725.05588   -6888.0163   -6807.1352   -155.31892    21155.025    1.7362922 
    2680    732.84231   -6888.2997     -6806.55   -293.76583    21178.605    1.7431637 
    2690    742.66498   -6888.8609   -6806.0156    163.20586    21201.497    1.7505588 
    2700    741.84779   -6888.3058   -6805.5516    432.13973    21224.312     1.760027 
    2710    742.92035   -6888.0335   -6805.1596   -12.922059    21247.393    1.7745029 
    2720    752.34761   -6888.7594   -6804.8339    -796.6024    21270.078    1.7948089 
    2730    738.68948   -6886.9794   -6804.5775   -1424.9943    21291.227    1.8204053 
    2740    740.27229   -6886.9683   -6804.3899   -2086.8804    21309.802    1.8483916 
    2750    740.75832   -6886.8981   -6804.2654   -2004.3567    21324.905    1.8765068 
    2760    724.44869   -6885.0207   -6804.2074   -1214.0589    21336.723    1.9031249 
    2770    723.13009    -6884.855   -6804.1888   -1133.3933    21346.312    1.9266818 
    2780    720.38695   -6884.5491   -6804.1888   -1142.7929    21353.952    1.9475725 
    2790    718.66702   -6884.3762   -6804.2078   -1112.3602    21359.663    1.9662766 
    2800    727.23161   -6885.3717    -6804.248   -891.78883    21363.553    1.9819015 
    2810    729.13748   -6885.6567   -6804.3204   -477.03015    21366.012    1.9934371 
    2820    730.15454   -6885.8852   -6804.4353   -302.18341    21367.637    2.0004438 
    2830    725.71318    -6885.544   -6804.5896    34.627481    21368.796    2.0054689 
    2840    732.78302   -6886.5237   -6804.7807     311.2591    21370.006    2.0124807 
    2850    743.48294   -6887.9608   -6805.0242    331.07749    21371.667    2.0221742 
    2860    737.90961   -6887.6495   -6805.3346     409.8993    21373.861    2.0328563 
    2870    725.26191   -6886.6024   -6805.6983    112.08802    21376.641    2.0436175 
    2880     718.0472   -6886.1874   -6806.0881   -390.56249     21379.55    2.0553783 
    2890    715.89136   -6886.3445   -6806.4857   -833.41884    21381.819    2.0674439 
    2900     727.0235    -6887.999   -6806.8984   -1212.8845    21382.743    2.0768026 
    2910    733.97849   -6889.2233   -6807.3469   -1392.5624    21381.741     2.084433 
    2920    723.93736   -6888.5955   -6807.8392   -1018.1914    21378.602    2.0931115 
    2930    703.83362   -6886.8517    -6808.338   -401.49597    21373.901    2.1033563 
    2940    706.21151   -6887.5925   -6808.8136    -142.1444    21368.557    2.1135875 
    2950    709.91052   -6888.4658   -6809.2742   -292.09212    21362.982    2.1234193 
    2960    699.08137    -6887.698   -6809.7144   -794.41643    21356.952    2.1320147 
    2970    704.91342   -6888.7631    -6810.129   -1528.9437    21349.672    2.1383536 
    2980    715.68568   -6890.3777   -6810.5419     -1792.92    21340.068    2.1439621 
    2990    700.11402    -6889.049   -6810.9502   -1223.3445    21327.825     2.151763 
    3000    692.76086   -6888.6004   -6811.3218   -705.57656    21313.749    2.1639626 
    3010    699.80954   -6889.7188    -6811.654   -578.87509     21298.61    2.1804233 
    3020    686.71066   -6888.5426    -6811.939   -385.60159    21282.707    2.1992632 
    3030     685.2108   -6888.6072   -6812.1709    -558.5129    21266.279    2.2171629 
    3040    691.18264   -6889.4484   -6812.3459   -815.10723    21249.111    2.2337887 
    3050      706.587    -6891.311   -6812.4902   -1080.6717    21230.813    2.2513253 
    3060    705.19402   -6891.2889   -6812.6234   -1105.4025    21210.997    2.2708988 
    3070     688.1863   -6889.4996   -6812.7314   -615.45547    21189.699     2.289908 
    3080     685.3767   -6889.2403   -6812.7855   -6.1332227    21167.643    2.3061283 
    3090    698.07066   -6890.6526   -6812.7818    278.67889    21145.732    2.3223697 
    3100     700.9459    -6890.932   -6812.7405    233.28564      21124.4    2.3413028 
    3110    694.57105   -6890.1468   -6812.6663    526.05625    21103.689    2.3623577 
    3120    701.81985   -6890.8395   -6812.5504    970.97792    21084.009    2.3832632 
    3130    719.96903   -6892.7271   -6812.4134    1248.1857    21066.002    2.4046066 
    3140    711.14362   -6891.6085   -6812.2794    1205.6096    21050.067    2.4279117 
    3150    694.73886   -6889.6449   -6812.1457    1039.6225     21036.12    2.4514821 
    3160    688.45506   -6888.7803   -6811.9821    1407.2765    21023.981     2.473992 
    3170    681.81392   -6887.8241   -6811.7667    2241.0279    21014.176    2.4949349 
    3180    683.58427    -6887.742   -6811.4871    3088.4141     21007.94     2.513316 
    3190    700.84798   -6889.3271   -6811.1464    3129.0245    21006.417    2.5319447 
    3200    727.70396   -6891.9579   -6810.7815     2572.591    21009.675    2.5544579 
    3210    729.97998   -6891.8664    -6810.436    2151.4076     21016.94    2.5789756 
    3220    728.89596   -6891.4428   -6810.1334    1744.5514    21027.517    2.5998075 
    3230    737.12532    -6892.101   -6809.8736    1360.2453    21040.727    2.6157797 
    3240    712.15064   -6889.0987   -6809.6572    1882.2231    21056.125    2.6319646 
    3250    691.38279   -6886.5869   -6809.4621    2240.4095    21074.358    2.6493951 
    3260    685.41048   -6885.6892   -6809.2306    1701.5134    21095.866    2.6659782 
    3270    690.61484   -6885.9762   -6808.9371    971.09793    21119.919    2.6811672 
    3280    695.91164   -6886.2159   -6808.5859    630.83394    21145.438    2.6948327 
    3290    707.83337   -6887.1615   -6808.2017    547.56296    21171.866    2.7066748 
    3300    700.63728   -6885.9523   -6807.7952    571.01098    21199.053    2.7177266 
    3310    702.11208   -6885.6996   -6807.3779    513.39066    21226.984    2.7272059 
    3320    709.41881   -6886.0739   -6806.9372    490.97124    21255.593    2.7346141 
    3330    718.50511   -6886.6399   -6806.4896    275.78891    21284.784      2.74085 
    3340    716.29585   -6885.9482   -6806.0443   -59.176527    21314.224    2.7469529 
    3350    711.48735   -6884.9751   -6805.6076   -399.64612    21343.385    2.7542971 
    3360    723.17126   -6885.8466   -6805.1758   -787.30297      21371.7    2.7623254 
    3370    724.36529   -6885.5641     -6804.76   -961.05401    21398.599    2.7715232 
    3380    722.37329   -6884.9509   -6804.3691   -1307.0963    21423.743    2.7831673 
    3390    731.69062   -6885.6176   -6803.9964   -2113.1348    21446.519    2.7959783 
    3400    719.69707   -6883.9283    -6803.645   -2801.1735    21465.744    2.8091026 
    3410    717.89258   -6883.4069   -6803.3249   -3224.8273     21480.32    2.8216135 
    3420     715.1248   -6882.7974   -6803.0241   -3304.5562    21489.594    2.8341934 
    3430    715.73699   -6882.5814   -6802.7398   -3262.5148    21493.455    2.8472723 
    3440    735.04168   -6884.4705   -6802.4755   -3215.3765    21492.019    2.8592711 
    3450     736.3921   -6884.4091   -6802.2635    -2653.209    21485.473    2.8723423 
    3460    709.16185   -6881.2089   -6802.1008   -1733.4556    21474.742    2.8867321 
    3470    705.26221   -6880.6195   -6801.9464   -1299.5365    21461.216    2.8984764 
    3480    719.95108   -6882.0867   -6801.7751   -1351.6723    21445.632    2.9042696 
    3490     738.6321   -6884.0204   -6801.6249   -1473.1566    21427.977    2.9043185 
    3500     722.4313    -6882.106   -6801.5177   -995.68814    21408.186    2.9041045 
    3510    706.55377   -6880.2483   -6801.4312   -300.49046    21386.977    2.9052189 
    3520     720.4074   -6881.7016    -6801.339   -2.1716088    21365.381    2.9044116 
    3530      738.861   -6883.6783   -6801.2573    261.79659    21343.964    2.9008794 
    3540    736.05374   -6883.3251   -6801.2172    619.08618     21323.16    2.8955487 
    3550    741.69849   -6883.9682   -6801.2306    731.12231    21303.478    2.8896326 
    3560     764.1839    -6886.567   -6801.3212    653.66628    21285.084    2.8843828 
    3570    761.22593   -6886.4469    -6801.531    861.43886    21267.915    2.8781403 
    3580    737.68137   -6884.1347   -6801.8452    1200.8753    21252.263    2.8699485 
    3590    722.41484   -6882.8016   -6802.2151     1407.224    21238.653    2.8629579 
    3600    706.55081   -6881.4096   -6802.5928    1351.1794    21227.358    2.8615384 
    3610    722.00818   -6883.5045   -6802.9634    1208.0292    21218.291    2.8640513 
    3620    763.07328   -6888.5128   -6803.3909    827.56906    21211.162    2.8677386 
    3630    752.12419   -6887.8285   -6803.9279    902.68076    21205.469    2.8736408 
    3640    725.94673   -6885.5051   -6804.5246    1154.8634    21201.284    2.8804251 
    3650    726.68172   -6886.2023   -6805.1398    1124.6671    21198.902    2.8877712 
    3660    727.76246   -6886.9528   -6805.7698    1287.0014    21198.337    2.8956937 
    3670     724.3419   -6887.2149   -6806.4135    1547.5324    21199.835    2.9009793 
    3680    718.77427   -6887.2444   -6807.0641    1933.4076    21203.801    2.9025469 
    3690    698.43061   -6885.5988   -6807.6878    2211.4718    21210.793    2.9017742 
    3700    684.44953   -6884.5937   -6808.2423    2342.5561    21221.228     2.898295 
    3710    692.97287   -6886.0274   -6808.7253    2547.5457    21235.343     2.893409 
    3720     704.3203   -6887.7337   -6809.1657    2337.0396    21253.381    2.8921536 
    3730    697.96812   -6887.4354    -6809.576    1620.9797    21274.965    2.8976937 
    3740    687.44881   -6886.6234   -6809.9374    864.46866    21299.009    2.9075169 
    3750    696.60321   -6887.9465   -6810.2393    206.72569    21324.318     2.919562 
    3760    697.60162   -6888.3108   -6810.4923   -187.14871    21349.851    2.9371959 
    3770    693.80447   -6888.0965   -6810.7016   -541.08462    21374.923    2.9598232 
    3780    708.79162   -6889.9387   -6810.8719   -1037.5865    21398.946    2.9812965 
    3790    713.23358   -6890.5862   -6811.0239   -1452.3858    21421.144    2.9971707 
    3800    703.74806   -6889.6814   -6811.1773   -1478.2327    21440.911     3.006187 
    3810     694.3931   -6888.7781   -6811.3175   -1360.1278    21458.183    3.0091275 
    3820    694.69468   -6888.9215   -6811.4273   -1363.4827    21473.121    3.0086839 
    3830    701.82117   -6889.7953   -6811.5061   -1718.6197    21485.687    3.0075359 
    3840    693.39907   -6888.9109   -6811.5612   -1660.7146    21495.456     3.007637 
    3850    675.92086   -6886.9742   -6811.5742   -1468.0266    21502.475    3.0112055 
    3860    679.84908   -6887.3589   -6811.5207   -1703.8904        21507    3.0188449 
    3870    681.99423   -6887.4751   -6811.3976    -1891.925    21508.727    3.0283491 
    3880    663.93516   -6885.2626   -6811.1996   -1522.8574    21507.478     3.036592 
    3890    672.78858   -6885.9623   -6810.9117   -1830.6117    21503.647    3.0409637 
    3900    692.44191   -6887.7756   -6810.5326   -2122.2483    21496.878    3.0416336 
    3910    695.19667    -6887.652   -6810.1018   -1781.6257    21486.809    3.0420273 
    3920    692.50913   -6886.8912   -6809.6407   -1322.1666    21473.931    3.0459636 
    3930     700.2141   -6887.2564   -6809.1464   -904.45624     21458.99    3.0534573 
    3940    708.85267   -6887.6964   -6808.6229   -219.92267    21442.751     3.060813 
    3950    715.75979   -6887.9349   -6808.0908    387.23149    21426.245    3.0657093 
    3960    718.37274   -6887.7068   -6807.5713    991.40156    21410.467    3.0684615 
    3970    723.84893   -6887.8304    -6807.084    1172.4963    21396.329    3.0691921 
    3980    720.69855   -6887.0289   -6806.6339    1012.4106    21384.136    3.0691499 
    3990    734.59733   -6888.1691   -6806.2237    748.76595    21373.642    3.0710581 
    4000    745.81285   -6889.0631   -6805.8666    621.43439    21364.442    3.0777672 
    4010    743.32423   -6888.5102   -6805.5912    777.80823    21356.335    3.0884171 
    4020    733.33631    -6887.195   -6805.3902    1272.0366    21349.591     3.101723 
    4030    729.42459   -6886.6113   -6805.2429    1628.4546      21344.9     3.118166 
    4040    715.80001   -6884.9778   -6805.1293    1752.3788     21342.81    3.1362707 
    4050    696.97708   -6882.7689     -6805.02    1889.2535    21343.546    3.1517413 
    4060    696.68297   -6882.6003   -6804.8843    1883.3219    21347.272    3.1637933 
    4070     697.2061   -6882.4856   -6804.7112    1794.1487    21353.995    3.1760554 
    4080    698.05453   -6882.3756   -6804.5066    1730.3833    21363.597    3.1908141 
    4090    713.68793   -6883.8882   -6804.2753    1403.2592    21375.918    3.2093153 
    4100     716.1997   -6883.9281   -6804.0349    1143.9561    21390.485     3.232817 
    4110    706.55047   -6882.6134   -6803.7966    1036.0974    21406.911    3.2581204 
    4120    721.62142   -6884.0474   -6803.5494    687.76142    21424.959    3.2816446 
    4130     734.6954   -6885.2637   -6803.3074    503.27389    21444.128    3.3036655 
    4140    728.55371   -6884.3737   -6803.1024    550.46054     21464.12    3.3249892 
    4150    721.28875   -6883.3992   -6802.9384    521.19124    21484.972     3.347223 
    4160    708.16301   -6881.7839   -6802.7872    298.07036    21506.629    3.3725703 
    4170    712.17362   -6882.0727   -6802.6286   -14.483232    21528.733    3.3994028 
    4180    719.18727   -6882.6852   -6802.4588   -72.034039    21550.839    3.4241125 
    4190    731.71568   -6883.9251   -6802.3011   -9.9254087    21572.814    3.4459817 
    4200     735.2851   -6884.2043   -6802.1822     92.39916    21594.741    3.4665213 
    4210    720.87192   -6882.5195   -6802.1051   -56.007875     21616.75    3.4862034 
    4220    710.81446   -6881.3399   -6802.0475   -447.02183    21638.608    3.5026061 
    4230    704.78627   -6880.5937   -6801.9737   -856.71683    21659.737    3.5128244 
    4240    727.90344   -6883.0874   -6801.8886    -1714.965    21679.357    3.5161129 
    4250    734.51898   -6883.7544   -6801.8177   -2100.2498    21696.197    3.5170046 
    4260    739.69543   -6884.3159   -6801.8017    -1963.992    21709.614    3.5192802 
    4270    742.15384   -6884.6438   -6801.8555   -1878.7382    21719.739    3.5248411 
    4280    723.72063   -6882.7072   -6801.9751   -1947.1025    21726.714    3.5335789 
    4290    713.64571   -6881.7419   -6802.1337   -2258.8476    21730.412    3.5417236 
    4300    722.76804   -6882.9385   -6802.3126   -2611.7565    21730.354    3.5462262 
    4310    732.79771   -6884.2872   -6802.5425   -2859.5821    21725.956    3.5464649 
    4320    700.81023   -6880.9894   -6802.8129   -2176.7303    21716.972    3.5446155 
    4330    687.92134   -6879.8103   -6803.0717   -1431.2934     21704.39    3.5393768 
    4340    708.95787   -6882.3874    -6803.302   -1079.8272    21689.374    3.5309171 
    4350     731.0466    -6885.084   -6803.5346   -869.26588    21672.558    3.5246984 
    4360    751.16601    -6887.631   -6803.8373   -926.73651    21654.257    3.5256537 
    4370    734.39118   -6886.1544    -6804.232    -654.3755    21634.492    3.5317412 
    4380     726.5287   -6885.7329   -6804.6875   -634.66165    21613.621    3.5344781 
    4390    735.40897   -6887.2359   -6805.1999   -769.84536    21591.699    3.5308503 
    4400    732.33056   -6887.4587   -6805.7661   -419.63026    21568.613     3.523576 
    4410    726.37867   -6887.3983   -6806.3697    102.89106    21544.874    3.5174224 
    4420    721.81224   -6887.4891   -6806.9699     648.0929    21521.341    3.5160383 
    4430    717.37125   -6887.5819   -6807.5581    1160.1079    21498.886    3.5219249 
    4440    690.33566   -6885.0791   -6808.0712    1613.4554     21478.36    3.5338601 
    4450    705.13646   -6887.1606   -6808.5015    1188.0767    21460.339    3.5468656 
    4460    726.63776   -6889.9445   -6808.8869    593.71708    21444.244     3.558606 
    4470     739.0193   -6891.7117    -6809.273    525.77548    21429.202    3.5698932 
    4480    726.75109   -6890.7359   -6809.6657    1131.5257    21415.121    3.5842391 
    4490     713.2985   -6889.6008   -6810.0313    1685.5342    21402.877     3.604212 
    4500    707.91577   -6889.3248   -6810.3557    1735.8577    21393.284    3.6304508 
    4510    688.42603   -6887.4185   -6810.6236    1877.5387    21386.503    3.6596052 
    4520    675.02121   -6886.1075   -6810.8079    2452.6457    21382.831    3.6855665 
    4530    690.50729    -6887.942   -6810.9149    2510.4305    21383.033    3.7056233 
    4540    703.00172   -6889.3939    -6810.973    2287.9142     21387.26    3.7210219 
    4550    700.93171   -6889.2033   -6811.0134    2056.8481    21395.196    3.7343194 
    4560    679.55856   -6886.8246   -6811.0188    1878.5481     21406.52     3.746748 
    4570    689.43247    -6887.879   -6810.9718    1120.3403    21420.823    3.7570318 
    4580    696.67135   -6888.5786   -6810.8639    547.81153    21437.033    3.7665384 
    4590     698.2382   -6888.6111   -6810.7216    241.77884    21454.237    3.7766652 
    4600    710.04459   -6889.7583   -6810.5518 -0.043292906    21471.904    3.7875963 
    4610    709.56739   -6889.5251   -6810.3718   -32.465915    21489.665    3.7994035 
    4620    700.14428   -6888.2888   -6810.1866   -45.051776    21507.428    3.8123442 
    4630    702.52733   -6888.3521   -6809.9841    3.8550239    21525.193     3.827908 
    4640    703.29259   -6888.2118   -6809.7585   -182.45608    21542.997    3.8457685 
    4650    700.55228   -6887.6564   -6809.5088   -705.95479     21560.53    3.8637807 
    4660    698.48609   -6887.1469   -6809.2297   -1238.5107    21576.969     3.884592 
    4670    695.55924   -6886.5091   -6808.9184   -1316.8969    21591.501    3.9091377 
    4680    696.20945    -6886.234   -6808.5708   -998.73854    21603.969     3.932264 
    4690     695.6143   -6885.7841   -6808.1873   -494.32401    21614.871    3.9530327 
    4700    702.17116   -6886.0982   -6807.7699   -329.64781    21624.954    3.9756796 
    4710    713.43328   -6886.9158   -6807.3313   -605.51958     21634.45      3.99926 
    4720    714.18745   -6886.5636    -6806.895   -754.71849    21643.023    4.0197589 
    4730     726.5648   -6887.5306   -6806.4812   -889.42639    21650.399    4.0363037 
    4740     725.0399   -6886.9873    -6806.108   -951.91647    21656.331    4.0527888 
    4750    715.74127   -6885.6302   -6805.7882   -1036.9295    21660.705    4.0748731 
    4760    706.49171   -6884.3139   -6805.5037    -1433.144    21663.339    4.1037412 
    4770    704.86694   -6883.8627   -6805.2338   -2042.2937    21663.576    4.1328391 
    4780    708.72609   -6884.0376   -6804.9781   -2070.2085    21660.522    4.1544256 
    4790    705.58812   -6883.4485   -6804.7391   -1445.2882     21654.13    4.1687534 
    4800    717.95862   -6884.6121   -6804.5228   -803.19106    21645.325    4.1825285 
    4810    727.69093   -6885.5175   -6804.3425    -496.3366     21635.12    4.2013484 
    4820    724.44547   -6885.0255   -6804.2125   -232.43497    21624.069    4.2256988 
    4830    722.86153   -6884.7621   -6804.1258   -7.6065533    21612.587    4.2495551 
    4840    735.93005    -6886.181   -6804.0869   -242.66684    21600.965    4.2670551 
    4850    735.27594   -6886.1204   -6804.0992   -168.26658    21588.995    4.2773507 
    4860    744.75901   -6887.2395   -6804.1605   -166.89689    21576.695     4.280823 
    4870     742.3744   -6887.0855   -6804.2725      211.102    21564.152    4.2823812 
    4880    711.79193   -6883.8053   -6804.4038    1302.2248    21552.061    4.2878623 
    4890    709.73959   -6883.6842   -6804.5117    1722.4442    21541.967    4.2979182 
    4900    719.91335   -6884.9047   -6804.5973    1431.6337    21534.576    4.3115542 
    4910    726.13439   -6885.6958   -6804.6944    1266.7169    21529.553    4.3292968 
    4920    719.22561    -6885.036   -6804.8053    1480.0749    21526.663     4.350189 
    4930    709.11313   -6884.0166   -6804.9139    1801.1563    21526.204    4.3719615 
    4940     710.7505   -6884.2994   -6805.0141     1842.634     21528.66     4.394114 
    4950    710.96699   -6884.4109   -6805.1014    1707.5542    21534.117    4.4181457 
    4960    708.02215   -6884.1518   -6805.1709    1672.9132      21542.4    4.4406083 
    4970    706.89201     -6884.08   -6805.2251    1729.7822    21553.457    4.4576902 
    4980    706.66752   -6884.0971   -6805.2673    1662.6545    21567.349    4.4716066 
    4990    703.75019   -6883.8076   -6805.3033    1362.2149    21583.942    4.4882687 
    5000    702.54887   -6883.7035   -6805.3331    842.95982    21602.734    4.5139434 
Loop time of 2286.23 on 16 procs for 3000 steps with 864 atoms

Performance: 0.113 ns/day, 211.688 hours/ns, 1.312 timesteps/s
97.4% CPU use with 16 MPI tasks x 1 OpenMP threads

MPI task timing breakdown:
Section |  min time  |  avg time  |  max time  |%varavg| %total
---------------------------------------------------------------
Pair    | 1366.7     | 1912.6     | 2248.1     | 553.6 | 83.66
Bond    | 0.00035334 | 0.00085306 | 0.0014129  |   0.0 |  0.00
Neigh   | 0.029273   | 0.042183   | 0.056431   |   4.0 |  0.00
Comm    | 18.741     | 278.43     | 756.47     |1363.8 | 12.18
Output  | 0.19164    | 0.20579    | 0.41578    |  12.0 |  0.01
Modify  | 5.1834     | 94.894     | 162.84     | 716.1 |  4.15
Other   |            | 0.01601    |            |       |  0.00

Nlocal:        54.0000 ave          69 max          38 min
Histogram: 2 1 0 1 1 6 1 1 2 1
Nghost:        484.688 ave         572 max         386 min
Histogram: 1 1 2 1 2 3 2 0 3 1
Neighs:         0.00000 ave           0 max           0 min
Histogram: 16 0 0 0 0 0 0 0 0 0
FullNghs:      2200.00 ave        3353 max        1247 min
Histogram: 3 0 1 2 4 2 1 0 1 2

Total # of neighbors = 35200
Ave neighs/atom = 40.740741
Ave special neighs/atom = 0.0000000
Neighbor list builds = 300
Dangerous builds = 300
unfix   2

fix     3 all npt temp 712.5 712.5 $(100.0*dt) aniso 1.01325 1.01325 $(1000.0*dt)
fix     3 all npt temp 712.5 712.5 0.10000000000000000555 aniso 1.01325 1.01325 $(1000.0*dt)
fix     3 all npt temp 712.5 712.5 0.10000000000000000555 aniso 1.01325 1.01325 1
run     20000
Per MPI rank memory allocation (min/avg/max) = 8.898 | 8.906 | 8.914 Mbytes
Step Temp PotEng TotEng Press Volume c_msd[4] 
    5000    702.54887   -6883.7035   -6805.3331    842.95982    21602.734    4.5139434 
    5010    701.59296   -6883.5846   -6805.3209    633.65931    21603.365    4.5357491 
    5020    711.16498   -6884.6211   -6805.2896    301.08012     21605.03      4.56201 
    5030    718.88441   -6885.4464   -6805.2537   -119.11263    21607.194    4.5833252 
    5040    717.90508     -6885.31   -6805.2266   -470.02417    21609.175    4.5940962 
    5050    723.00401   -6885.8686   -6805.2164   -535.58732    21610.445     4.594506 
    5060    720.55112   -6885.6037   -6805.2251   -491.60648    21610.851     4.592349 
    5070    719.22794   -6885.4842   -6805.2532   -754.89228    21610.398    4.5935048 
    5080    709.25521   -6884.4143   -6805.2958   -928.53009    21608.725    4.6003825 
    5090    705.35718   -6884.0191   -6805.3354   -861.95452    21605.564    4.6124054 
    5100    726.74366   -6886.4446   -6805.3753   -888.01193    21600.963    4.6272603 
    5110    734.65855   -6887.4007   -6805.4484   -720.60516    21594.924    4.6386732 
    5120     728.4981   -6886.8516   -6805.5866   -66.607299    21587.767    4.6415693 
    5130    709.28568   -6884.8983   -6805.7764    517.11408    21580.475    4.6390836 
    5140    703.92137    -6884.516   -6805.9925    120.76937    21573.855    4.6367215 
    5150    707.96252   -6885.2115   -6806.2372   -514.03532    21567.375    4.6420497 
    5160    696.89555   -6884.2474   -6806.5076   -569.81983    21560.123    4.6581564 
    5170    701.59102   -6885.0589   -6806.7954   -574.97744    21551.902    4.6757681 
    5180    712.90828   -6886.6392   -6807.1132   -581.00268    21542.713    4.6882327 
    5190    715.96275   -6887.3556   -6807.4889   -517.82824     21532.55     4.697489 
    5200    718.91943   -6888.1259   -6807.9294   -639.33262    21521.441    4.7011847 
    5210     719.3091    -6888.685    -6808.445   -356.17465    21509.301     4.694297 
    5220    692.73734   -6886.2674   -6808.9915    180.09306    21496.554    4.6813019 
    5230    686.71152   -6886.1226   -6809.5189    473.04695    21484.004     4.668997 
    5240     702.7577   -6888.4154   -6810.0217    605.71073    21472.145    4.6615985 
    5250    698.22144   -6888.3989   -6810.5112    909.71347     21461.24    4.6600788 
    5260    675.35093   -6886.2854   -6810.9489    1214.9865    21451.768    4.6623088 
    5270    687.21655   -6887.9779   -6811.3178     833.5105    21444.124    4.6649823 
    5280    689.06919   -6888.4994   -6811.6327    262.15947    21437.769    4.6688296 
    5290    662.36965   -6885.7646   -6811.8763     13.21061    21431.858    4.6739016 
    5300    663.73845   -6886.0662   -6812.0252   -520.40215     21425.88    4.6756149 
    5310    672.71611   -6887.1158   -6812.0733   -720.99784    21419.068    4.6717692 
    5320    673.86458   -6887.2046    -6812.034   -398.07086    21411.119    4.6630116 
    5330    685.73574   -6888.4105   -6811.9156   -206.71709    21402.446    4.6507534 
    5340       706.64   -6890.5645   -6811.7377   -61.332734    21393.383    4.6358046 
    5350    714.19074   -6891.2058   -6811.5368    78.972937    21384.156    4.6206391 
    5360    698.28905   -6889.2184   -6811.3232    192.22949    21375.009    4.6099979 
    5370     697.0681   -6888.8353   -6811.0763   -112.66995    21366.036    4.6049487 
    5380    715.03201   -6890.5493   -6810.7864   -217.15075    21356.854     4.602834 
    5390    719.26401   -6890.7066   -6810.4716     186.3287    21347.334    4.6020098 
    5400    713.57383   -6889.7443   -6810.1441    637.94672     21338.07    4.6023088 
    5410    718.67381   -6889.9717   -6809.8025    726.72636     21329.73    4.6019237 
    5420     734.2268   -6891.3624   -6809.4583    467.21711     21322.45    4.5999498 
    5430    730.31342   -6890.6018   -6809.1343    495.05037    21315.938    4.6019301 
    5440    702.78135   -6887.2171   -6808.8208    830.82239    21310.246    4.6094268 
    5450    697.79219   -6886.3089   -6808.4691    965.43275    21305.835    4.6183115 
    5460    719.66894   -6888.3387   -6808.0585    691.81944     21302.89    4.6265998 
    5470    729.17069   -6888.9654   -6807.6253    668.96078    21301.076    4.6347994 
    5480    712.41733   -6886.6566   -6807.1854    945.88759    21300.389    4.6459202 
    5490    736.15448     -6888.85   -6806.7309    507.43099    21301.113    4.6599006 
    5500    755.30761    -6890.526   -6806.2703    107.79072    21302.678    4.6751304 
    5510    734.01183   -6887.7452   -6805.8651    107.40657    21304.491    4.6930554 
    5520    718.84449   -6885.6847   -6805.4965   -272.84115    21306.422     4.711205 
    5530    736.33797   -6887.2565   -6805.1169   -907.34263    21307.895     4.727075 
    5540    740.57578   -6887.3508   -6804.7384   -897.29641    21308.029    4.7437269 
    5550    724.46862   -6885.1973   -6804.3818    -496.1688    21306.792    4.7642967 
    5560    725.62443   -6884.9722   -6804.0277   -89.895067    21304.752    4.7894235 
    5570    731.29729   -6885.2353    -6803.658    489.78234    21302.601     4.816907 
    5580    738.32524   -6885.6366   -6803.2753    524.71388    21301.152    4.8407566 
    5590    739.63951   -6885.3898   -6802.8819    467.26485    21300.539    4.8584903 
    5600    731.92085   -6884.1331   -6802.4862    526.69177      21300.7    4.8703791 
    5610    726.21261   -6883.0758   -6802.0657    512.26567    21301.698    4.8775666 
    5620     743.5756   -6884.5504   -6801.6034    497.35945    21303.517    4.8822989 
    5630    768.57251   -6886.8542   -6801.1188    590.37685    21306.167    4.8862619 
    5640    768.36719    -6886.389   -6800.6765    1049.0183    21309.857      4.89016 
    5650    756.35667   -6884.6864   -6800.3137    1505.7865    21315.265    4.8950877 
    5660     757.5355   -6884.5293   -6800.0251    2018.2169     21323.16    4.9043435 
    5670    754.24234   -6883.9464   -6799.8096    2712.0657    21334.412     4.919124 
    5680    745.20075   -6882.8046   -6799.6763    2881.6177    21350.063    4.9381149 
    5690    750.58227   -6883.3415   -6799.6129     2106.183    21370.355    4.9612234 
    5700    760.34592   -6884.4412   -6799.6235    1181.9934    21394.228    4.9874598 
    5710    769.32655   -6885.5646   -6799.7451    163.44274    21420.202    5.0141917 
    5720    763.63813   -6885.1933   -6800.0083   -512.28574    21446.726    5.0370625 
    5730    742.69257   -6883.2622   -6800.4137   -1102.0271    21472.657    5.0520675 
    5740    740.03709   -6883.4801   -6800.9279   -2006.3069    21496.948    5.0569801 
    5750    747.81462   -6884.9731   -6801.5532   -2457.0691    21518.233    5.0615698 
    5760     737.8364   -6884.5972   -6802.2905   -2493.2437    21535.707    5.0757134 
    5770    720.95415   -6883.4959   -6803.0724   -2387.7148     21549.25    5.0969471 
    5780    712.86245   -6883.3527   -6803.8318   -2249.8149    21558.975    5.1164676 
    5790    701.66398   -6882.7909   -6804.5192   -2223.6894    21565.047    5.1284295 
    5800    704.62648   -6883.7189   -6805.1167   -2367.5289    21567.486    5.1348057 
    5810    701.65483   -6883.8996    -6805.629   -2263.3845    21566.087    5.1416492 
    5820     691.2795   -6883.1595   -6806.0463   -2063.9766    21560.966    5.1535547 
    5830    696.14201   -6884.0293   -6806.3736   -1936.9018    21552.424    5.1706746 
    5840    706.46531   -6885.4462   -6806.6389   -2115.1048    21540.598    5.1913722 
    5850    715.57639   -6886.7063   -6806.8827   -2264.9174    21525.217    5.2117412 
    5860     707.4426   -6886.0298   -6807.1136   -1758.0785    21506.126    5.2261259 
    5870    704.41528   -6885.8903   -6807.3117   -1046.5115     21484.08    5.2312563 
    5880    718.45321   -6887.6223   -6807.4777   -569.71211    21460.171    5.2301145 
    5890    718.98223   -6887.8294   -6807.6259    83.611075    21435.254    5.2321907 
    5900    713.93623   -6887.3964   -6807.7557    1042.5063    21410.439    5.2417443 
    5910    724.43746   -6888.6975   -6807.8854    1427.3303    21387.141    5.2532529 
    5920    718.41641   -6888.1803   -6808.0399    1649.2483    21366.084    5.2641535 
    5930    682.38448   -6884.3067   -6808.1857    1887.1427    21347.659    5.2747245 
    5940    674.71535   -6883.5351   -6808.2696    1674.7057     21332.18    5.2807993 
    5950    695.82101   -6885.9068   -6808.2869    1188.1219    21319.335    5.2839074 
    5960    701.74918   -6886.5419   -6808.2607    843.37914    21308.409    5.2874702 
    5970    706.59561   -6887.0384   -6808.2166    683.81338    21298.861    5.2911021 
    5980    711.04533   -6887.4786   -6808.1604    646.34933    21290.427    5.2963483 
    5990     715.4615   -6887.9105   -6808.0997    726.52748    21283.039     5.304371 
    6000    712.83256   -6887.5509   -6808.0334    1076.8711    21276.847    5.3139548 
    6010    698.11693   -6885.8369   -6807.9609    1919.4286    21272.444    5.3208527 
    6020    674.32932   -6883.0776   -6807.8552    2710.0174    21271.116    5.3209741 
    6030    677.53566   -6883.2649   -6807.6847    2544.2871    21273.987    5.3177075 
    6040    699.30133   -6885.4377   -6807.4296    1803.3584    21280.854    5.3177403 
    6050    710.80868   -6886.4006   -6807.1088    1640.5301    21290.726    5.3226334 
    6060    711.09188   -6886.0748   -6806.7514    1953.3243    21303.322    5.3319684 
    6070    719.67851   -6886.6415   -6806.3602    2284.6784    21319.099    5.3432449 
    6080    739.59307   -6888.4506   -6805.9479    2083.7668    21338.507    5.3550399 
    6090    749.33848   -6889.1352   -6805.5454    1536.4068    21361.298    5.3699945 
    6100    753.88229    -6889.283   -6805.1863    772.75745    21386.629    5.3901539 
    6110    755.09234   -6889.1191   -6804.8874    89.222729    21413.322    5.4136505 
    6120     728.0773   -6885.8699   -6804.6518    141.28988    21440.383    5.4398026 
    6130    704.17107   -6883.0009   -6804.4495    334.76124    21467.799    5.4658384 
    6140    712.46495   -6883.6934   -6804.2168   -7.7100915    21495.789    5.4889901 
    6150    735.73249   -6886.0171   -6803.9451   -849.11346    21523.788    5.5127582 
    6160     742.6069   -6886.5094   -6803.6705   -1569.2099    21550.506    5.5410159 
    6170    744.24898   -6886.4556   -6803.4335   -1806.6323    21574.799    5.5694115 
    6180    743.54871   -6886.1878   -6803.2439   -1655.5682    21596.252    5.5947424 
    6190    745.01503   -6886.2232   -6803.1157   -1442.1265    21615.034    5.6177938 
    6200    721.67138   -6883.5426   -6803.0391   -1006.2252    21631.517     5.638734 
    6210    716.70046   -6882.9363   -6802.9873   -919.36723     21646.32    5.6547641 
    6220      729.905   -6884.3664   -6802.9444   -1189.3093    21659.582    5.6688218 
    6230    730.56616   -6884.4258     -6802.93   -1417.0909     21670.91    5.6860417 
    6240    727.40567    -6884.102   -6802.9588   -1739.8185    21679.877    5.7067331 
    6250    719.29571   -6883.2659   -6803.0274   -1526.4242    21686.066    5.7263618 
    6260    710.74363   -6882.4006    -6803.116   -966.56299    21689.787    5.7429195 
    6270    711.71513   -6882.6075   -6803.2146   -619.05175    21691.868    5.7602118 
    6280    709.02641   -6882.4129     -6803.32   -314.92907     21692.92    5.7781907 
    6290    722.88679   -6884.0898   -6803.4507   -291.15878    21693.406    5.7932678 
    6300    718.48552   -6883.7619   -6803.6138   -465.17127    21693.398    5.8052884 
    6310    700.59442   -6881.9531   -6803.8008   -700.81557    21692.626    5.8149902 
    6320    711.53794   -6883.3661   -6803.9929   -1087.3925    21690.675    5.8248161 
    6330    723.34521   -6884.8931   -6804.2028   -1287.5774    21686.965    5.8386647 
    6340    711.02877   -6883.7623    -6804.446   -1082.9451    21681.198    5.8562634 
    6350    705.72191   -6883.4362   -6804.7118   -964.69157    21673.653    5.8714986 
    6360      710.442   -6884.2449    -6804.994   -1333.9751    21664.464    5.8833508 
    6370    708.85667     -6884.37    -6805.296   -1485.6377    21653.123    5.8975287 
    6380    700.45168   -6883.7392   -6805.6028   -937.22465    21639.492    5.9134734 
    6390    716.63756   -6885.8534   -6805.9114   -590.81291    21624.321    5.9274171 
    6400    721.12052   -6886.6746   -6806.2326   -448.04795    21608.191    5.9388664 
    6410    733.54743   -6888.4197   -6806.5914   -699.03581    21591.325    5.9485488 
    6420    745.55868   -6890.1932    -6807.025   -1069.2824    21573.387     5.957818 
    6430    735.34289    -6889.569   -6807.5404   -845.93866    21553.907    5.9663862 
    6440    721.55915   -6888.5929   -6808.1019   -543.27647    21533.151    5.9755902 
    6450    707.86017   -6887.6348   -6808.6719    31.644072    21511.664    5.9870092 
    6460    688.11166   -6885.9492   -6809.1893    927.58974      21490.4    5.9992153 
    6470    688.51466   -6886.4261   -6809.6213    1269.0472    21470.692     6.006957 
    6480    690.15619   -6886.9582   -6809.9702     1031.279    21453.106    6.0066875 
    6490    693.64645   -6887.6293    -6810.252     649.7271    21437.309    6.0020071 
    6500    702.90091   -6888.9068   -6810.4971    318.00918    21422.669    5.9989866 
    6510    694.15708   -6888.1349   -6810.7007    658.18645    21408.753    6.0016477 
    6520    698.32222   -6888.7566   -6810.8578    1003.7788    21396.004     6.010317 
    6530    702.74249   -6889.3607   -6810.9687    1239.6407    21384.957    6.0239006 
    6540    710.01805   -6890.2639   -6811.0603    1657.5245    21376.031    6.0407766 
    6550    696.09669   -6888.7872   -6811.1366    2038.2422    21369.854    6.0593935 
    6560    685.24392   -6887.6147   -6811.1747    1915.2552     21366.94    6.0770347 
    6570    706.71696   -6890.0149   -6811.1796    1349.7209    21367.055    6.0923425 
    6580    698.83074   -6889.1158   -6811.1601    1097.5398    21369.405     6.106176 
    6590     688.1108   -6887.8746   -6811.1148    761.86107    21373.471    6.1132395 
    6600    692.38268   -6888.2515   -6811.0152     555.1284     21378.75    6.1153039 
    6610    702.46262   -6889.2304   -6810.8696    307.47437    21384.873    6.1196248 
    6620    702.74964   -6889.0821   -6810.6893    518.33662    21391.544    6.1289573 
    6630    701.53813   -6888.7457   -6810.4881    862.47145    21399.015    6.1409423 
    6640    673.24757   -6885.3459   -6810.2441     1107.192    21407.798    6.1541116 
    6650    661.92565   -6883.7504   -6809.9116    1267.1767    21418.293    6.1683182 
    6660    683.89483    -6885.727   -6809.4375    815.65195    21430.653    6.1793145 
    6670    708.87078   -6887.8996    -6808.824   -25.712776    21444.184    6.1873726 
    6680    713.48172   -6887.7344   -6808.1445   -243.95785    21457.645     6.195823 
    6690    690.00671   -6884.4205   -6807.4492    292.26829    21470.707    6.2045339 
    6700    701.27913   -6884.9757    -6806.747    437.71439     21484.07    6.2129254 
    6710    722.96987    -6886.689   -6806.0407    436.11428    21498.017    6.2242038 
    6720    717.47679   -6885.4675   -6805.4319    784.14995    21512.607    6.2396612 
    6730    696.76179   -6882.6594   -6804.9346     1219.833    21528.362    6.2586364 
    6740    696.85126   -6882.2501   -6804.5153    1269.6187    21545.901    6.2784841 
    6750    716.90803    -6884.127   -6804.1548    1103.4197    21565.311    6.2961846 
    6760    715.53216   -6883.6881   -6803.8694    924.48772    21586.338     6.309595 
    6770    725.70837   -6884.6045   -6803.6507    511.73063    21608.657    6.3186326 
    6780    747.18495   -6886.8486    -6803.499    112.19634     21631.58    6.3260241 
    6790    738.42767   -6885.8102   -6803.4375    397.37031    21654.545    6.3355396 
    6800    721.62807   -6883.9419   -6803.4432    680.46711    21677.927    6.3485771 
    6810    738.56062   -6885.8694   -6803.4819    265.49159    21702.078    6.3653952 
    6820    745.76072   -6886.7558    -6803.565   -17.199035    21726.425    6.3872728 
    6830    734.06992   -6885.5919   -6803.7053   -161.55927    21750.481    6.4098012 
    6840     740.6188   -6886.5077   -6803.8905   -576.93105    21773.924     6.427162 
    6850    739.58606   -6886.6163   -6804.1144   -972.08113    21796.117    6.4453425 
    6860    735.64344   -6886.4538   -6804.3916   -1568.5225    21816.362     6.468724 
    6870     700.2949   -6882.8059   -6804.6869   -1892.3793    21833.792    6.4909642 
    6880    687.01216   -6881.5819   -6804.9447   -2340.8604    21847.805    6.5016879 
    6890    702.03516   -6883.4716   -6805.1586   -2697.0892    21857.718    6.4998416 
    6900    690.17519   -6882.3293   -6805.3392   -2421.1601    21863.102    6.4943065 
    6910    685.84229   -6881.9847   -6805.4779   -2400.6363    21864.317     6.494269 
    6920    712.98145   -6885.1172   -6805.5831   -2763.7066    21861.441    6.5062026 
    6930    717.41213   -6885.7203   -6805.6919   -2769.2405     21854.05    6.5273257 
    6940     706.0828   -6884.5823   -6805.8177   -2539.6086    21842.179    6.5479474 
    6950    699.12345   -6883.9274   -6805.9391   -2234.5958    21826.265     6.564242 
    6960    686.90104   -6882.6533   -6806.0285   -1685.0271    21806.913    6.5790781 
    6970    686.76452   -6882.6755   -6806.0659   -1140.2048    21785.079    6.5920884 
    6980    678.44237   -6881.7152    -6806.034   -542.28942    21761.734    6.6024783 
    6990    671.49734   -6880.8233   -6805.9168     203.8918    21737.906    6.6092385 
    7000    682.67559   -6881.8437   -6805.6902    1316.5011    21714.911    6.6121753 
    7010    699.06063   -6883.3467   -6805.3654    2436.7747    21694.508    6.6168159 
    7020     710.6415   -6884.2514   -6804.9783    2914.0166    21678.419    6.6255018 
    7030    738.38347   -6886.9393   -6804.5715    2411.0017    21667.261    6.6378746 
    7040     754.8858   -6888.3986     -6804.19    2006.9873    21660.297    6.6572844 
    7050    759.25875   -6888.5842   -6803.8877    1537.6972    21656.735    6.6835065 
    7060     743.2468   -6886.5879   -6803.6776    1353.8339    21655.813    6.7154053 
    7070     730.0606   -6884.9635   -6803.5242    1081.9184    21657.114    6.7515139 
    7080    734.62322   -6885.3416   -6803.3933    395.33479    21660.096    6.7913069 
    7090    736.13525   -6885.4102   -6803.2932    6.7571476    21663.718    6.8353255 
    7100    734.32704    -6885.156   -6803.2407    -20.98939    21667.336    6.8842773 
    7110    730.42843   -6884.7172   -6803.2368    55.256116    21670.852    6.9383975 
    7120    727.24196   -6884.4023   -6803.2774    229.30588    21674.387    6.9905117 
    7130    727.33895   -6884.5001   -6803.3643    430.23591     21678.25    7.0322495 
    7140    722.18238   -6884.0624   -6803.5019    501.22036    21682.698     7.064247 
    7150     723.2387   -6884.3687   -6803.6904    427.03678    21687.839    7.0873281 
    7160    732.55687   -6885.6616   -6803.9437   -52.407903    21693.508    7.0953243 
    7170     723.4394   -6884.9813   -6804.2805   -495.83258    21698.968    7.0935314 
    7180     715.9259   -6884.5658   -6804.7031   -875.51573    21703.475    7.0968305 
    7190    718.40224   -6885.3408   -6805.2019   -945.22491    21706.487    7.1124929 
    7200    732.78813   -6887.5411   -6805.7975   -777.11683    21707.934    7.1399858 
    7210    722.54132   -6887.0925   -6806.4919   -579.67023    21708.087    7.1781068 
    7220     708.0572   -6886.2088    -6807.224   -678.88998    21707.232    7.2234915 
    7230    711.47977   -6887.3093   -6807.9427   -956.00519     21705.26    7.2683614 
    7240    711.64516   -6888.0083   -6808.6233   -1072.8469    21701.798    7.3056886 
    7250    711.73922   -6888.6441   -6809.2485   -1257.7843    21696.657     7.335386 
    7260    708.80149   -6888.8818    -6809.814   -1050.5994    21689.653    7.3611229 
    7270    703.53578   -6888.7831   -6810.3026    -508.6991    21681.158    7.3848862 
    7280    712.26433   -6890.1785   -6810.7243   -441.83927    21671.953    7.4094676 
    7290    705.51359   -6889.7939   -6811.0928   -477.34151    21662.221    7.4361094 
    7300    684.03263   -6887.6944   -6811.3896   -302.85273    21651.976    7.4640902 
    7310    681.06364   -6887.5729   -6811.5992   -242.62796    21641.474    7.4931951 
    7320    684.14286   -6888.0395   -6811.7224   -372.65922    21630.817    7.5239957 
    7330    682.01898   -6887.8512    -6811.771   -587.53813    21619.782    7.5561207 
    7340    685.53707   -6888.2357    -6811.763   -687.78902    21608.066    7.5840851 
    7350    675.91892   -6887.0932   -6811.6934   -552.63821    21595.555    7.6025691 
    7360    678.77434    -6887.275   -6811.5567   -518.22471    21582.428     7.612703 
    7370    684.60301   -6887.7171   -6811.3486   -432.77252    21568.774    7.6210473 
    7380    689.75665   -6888.0247   -6811.0813   -24.164475    21554.783    7.6340474 
    7390    701.05312   -6888.9735   -6810.7699    562.01001    21541.091     7.654985 
    7400    700.00894   -6888.5113   -6810.4243    1212.4374    21528.631    7.6804903 
    7410    706.65531   -6888.8926   -6810.0641    1545.1274    21518.362    7.7039736 
    7420    710.74802   -6888.9821   -6809.6971    1763.1935    21510.809    7.7256978 
    7430    716.68926    -6889.287   -6809.3392     1912.865    21506.264    7.7476984 
    7440    717.01495   -6888.9885   -6809.0044    2163.2167     21504.93    7.7692337 
    7450     715.8844   -6888.5536   -6808.6956    2201.9378    21507.086    7.7920574 
    7460    721.59409   -6888.9052   -6808.4103    1909.2414    21512.729    7.8215861 
    7470    731.71972   -6889.7795   -6808.1551    1418.2924    21521.341    7.8615627 
    7480    726.77784   -6889.0132     -6807.94    1136.1263    21532.126     7.908696 
    7490    719.81688   -6888.0695   -6807.7728    1127.5349    21544.603    7.9567225 
    7500    699.58023   -6885.6605   -6807.6212    949.07066    21558.656    7.9983801 
    7510    690.07129   -6884.4346   -6807.4561    758.02147    21574.021    8.0269386 
    7520    688.41087   -6884.0394   -6807.2462    429.51765    21590.332    8.0487765 
    7530    682.62409   -6883.1311   -6806.9834     33.94264    21607.064    8.0776761 
    7540    690.82663   -6883.7196   -6806.6569   -626.27691    21623.529    8.1226688 
    7550    712.23884   -6885.7273    -6806.276   -1361.5623    21638.689    8.1796294 
    7560    712.61865   -6885.3794   -6805.8857   -1541.2596    21651.474    8.2376756 
    7570    701.06463   -6883.7108    -6805.506   -1217.0544    21661.597    8.2862481 
    7580    702.93403   -6883.5393   -6805.1259   -681.24004    21669.605    8.3141304 
    7590    725.45167   -6885.6693   -6804.7441   -698.33358    21676.275    8.3205171 
    7600    738.15447   -6886.7467   -6804.4045   -797.61902    21681.696     8.319018 
    7610    710.75427   -6883.4166   -6804.1309   -513.55411    21685.809    8.3230537 
    7620    699.57479   -6881.9339   -6803.8953   -191.92868    21689.038    8.3441812 
    7630    707.20923    -6882.549   -6803.6587   -203.89823    21691.857    8.3874396 
    7640    712.56623   -6882.9186   -6803.4308   -233.62205    21694.308    8.4426942 
    7650    709.70179   -6882.3918   -6803.2235    -291.8666     21696.35    8.4941964 
    7660    708.95691   -6882.1226   -6803.0374   -582.47201    21697.859    8.5347066 
    7670    730.26182   -6884.3388    -6802.877   -1112.3563    21698.345    8.5624995 
    7680    736.68703   -6884.9479   -6802.7694   -1334.7253    21697.046    8.5783564 
    7690    734.24986   -6884.6355   -6802.7288   -1565.4263    21693.552    8.5906701 
    7700    734.06819   -6884.6313   -6802.7449   -1532.8997    21687.579    8.6094451 
    7710    724.84344   -6883.6569   -6802.7996   -1202.4287    21679.184     8.633906 
    7720    722.91195   -6883.5149    -6802.873   -598.63435    21668.955    8.6559973 
    7730    726.97943     -6884.05   -6802.9544   -166.50775    21657.839    8.6721469 
    7740    729.74615    -6884.459   -6803.0547    8.1916489    21646.528    8.6842981 
    7750     723.6086   -6883.8859   -6803.1663    346.09197     21635.39    8.6982905 
    7760    733.17296   -6885.0791   -6803.2926    700.10881    21624.932     8.716761 
    7770    740.05645   -6886.0007   -6803.4463    1081.3448    21615.743     8.736479 
    7780    731.34807     -6885.22    -6803.637    1338.5453    21608.394    8.7571313 
    7790    713.76857    -6883.464    -6803.842    1569.9242    21603.313     8.780157 
    7800    715.38824     -6883.84   -6804.0374    1461.5374     21600.81    8.8085708 
    7810    730.07257   -6885.6793   -6804.2386    1066.9747      21600.7    8.8412864 
    7820    724.76521   -6885.3123   -6804.4637    849.25929    21602.376    8.8733378 
    7830    711.47247    -6884.057   -6804.6912    675.93295     21605.45     8.900924 
    7840    727.12095   -6886.0328   -6804.9214   -28.905573    21609.515    8.9264567 
    7850     720.8816   -6885.5731   -6805.1577   -328.90789    21613.598    8.9568574 
    7860    706.64089   -6884.2314   -6805.4045   -501.19787    21617.118    8.9939156 
    7870    691.39329   -6882.7461   -6805.6201   -474.92442    21619.841    9.0330596 
    7880    701.17267   -6884.0131   -6805.7962   -678.30649     21621.73      9.07001 
    7890    697.37064   -6883.7324   -6805.9396   -817.01486    21622.511    9.1072763 
    7900    686.66495   -6882.6421   -6806.0436     -826.906    21621.977    9.1451985 
    7910    696.05614   -6883.7483   -6806.1022   -793.55894     21620.09    9.1771518 
    7920     693.8524    -6883.514   -6806.1137   -439.74402    21616.973    9.2002762 
    7930    693.54106   -6883.4476    -6806.082    5.0432929    21613.162    9.2149602 
    7940    698.15518   -6883.8847   -6806.0044    310.45136    21609.371    9.2254427 
    7950    705.54021   -6884.5961    -6805.892    57.253173    21606.023    9.2404668 
    7960     715.1774   -6885.5403   -6805.7612   -268.36076    21602.783     9.266057 
    7970    716.01575   -6885.4965   -6805.6239   -374.06231    21599.163    9.2987452 
    7980     720.8527      -6885.9   -6805.4878   -199.11409    21594.998    9.3314857 
    7990    728.28863   -6886.6013   -6805.3597    275.97653    21590.586    9.3603373 
    8000    724.48387   -6886.0677   -6805.2504    614.38749    21586.617    9.3829478 
    8010    715.98663   -6885.0187   -6805.1493    779.58782    21583.651    9.4023863 
    8020    719.56775   -6885.3215   -6805.0526    673.23622    21581.925      9.41831 
    8030    708.13605    -6883.942   -6804.9484    1183.5206    21581.423    9.4241767 
    8040     707.6232    -6883.762   -6804.8256    1916.0784    21582.901    9.4246176 
    8050    716.71939   -6884.6246   -6804.6735    1941.7247    21587.429     9.432518 
    8060    727.07336   -6885.6018   -6804.4956     1319.233    21595.051    9.4538826 
    8070    744.06142   -6887.3202    -6804.319    849.81043     21604.84    9.4840646 
    8080    728.34264   -6885.4149   -6804.1672    1181.9552    21616.133      9.51803 
    8090    711.86066   -6883.4479   -6804.0387    1635.1866    21629.387    9.5516203 
    8100    708.06753    -6882.879    -6803.893     1594.849    21645.247    9.5838965 
    8110    712.36469   -6883.1785   -6803.7132    1228.5934    21663.697    9.6193734 
    8120    720.27127   -6883.8418   -6803.4945     378.3951    21684.106    9.6640958 
    8130    729.05176    -6884.574   -6803.2471     -271.258    21705.179     9.717216 
    8140    739.08176   -6885.4503   -6803.0046   -535.65798    21725.842    9.7694329 
    8150     718.1213   -6882.8956   -6802.7881   -150.87591    21745.721    9.8105754 
    8160    712.25592   -6882.0386   -6802.5854   -1.2474887    21765.293    9.8358242 
    8170    719.17639   -6882.5909   -6802.3657   -126.43402    21784.825    9.8501357 
    8180    719.46743   -6882.3928   -6802.1351   -221.84051    21804.159     9.860268 
    8190    734.26574   -6883.8173   -6801.9089   -527.31925    21823.066    9.8702018 
    8200    735.05129   -6883.7007   -6801.7046   -429.54612    21841.162    9.8862553 
    8210    729.80097   -6882.9565   -6801.5461   -435.13771    21858.519    9.9115514 
    8220    722.89389   -6882.0548   -6801.4149   -942.62292    21875.076    9.9443586 
    8230    721.59615   -6881.7944   -6801.2993   -1708.9172    21890.001    9.9803882 
    8240    726.86008   -6882.2837   -6801.2014   -2163.5198    21902.078    10.013203 
    8250     729.1133   -6882.4701   -6801.1364   -1729.0647    21910.637    10.038064 
    8260    726.44785   -6882.1477   -6801.1114   -1149.7005    21916.277    10.056749 
    8270    718.36108   -6881.2431   -6801.1089   -896.94249    21919.933    10.070052 
    8280    729.61124   -6882.5213   -6801.1321   -1137.7131    21921.992    10.074532 
    8290    724.55696   -6882.0141   -6801.1886   -1231.7322    21922.149    10.074845 
    8300    726.74581   -6882.3542   -6801.2846   -1476.2131    21920.201     10.07853 
    8310    739.12197   -6883.8834   -6801.4333   -1965.4386    21915.709    10.085572 
    8320    711.42959   -6880.9945   -6801.6335   -1768.1669    21908.005    10.088712 
    8330    701.63245    -6880.115   -6801.8469   -1590.0683    21897.291    10.082959 
    8340    720.88632   -6882.4832   -6802.0672   -1306.8777    21883.931    10.075414 
    8350    718.93882   -6882.5159   -6802.3172   -953.62512    21868.388    10.076681 
    8360    732.35718   -6884.3059   -6802.6103   -629.00851    21851.267    10.090525 
    8370    752.49901   -6886.9299   -6802.9875   -266.83152    21833.115     10.11181 
    8380    740.29573   -6886.0395   -6803.4584    506.26504    21814.622     10.12763 
    8390     753.6509   -6888.1044   -6804.0335    867.93675    21796.935    10.126227 
    8400    743.77294   -6887.6756   -6804.7067    1101.0318    21780.728    10.101517 
    8410    725.16039   -6886.3305   -6805.4378    1141.5694    21766.361    10.057945 
    8420    700.95996   -6884.3328   -6806.1396    1046.3707    21753.918    10.013604 
    8430    707.09154   -6885.6392    -6806.762    489.75645    21743.174    9.9817835 
    8440    728.96075   -6888.6414   -6807.3248    -280.2688    21733.238    9.9663098 
    8450    722.74611   -6888.4686   -6807.8452   -877.16694    21722.866    9.9623874 
    8460    708.54592   -6887.3488   -6808.3094   -1324.6967    21711.055    9.9574318 
    8470    707.21313    -6887.598   -6808.7074    -1249.986    21697.141    9.9409519 
[...]
   22890    708.69798   -6884.2562   -6805.1999    1279.0303    21656.327    21.385357 
   22900    716.01119   -6884.6885   -6804.8164    1320.0763    21634.153    21.357586 
   22910    711.42029   -6883.8518   -6804.4918    950.30494    21614.204    21.318858 
   22920    722.80612   -6884.8644   -6804.2343    196.28309    21595.827    21.269405 
   22930    716.56479   -6883.9714   -6804.0376   -121.30677    21577.914    21.220478 
   22940    711.20701   -6883.2287   -6803.8925   -455.14292    21559.855    21.175379 
   22950    724.84853   -6884.6368   -6803.7789   -957.31318    21541.088    21.129067 
   22960    732.53359   -6885.4284   -6803.7132   -857.10569    21520.893    21.090817 
   22970    711.49072   -6883.0483   -6803.6804    152.15436    21499.498    21.070567 
   22980    711.43276   -6883.0088   -6803.6474    683.29275    21478.345    21.064808 
   22990    729.85974   -6885.0369   -6803.6199    575.22302    21458.274    21.061602 
   23000    730.72465   -6885.1331   -6803.6197    571.54161    21439.228    21.047405 
   23010    734.84923   -6885.6396   -6803.6661    814.10707    21421.194    21.025272 
   23020    716.66717   -6883.6815   -6803.7362    1302.1363    21404.574    20.997692 
   23030    718.18068   -6883.9318   -6803.8177    1426.8032    21390.054    20.966716 
   23040     723.8505   -6884.6585   -6803.9119    1584.9425    21377.887     20.94726 
   23050    718.71877   -6884.1931   -6804.0189    1850.1918    21368.313    20.944609 
   23060    732.37963   -6885.8494   -6804.1513    2134.1785    21361.756    20.947885 
   23070    736.29414   -6886.4611   -6804.3264    2341.8917    21358.638    20.948439 
   23080    732.70373   -6886.2953   -6804.5611    2581.8186    21359.303    20.945693 
   23090    724.15445   -6885.6176    -6804.837    2719.8979    21364.123    20.946763 
   23100    727.53402   -6886.3095   -6805.1519    2546.6652    21373.286    20.954567 
   23110    723.43787   -6886.1958   -6805.4952    2019.9828    21386.501    20.969193 
   23120    723.28775   -6886.5455   -6805.8617    1511.9404    21402.993    20.990981 
   23130    725.59502   -6887.1878   -6806.2465    1275.4103    21421.982    21.023862 
   23140    725.24791   -6887.5616   -6806.6591     1424.914    21443.092    21.071858 
   23150    711.13334   -6886.4141   -6807.0862    1942.3036    21466.615     21.13031 
   23160     717.8494   -6887.5857   -6807.5085    1396.5727    21493.143    21.191511 
   23170    729.37684    -6889.287   -6807.9239    297.38201    21521.891    21.252011 
   23180    723.80673   -6889.0745   -6808.3327   -331.40586    21551.222    21.309498 
   23190    723.78155   -6889.4801   -6808.7412   -633.57393    21580.073     21.35483 
   23200    710.63388   -6888.4059   -6809.1336   -889.95998    21607.912    21.387164 
   23210    694.06394   -6886.9024   -6809.4785   -1491.5913    21634.235    21.409186 
   23220    673.38616   -6884.8451   -6809.7278   -2053.6528    21658.107    21.423888 
   23230    676.15876   -6885.2994   -6809.8729   -2455.2694    21678.603    21.430948 
   23240    683.35225   -6886.1622   -6809.9333   -2750.7317    21695.021    21.427198 
   23250    674.28819   -6885.1423   -6809.9244   -2451.1071    21706.978     21.41423 
   23260    681.81832   -6885.9158    -6809.858   -2247.8897    21714.834    21.404178 
   23270    694.21049   -6887.1839   -6809.7436   -1924.5635    21718.995    21.402411 
   23280    710.02815   -6888.8152   -6809.6105   -1833.0007    21719.899    21.398644 
   23290    712.19348   -6888.9293   -6809.4831   -1494.3466    21717.802     21.38772 
   23300    699.66602   -6887.4083   -6809.3595    -1327.365    21713.195    21.375736 
   23310    705.07298   -6887.8887   -6809.2368   -1698.1689     21706.31     21.35981 
   23320    691.54102   -6886.2479   -6809.1054   -2056.9625    21696.648    21.336298 
   23330    673.55992    -6884.093   -6808.9563   -2021.9488    21683.658    21.307656 
   23340     681.0708   -6884.7402   -6808.7658   -1770.9901    21667.366    21.266989 
   23350    684.87724    -6884.922    -6808.523   -1150.2734    21648.264     21.20441 
   23360    706.16668    -6887.033    -6808.259   -729.63532    21627.268    21.122677 
   23370    716.59303   -6887.9333   -6807.9963   -263.35141    21605.154    21.031948 
   23380    730.53284   -6889.2626   -6807.7705   -322.95587    21582.579    20.941973 
   23390    744.53479   -6890.6646   -6807.6106   -635.07795    21559.494    20.865686 
   23400    740.54924   -6890.1433   -6807.5339   -638.36072    21535.496    20.811806 
   23410    737.15767   -6889.7608   -6807.5298   -485.35661     21510.55    20.778253 
   23420    730.44313   -6889.0636   -6807.5816   -442.86549    21484.874    20.757086 
   23430    704.95894   -6886.2919   -6807.6526   -303.79709    21458.611    20.739052 
   23440    707.51929   -6886.6379    -6807.713    -339.6525    21431.939    20.711921 
   23450    716.86207   -6887.7303   -6807.7632   -257.62467    21404.846    20.674095 
   23460    710.61742   -6887.0789   -6807.8084    198.04043     21377.53     20.63893 
   23470    718.06099   -6887.9513   -6807.8505    384.53205    21350.607    20.617527 
   23480    729.13679   -6889.2406   -6807.9043    444.95057     21324.43    20.605433 
   23490    723.63711   -6888.7108    -6807.988    576.17656    21299.112    20.588797 
   23500    711.02237   -6887.3983   -6808.0827    901.21091    21274.887    20.557455 
   23510    722.15159   -6888.7376   -6808.1805    1020.5407    21252.206    20.514745 
   23520    721.30697   -6888.7559    -6808.293    1137.5535    21231.276    20.474195 
   23530     718.2721   -6888.5456   -6808.4213    1224.5339    21212.284    20.443734 
   23540    724.82674   -6889.4295   -6808.5739    864.37477    21195.253     20.42552 
   23550    717.28227   -6888.7591   -6808.7452    1036.4746    21179.761    20.412819 
   23560    720.08212   -6889.2588   -6808.9326    1793.7861    21166.077    20.400611 
   23570    711.94974   -6888.5513   -6809.1323    2452.8855    21155.275    20.388496 
   23580    700.08357   -6887.4292   -6809.3338    2618.0557    21148.329    20.371401 
   23590    710.27338   -6888.7721   -6809.5401    2497.1467    21145.482    20.350028 
   23600    702.91487   -6888.1586   -6809.7474    2966.6116    21146.691    20.332878 
   23610    701.38407   -6888.2004   -6809.9599    2835.8595    21152.463    20.326084 
   23620    700.57123   -6888.3115   -6810.1618    2261.9755    21162.628    20.335454 
   23630    704.30572   -6888.9173    -6810.351    1609.5082    21176.321    20.367471 
   23640    713.41272   -6890.1271   -6810.5449    1035.7809    21192.517     20.41849 
   23650    703.97135   -6889.2908   -6810.7617    786.15736    21210.344     20.47233 
   23660    691.11146   -6888.0883   -6810.9937     509.4441    21229.342    20.516189 
   23670    698.65921   -6889.1663   -6811.2298    29.480847    21249.036    20.540638 
   23680     702.1647   -6889.8102   -6811.4827   -384.39135    21268.698     20.55426 
   23690    684.63184    -6888.135   -6811.7632   -441.20341    21287.727    20.571436 
   23700     662.8164   -6885.9787   -6812.0405   -654.87375     21305.94    20.594032 
   23710    652.57534   -6885.0702   -6812.2745   -980.62289    21323.001    20.620306 
   23720    647.25128   -6884.6291   -6812.4273   -906.46847    21338.482    20.646671 
   23730    660.15942   -6886.1144   -6812.4726   -569.16767    21352.485    20.668272 
   23740    693.00157   -6889.7181   -6812.4128   -584.94893    21365.429    20.677865 
   23750    704.36244   -6890.8598   -6812.2871   -589.54709    21377.361    20.672678 
   23760    677.40289   -6887.6792   -6812.1139   -422.64406     21388.31    20.659266 
   23770     673.6544   -6887.0108   -6811.8636   -442.31991    21398.501    20.643905 
   23780    695.24543   -6889.0591   -6811.5034    -576.5997    21407.903    20.640593 
   23790    701.41284   -6889.3038   -6811.0602   -230.63914    21416.409    20.662778 
   23800     687.0783   -6887.2119   -6810.5673     28.30128    21424.472     20.70598 
   23810    690.83071   -6887.0807   -6810.0175    65.451154    21432.516    20.754785 
   23820    716.43724   -6889.3326    -6809.413    157.38453    21440.623    20.797095 
   23830    712.06903   -6888.2369   -6808.8045    571.17498    21448.995     20.83304 
   23840    720.36825   -6888.5917   -6808.2335    229.62417    21458.131     20.86348 
   23850    736.13224   -6889.8154   -6807.6988   -852.42133    21467.467    20.898544 
   23860    742.55447   -6890.0756   -6807.2426   -1373.2008    21475.447    20.944822 
   23870    728.02788   -6888.0923   -6806.8797   -1169.3174     21481.26    20.993357 
   23880    712.50772   -6886.0674   -6806.5861    -707.2498    21485.189    21.033443 
   23890    712.17904   -6885.7674   -6806.3227   -354.12414    21487.924    21.061682 
   23900    714.00142   -6885.7185   -6806.0706   -13.248724    21490.069    21.079892 
   23910     721.0338   -6886.2625   -6805.8301   -282.57492    21492.091    21.090225 
   23920    733.66859   -6887.4515   -6805.6097   -880.03455    21493.597    21.105577 
   23930    750.15195   -6889.1177   -6805.4371   -1094.7521    21493.725     21.14354 
   23940    770.05368   -6891.2571   -6805.3564   -758.63602    21492.157    21.202359 
   23950    746.30707   -6888.6452   -6805.3935   -84.215313     21489.43    21.265181 
   23960    717.62515   -6885.5568   -6805.5047    89.024154    21486.529    21.315898 
   23970     722.7686   -6886.2718   -6805.6459   -206.03155    21483.707    21.347351 
   23980    713.75177   -6885.4195   -6805.7995    169.12583    21480.712    21.372764 
   23990     715.8933   -6885.8306   -6805.9716    366.14383     21477.99    21.403021 
   24000    719.73988   -6886.4429   -6806.1548    35.128813    21475.801    21.440145 
   24010    728.88207   -6887.6761   -6806.3682   -179.47782    21473.708    21.481946 
   24020    715.87686   -6886.4651    -6806.608    135.19707    21471.444    21.520475 
   24030    705.17963   -6885.5341   -6806.8702    289.22943    21469.393    21.550003 
   24040    695.03953   -6884.6593   -6807.1266    133.57775    21467.794    21.568994 
   24050    698.59548   -6885.3005   -6807.3711   -414.22064    21466.378    21.573874 
   24060    692.41144   -6884.8323   -6807.5927   -874.34461    21464.319    21.569039 
   24070    692.47043   -6885.0336   -6807.7874   -630.17562    21460.971    21.564684 
   24080    707.88812   -6886.9153   -6807.9493   -138.39359    21456.666    21.572094 
   24090    731.94431   -6889.7697   -6808.1202    175.30739    21452.163    21.593149 
   24100    733.33719   -6890.1516   -6808.3467    636.98907    21448.039    21.620444 
   24110    727.67616   -6889.8194   -6808.6461    1029.4557    21444.994    21.648838 
   24120     727.7157   -6890.1956   -6809.0178    903.90623    21443.568    21.672708 
   24130    723.38242   -6890.1626   -6809.4682    783.69673     21443.63    21.685549 
   24140    702.78041   -6888.3755   -6809.9793    1118.4844    21445.031    21.691941 
   24150    699.62261   -6888.5536   -6810.5097     1226.525    21448.204    21.704118 
   24160    720.59386   -6891.4602   -6811.0769    589.19809    21453.208     21.72781 
   24170    701.38451   -6889.9122   -6811.6717    225.49197    21459.168     21.75957 
   24180    684.55953   -6888.6101   -6812.2464    79.010278    21465.452     21.79072 
   24190    687.56079    -6889.464   -6812.7656    8.2726742    21471.794    21.813644 
   24200    691.87308   -6890.4075    -6813.228     230.0006    21478.102    21.829959 
   24210    682.71324   -6889.7816   -6813.6239    1052.2399    21484.803    21.847057 
   24220    688.22557   -6890.7157   -6813.9431    1499.9414    21493.076    21.867633 
   24230    704.35659   -6892.7813   -6814.2093    1335.2854    21503.588    21.888306 
   24240    695.30105   -6892.0008   -6814.4389    916.65825    21516.103     21.90205 
   24250    690.81173   -6891.6787   -6814.6176   -19.861678    21529.883    21.900573 
   24260    702.97534   -6893.1609    -6814.743   -1010.4911    21543.472     21.88611 
   24270    708.46799   -6893.8631   -6814.8325   -2032.1838    21555.244    21.867062 
   24280    703.37039   -6893.3662   -6814.9042   -2659.8544    21563.628    21.845619 
   24290    701.60577   -6893.2217   -6814.9566   -2651.5269    21567.669    21.826728 
   24300    708.54782   -6894.0261   -6814.9865   -2158.6676    21567.434    21.815999 
   24310     712.6273   -6894.5032   -6815.0086   -1844.3241    21563.668    21.818081 
   24320    698.70614   -6892.9668   -6815.0251   -1595.6968    21556.962    21.827984 
   24330    692.34649   -6892.2528   -6815.0205   -1562.3412    21547.721    21.822891 
   24340    684.85479   -6891.3681   -6814.9715   -1385.9539     21536.11     21.79558 
   24350    667.58182   -6889.3352   -6814.8655    -962.0112    21522.469    21.760402 
   24360    661.26064   -6888.4355   -6814.6709   -760.89304    21507.458    21.721899 
   24370    674.61796   -6889.6354   -6814.3807   -705.59993    21491.428    21.679363 
   24380    667.54902   -6888.4646   -6813.9985   -201.17487    21474.595    21.643451 
   24390    670.69058   -6888.3587   -6813.5422    120.08473    21457.689    21.631978 
   24400    682.07935   -6889.1158   -6813.0289    34.007924     21441.19    21.647582 
   24410    689.88276    -6889.461   -6812.5035   -33.382398     21425.02    21.676551 
   24420    696.89512   -6889.7525   -6812.0128    -289.1421    21409.022    21.706349 
   24430    694.91323   -6889.1041   -6811.5855   -344.72074    21392.867    21.730156 
   24440     698.3735    -6889.135   -6811.2303   -211.06957    21376.451    21.741487 
   24450    705.84131   -6889.6814   -6810.9437    223.57247    21360.017    21.738247 
   24460    710.34187   -6889.9532   -6810.7135    603.98982    21344.206     21.72634 
   24470    710.78322   -6889.8244   -6810.5355    668.43448    21329.567    21.716734 
   24480    714.02914   -6890.0449   -6810.3938    706.07955    21316.245    21.711339 
   24490    726.71798   -6891.3535    -6810.287    779.39461     21304.26    21.706249 
   24500    720.08742   -6890.5451   -6810.2183    1433.2562    21293.799    21.699776 
   24510    701.67951     -6888.44   -6810.1666    2259.2072    21285.813    21.694934 
   24520    702.87307    -6888.511   -6810.1045    2402.3399    21281.433      21.6967 
   24530    715.64709   -6889.8654   -6810.0339    2202.0537    21280.895    21.711493 
   24540     718.2926   -6890.0987   -6809.9721    2180.6119    21283.899    21.752987 
   24550    713.44749   -6889.5145   -6809.9284    2429.4432    21290.365    21.828076 
   24560    717.55229   -6889.9445   -6809.9004     2692.416    21300.591     21.92186 
   24570    715.89177   -6889.7469   -6809.8881    2585.7395    21314.896    22.020216 
   24580    709.56162    -6889.037   -6809.8843    1827.1209    21333.012    22.115238 
   24590    709.18225   -6888.9773    -6809.867     594.4558    21353.695    22.201687 
   24600    702.93928   -6888.2297   -6809.8158   -417.51267     21375.05    22.276838 
   24610    710.49694   -6888.9946   -6809.7376   -1049.2269    21395.449    22.339255 
   24620    710.32031   -6888.8712   -6809.6339   -1369.7317    21413.885     22.39211 
   24630    716.64512   -6889.4662   -6809.5233   -1345.6462    21429.879    22.437211 
   24640    720.18459   -6889.7543   -6809.4166   -1245.2087    21443.465    22.474342 
   24650    721.51487   -6889.8122   -6809.3261   -1655.7163    21454.757    22.504273 
   24660     722.1642   -6889.8218   -6809.2633   -2099.4867    21463.198    22.527043 
   24670    701.45686   -6887.4645    -6809.216   -1619.6027    21468.277    22.542725 
   24680    702.83467   -6887.5608   -6809.1585   -1253.5091     21470.63      22.5546 
   24690    715.08013   -6888.8447   -6809.0765   -1117.1248     21470.89    22.564898 
   24700     718.6114   -6889.1548   -6808.9926   -992.99634    21469.351    22.570645 
   24710    715.59381   -6888.7445   -6808.9189   -918.54303    21466.223     22.57635 
   24720    702.50574   -6887.2064   -6808.8409   -567.03082    21461.729    22.589427 
   24730    718.60065   -6888.9113   -6808.7503   -544.83306    21456.344    22.602083 
   24740    740.84476   -6891.3041   -6808.6618   -930.74476    21450.125    22.606673 
   24750    741.12456   -6891.3009   -6808.6273   -1132.4345    21442.531     22.60093 
   24760    720.34527   -6889.0013   -6808.6457   -744.75061    21433.329    22.581749 
   24770    725.65538   -6889.6427   -6808.6947   -936.28259    21422.966    22.550875 
   24780    743.24177   -6891.6955   -6808.7857   -1238.0508    21411.247    22.518608 
   24790    728.06294   -6890.1649   -6808.9484   -752.11893    21397.853    22.486657 
   24800     695.5679   -6886.7356    -6809.144    214.17678    21383.556    22.454241 
   24810    691.75714   -6886.4855    -6809.319    544.62224    21369.735    22.422695 
   24820    700.45841   -6887.6085   -6809.4713     438.4296     21356.95    22.395334 
   24830     695.2418   -6887.1681   -6809.6128    291.69005    21345.079    22.376767 
   24840    679.05099   -6885.4777   -6809.7286    434.86215    21333.923    22.367009 
   24850    667.89439   -6884.2835   -6809.7789    701.09381    21323.673    22.355658 
   24860    683.16248   -6885.9578     -6809.75    432.01712    21314.609      22.3348 
   24870    702.24899    -6887.993   -6809.6561    55.476481    21306.365    22.308868 
   24880     706.0469   -6888.2766    -6809.516   -112.75432    21298.389     22.27972 
   24890    715.85587   -6889.2014   -6809.3466   -346.98517    21290.341    22.245178 
   24900    720.54383   -6889.5381   -6809.1604   -225.34489     21281.91    22.212464 
   24910    709.33213   -6888.0884   -6808.9614    275.32345    21273.323    22.192465 
   24920    713.64818   -6888.3483   -6808.7398    397.79867    21265.246    22.184783 
   24930    718.96483   -6888.6921   -6808.4904    438.32947    21257.919    22.179805 
   24940    713.18318   -6887.7835   -6808.2269    572.78956    21251.432    22.172431 
   24950    724.85088   -6888.8077   -6807.9495    488.91715    21245.925    22.172382 
   24960    746.98852   -6891.0029   -6807.6752    350.12634    21241.264    22.181832 
   24970     725.2123   -6888.3247   -6807.4262    839.47569    21237.347    22.190329 
   24980    727.17957   -6888.3182   -6807.2002    1041.2428    21234.775    22.185444 
   24990    744.60827   -6890.0423   -6806.9801    1006.1553    21233.867    22.164975 
   25000    747.41259   -6890.1821   -6806.8071    1168.6448    21234.607    22.135364 
Loop time of 15431.7 on 16 procs for 20000 steps with 864 atoms

Performance: 0.112 ns/day, 214.329 hours/ns, 1.296 timesteps/s
97.4% CPU use with 16 MPI tasks x 1 OpenMP threads

MPI task timing breakdown:
Section |  min time  |  avg time  |  max time  |%varavg| %total
---------------------------------------------------------------
Pair    | 10753      | 13027      | 15148      |1168.6 | 84.42
Bond    | 0.0029171  | 0.0055316  | 0.0098436  |   2.9 |  0.00
Neigh   | 0.19997    | 0.27549    | 0.38288    |  10.1 |  0.00
Comm    | 251.33     | 1726.2     | 4631.2     |3081.9 | 11.19
Output  | 1.3652     | 1.4277     | 2.3591     |  20.1 |  0.01
Modify  | 30.634     | 676.97     | 1211.4     |1930.3 |  4.39
Other   |            | 0.108      |            |       |  0.00

Nlocal:        54.0000 ave          71 max          42 min
Histogram: 3 2 2 1 2 2 0 2 1 1
Nghost:        482.000 ave         550 max         432 min
Histogram: 3 4 0 1 0 1 5 0 1 1
Neighs:         0.00000 ave           0 max           0 min
Histogram: 16 0 0 0 0 0 0 0 0 0
FullNghs:      2249.38 ave        3615 max        1405 min
Histogram: 5 1 2 1 2 1 1 0 2 1

Total # of neighbors = 35990
Ave neighs/atom = 41.655093
Ave special neighs/atom = 0.0000000
Neighbor list builds = 2000
Dangerous builds = 2000
unfix   3
                
Total wall time: 5:20:19
