LAMMPS (29 Sep 2021 - Update 3)
OMP_NUM_THREADS environment is not set. Defaulting to 1 thread. (src/comm.cpp:98)
  using 1 OpenMP thread(s) per MPI task
units	metal
atom_style	full

read_data	mixed.data
Reading data file ...
  orthogonal box = (0.0000000 0.0000000 0.0000000) to (15.969932 15.719106 81.083077)
  2 by 1 by 8 MPI processor grid
  reading atoms ...
  864 atoms
Finding 1-2 1-3 1-4 neighbors ...
  special bond factors lj:    0        0        0       
  special bond factors coul:  0        0        0       
     0 = max # of 1-2 neighbors
     0 = max # of 1-3 neighbors
     0 = max # of 1-4 neighbors
     1 = max # of special neighbors
  special bonds CPU = 0.005 seconds
  read_data CPU = 0.023 seconds

pair_style	quip
pair_coeff	* * /ocean/projects/cts180021p/wuziqi/clease/mint-PD/PhaseDiagram-Clease/Liquid/GAP_potential/gap_LiKCl.xml "Potential xml_label=GAP_2021_9_27_0_1_17_37_618" 17 19 3

neighbor	0.3 bin
neigh_modify	delay 10

timestep	0.001
compute	msd all msd
thermo_style	custom step temp pe etotal press vol c_msd[4]
thermo	10
dump	1 all custom 10 xyz-mix.dump type id x y z
dump	2 all custom 10 force-mix.dump type id fx fy fz

fix     1 all nve
run     2000
Neighbor list info ...
  update every 1 steps, delay 10 steps, check yes
  max neighbors/atom: 2000, page size: 100000
  master list distance cutoff = 6.22
  ghost atom cutoff = 6.22
  binsize = 3.11, bins = 6 6 27
  1 neighbor lists, perpetual/occasional/extra = 1 0 0
  (1) pair quip, perpetual
      attributes: full, newton on
      pair build: full/bin
      stencil: full/bin/3d
      bin: standard
Per MPI rank memory allocation (min/avg/max) = 8.888 | 8.903 | 8.913 Mbytes
Step Temp PotEng TotEng Press Volume c_msd[4] 
       0            0   -6930.8241   -6930.8241   -4495.9065    20354.533            0 
      10    65.904237   -6938.1841   -6930.8324   -5379.5912    20354.533 0.0005000384 
      20    168.73131   -6949.6632    -6930.841   -6364.5261    20354.533 0.0061479459 
      30    200.57733   -6953.2127    -6930.838   -5696.6671    20354.533  0.020662009 
      40    199.55606   -6953.0935   -6930.8327   -4580.1506    20354.533   0.03833664 
      50    226.88579   -6956.1474   -6930.8379   -4419.7801    20354.533  0.051806208 
      60    238.47957   -6957.4392   -6930.8365   -4645.7272    20354.533  0.061424452 
      70    236.06355   -6957.1692   -6930.8359    -4807.043    20354.533  0.069853138 
      80    232.99362   -6956.8259   -6930.8351    -5036.908    20354.533  0.079308594 
      90    234.23747   -6956.9654   -6930.8358   -5260.6038    20354.533  0.090830495 
     100    232.00556   -6956.7159   -6930.8353   -5208.0306    20354.533   0.10432197 
     110    232.79067   -6956.8033   -6930.8352   -5031.3164    20354.533   0.11840709 
     120    238.30149    -6957.419   -6930.8361   -4942.2097    20354.533   0.13201584 
     130    238.74514   -6957.4687   -6930.8363   -4988.8033    20354.533   0.14538478 
     140    232.54984   -6956.7771   -6930.8358   -4942.4536    20354.533   0.15867927 
     150    225.40044   -6955.9792   -6930.8355   -4787.8719    20354.533   0.17110203 
     160    224.38726   -6955.8659   -6930.8352   -4620.0724    20354.533    0.1817825 
     170    231.86358   -6956.7009   -6930.8362   -4442.3359    20354.533   0.19072597 
     180    237.58036   -6957.3391   -6930.8366   -4192.2572    20354.533   0.19889867 
     190    235.69365   -6957.1279    -6930.836   -3927.7806    20354.533   0.20710191 
     200    234.44619   -6956.9885   -6930.8356   -3773.8119    20354.533   0.21513007 
     210    236.73114   -6957.2437    -6930.836   -3777.5502    20354.533   0.22305549 
     220    238.14425   -6957.4012   -6930.8359   -3899.9101    20354.533    0.2315521 
     230     238.4388   -6957.4341   -6930.8359   -4006.5782    20354.533   0.24098695 
     240    239.23886    -6957.523   -6930.8356   -3984.7528    20354.533   0.25141959 
     250     242.0724   -6957.8401   -6930.8366   -3793.3442    20354.533   0.26265129 
     260       239.05   -6957.5024    -6930.836   -3540.3897    20354.533   0.27417391 
     270    235.84511    -6957.145   -6930.8361   -3272.6541    20354.533   0.28493922 
     280    231.62838   -6956.6748   -6930.8363   -2948.2435    20354.533   0.29437431 
     290    226.51317   -6956.1028    -6930.835   -2633.8875    20354.533   0.30220439 
     300    232.88912   -6956.8151    -6930.836   -2478.1682    20354.533   0.30835486 
     310    239.65399   -6957.5709   -6930.8371   -2317.7128    20354.533   0.31386348 
     320    236.98534   -6957.2718   -6930.8357   -2020.1819    20354.533   0.31985126 
     330    235.73864   -6957.1329   -6930.8359   -1957.4113    20354.533   0.32664959 
     340    236.09186   -6957.1723   -6930.8359   -2003.6376    20354.533   0.33435107 
     350    237.19352   -6957.2955   -6930.8363   -2145.8328    20354.533   0.34289663 
     360     235.6501   -6957.1226   -6930.8355   -2186.0282    20354.533   0.35153924 
     370      237.245   -6957.3009   -6930.8359   -2246.4379    20354.533   0.35886165 
     380     239.0727   -6957.5047   -6930.8358   -2396.5837    20354.533   0.36451066 
     390    241.64207   -6957.7913   -6930.8358   -2701.0958    20354.533   0.36907283 
     400    244.68963   -6958.1321   -6930.8366    -3058.184    20354.533   0.37340775 
     410    240.84575   -6957.7024   -6930.8357   -3233.9135    20354.533   0.37836011 
     420    237.91038    -6957.375   -6930.8357   -3296.1667    20354.533    0.3837999 
     430    237.53548   -6957.3335    -6930.836     -3297.92    20354.533   0.38923076 
     440    236.65311   -6957.2351   -6930.8361   -3132.9159    20354.533   0.39408345 
     450    236.54722   -6957.2227   -6930.8355   -2838.3736    20354.533   0.39819744 
     460    240.22636   -6957.6339   -6930.8363   -2750.9298    20354.533   0.40204023 
     470    240.52465   -6957.6669    -6930.836   -2995.4918    20354.533   0.40599969 
     480    237.66852   -6957.3482   -6930.8359   -3342.9489    20354.533   0.40967234 
     490     233.8587   -6956.9231   -6930.8358   -3484.3142    20354.533   0.41268728 
     500    232.08796   -6956.7258   -6930.8361   -3205.4816    20354.533   0.41521326 
     510    230.70203   -6956.5715   -6930.8364   -2716.5526    20354.533   0.41731564 
     520    228.05602   -6956.2759   -6930.8359   -2363.5724    20354.533   0.41870774 
     530    227.97164    -6956.267   -6930.8365   -2215.6832    20354.533   0.41939371 
     540    224.82248   -6955.9152   -6930.8359   -2142.5726    20354.533   0.41965215 
     550    224.12424   -6955.8368   -6930.8354   -2230.4398    20354.533   0.41896539 
     560    230.14975   -6956.5094   -6930.8358   -2549.6413    20354.533   0.41694428 
     570    236.18881   -6957.1833   -6930.8361   -2919.3179    20354.533   0.41431605 
     580    239.11248   -6957.5092   -6930.8358   -3311.7801    20354.533   0.41218239 
     590    240.41038    -6957.654   -6930.8359   -3417.9605    20354.533   0.41128732 
     600     241.9108   -6957.8213   -6930.8358   -3319.9933    20354.533   0.41181297 
     610    244.71998   -6958.1355   -6930.8366   -3218.6172    20354.533   0.41378595 
     620     241.0794   -6957.7291   -6930.8363   -3147.9995    20354.533   0.41727735 
     630    235.50013   -6957.1059   -6930.8355   -3135.0665    20354.533   0.42154918 
     640    235.11112   -6957.0634   -6930.8364   -3257.6948    20354.533   0.42544554 
     650    231.17765   -6956.6238   -6930.8356   -3363.2824    20354.533   0.42831027 
     660    230.96587      -6956.6   -6930.8354    -3278.616    20354.533   0.42962018 
     670    236.71051   -6957.2418   -6930.8364   -3057.6575    20354.533   0.43008462 
     680    237.89077   -6957.3735   -6930.8365   -2729.6334    20354.533   0.43147958 
     690    233.77068   -6956.9134    -6930.836   -2455.8007    20354.533   0.43467882 
     700    232.73214   -6956.7972   -6930.8356   -2458.1317    20354.533   0.43896836 
     710     238.6713   -6957.4612    -6930.837     -2772.14    20354.533   0.44306523 
     720    238.40713   -6957.4307    -6930.836    -2807.083    20354.533   0.44626276 
     730     240.4682   -6957.6606    -6930.836   -2649.5036    20354.533   0.44805059 
     740    245.36669   -6958.2082   -6930.8372   -2598.8991    20354.533   0.44927166 
     750    241.62154   -6957.7892    -6930.836   -2531.0184    20354.533   0.45180545 
     760    240.83361   -6957.7015   -6930.8361   -2663.8574    20354.533   0.45609454 
     770    242.81641   -6957.9232   -6930.8366   -2904.7405    20354.533   0.46149917 
     780    240.55873   -6957.6716   -6930.8369   -3011.4883    20354.533   0.46731331 
     790    234.48344    -6956.992    -6930.835   -2984.9723    20354.533   0.47270083 
     800    241.36903   -6957.7616   -6930.8365   -3043.6074    20354.533   0.47702973 
     810    248.02611   -6958.5044   -6930.8367   -3212.7271    20354.533   0.48113406 
     820    247.07524   -6958.3983   -6930.8367   -3298.0857    20354.533   0.48604281 
     830    241.62282   -6957.7892   -6930.8358   -3451.0521    20354.533   0.49200069 
     840    241.09937   -6957.7309   -6930.8359   -3767.5583    20354.533    0.4980224 
     850    243.86884   -6958.0407   -6930.8367   -3969.0277    20354.533   0.50315689 
     860    240.67295   -6957.6839   -6930.8364   -3878.9651    20354.533   0.50749313 
     870    234.88256   -6957.0377   -6930.8362   -3705.4216    20354.533   0.51123394 
     880     230.9712   -6956.6008   -6930.8356   -3732.8653    20354.533   0.51418617 
     890    234.71187   -6957.0191   -6930.8366   -3903.3458    20354.533   0.51649556 
     900    236.69755   -6957.2408   -6930.8368   -4096.5729    20354.533   0.51925856 
     910    234.14135   -6956.9543   -6930.8355   -4214.9524    20354.533   0.52270274 
     920     239.2214   -6957.5215    -6930.836    -4371.806    20354.533    0.5260843 
     930    246.23434   -6958.3046   -6930.8368   -4388.3174    20354.533   0.52947161 
     940    244.93011   -6958.1585   -6930.8361    -4140.633    20354.533    0.5331014 
     950    244.54566   -6958.1146   -6930.8351   -3874.4856    20354.533   0.53608506 
     960     253.5944   -6959.1267   -6930.8378   -3771.8165    20354.533   0.53803089 
     970     248.3829   -6958.5442   -6930.8367   -3524.3442    20354.533   0.53986141 
     980    238.35135   -6957.4243   -6930.8358   -3260.4338    20354.533   0.54101785 
     990    236.50322   -6957.2181   -6930.8358   -3175.8957    20354.533   0.54134372 
    1000    241.19481   -6957.7423   -6930.8367   -3304.4267    20354.533   0.54225539 
    1010    241.95562   -6957.8272   -6930.8367   -3391.2596    20354.533   0.54502288 
    1020    240.16869   -6957.6269   -6930.8357   -3447.0496    20354.533   0.54930268 
    1030    245.53617   -6958.2267   -6930.8368   -3456.4918    20354.533   0.55419445 
    1040    247.77076    -6958.476   -6930.8368   -3298.5887    20354.533   0.55950896 
    1050     244.2442   -6958.0816   -6930.8358   -3136.4369    20354.533   0.56417367 
    1060    244.98518   -6958.1647   -6930.8363    -3248.508    20354.533   0.56688242 
    1070    245.91228   -6958.2687   -6930.8368   -3519.1406    20354.533   0.56812185 
    1080    243.86214    -6958.039   -6930.8358   -3692.2455    20354.533   0.56934968 
    1090    246.84293   -6958.3726   -6930.8369   -3906.5524    20354.533   0.57178329 
    1100      244.881   -6958.1533   -6930.8365   -4089.2355    20354.533   0.57651628 
    1110    240.43499   -6957.6569    -6930.836   -4077.0823    20354.533    0.5832495 
    1120    237.92872   -6957.3775   -6930.8362   -4003.4461    20354.533   0.59023617 
    1130    236.51172   -6957.2189   -6930.8357   -4042.4172    20354.533   0.59550452 
    1140    238.96444   -6957.4936   -6930.8368   -4040.0227    20354.533   0.59831056 
    1150    235.78148   -6957.1379   -6930.8361   -3879.2914    20354.533   0.59921996 
    1160    234.20341   -6956.9615   -6930.8358   -3837.8249    20354.533    0.5985221 
    1170    240.41902   -6957.6544   -6930.8353    -3935.141    20354.533   0.59722217 
    1180    255.54411   -6959.3435   -6930.8372     -4092.55    20354.533   0.59743217 
    1190    258.99242   -6959.7285   -6930.8375   -4046.2257    20354.533    0.6011544 
    1200    248.88394   -6958.5986   -6930.8352   -3714.2841    20354.533   0.60762836 
    1210    248.47025   -6958.5542    -6930.837   -3470.6197    20354.533   0.61448368 
    1220    244.95446   -6958.1613   -6930.8363   -3177.7538    20354.533   0.62050251 
    1230     241.8534   -6957.8153   -6930.8362   -3046.6572    20354.533   0.62473384 
    1240    239.93171   -6957.6017    -6930.837   -2953.8402    20354.533   0.62763822 
    1250    233.26136   -6956.8559   -6930.8352   -2777.3686    20354.533   0.63038166 
    1260    237.93988   -6957.3787   -6930.8361   -2775.1391    20354.533    0.6330371 
    1270    246.35675   -6958.3182   -6930.8368   -2888.4422    20354.533   0.63643977 
    1280    248.45813   -6958.5525   -6930.8366   -2920.0425    20354.533   0.64183599 
    1290    245.47675   -6958.2198   -6930.8365   -2685.1116    20354.533   0.64908358 
    1300    241.63357   -6957.7906    -6930.836   -2354.7632    20354.533   0.65669456 
    1310    242.43427   -6957.8804   -6930.8365   -2080.8148    20354.533   0.66291632 
    1320    245.28186   -6958.1979   -6930.8364   -1915.3295    20354.533    0.6669735 
    1330    248.60459   -6958.5691   -6930.8369   -2012.6907    20354.533   0.66938419 
    1340    247.35187   -6958.4291   -6930.8367   -2148.5782    20354.533   0.67162517 
    1350    244.12194   -6958.0683   -6930.8361   -1975.6824    20354.533   0.67460298 
    1360    246.17117   -6958.2975   -6930.8367   -1695.7314    20354.533   0.67795806 
    1370    247.81913   -6958.4815   -6930.8369   -1406.6961    20354.533   0.68155459 
    1380    246.54204   -6958.3387   -6930.8366   -1365.9532    20354.533   0.68550067 
    1390    245.37096   -6958.2083   -6930.8368   -1609.7263    20354.533   0.68946972 
    1400    243.36629   -6957.9841   -6930.8362   -2040.6718    20354.533   0.69316197 
    1410    243.94371   -6958.0489   -6930.8367    -2492.182    20354.533   0.69632692 
    1420    241.91407   -6957.8222   -6930.8364   -2641.5513    20354.533   0.69908731 
    1430    240.29252    -6957.641   -6930.8361   -2738.6597    20354.533   0.70169952 
    1440    243.00906   -6957.9446   -6930.8366   -2920.7186    20354.533   0.70454594 
    1450    244.25454   -6958.0838   -6930.8369   -3048.4377    20354.533   0.70795341 
    1460    242.09952    -6957.843   -6930.8364   -2976.5792    20354.533   0.71130224 
    1470    243.45842   -6957.9943   -6930.8362   -3081.8274    20354.533    0.7132231 
    1480    250.70065   -6958.8033   -6930.8373   -3338.8349    20354.533   0.71370178 
    1490    252.18388   -6958.9685    -6930.837   -3376.1382    20354.533    0.7144344 
    1500    251.43885   -6958.8853   -6930.8369   -3315.8008    20354.533   0.71637247 
    1510    251.24938    -6958.864   -6930.8368   -3301.7557    20354.533   0.71942223 
    1520    249.70733   -6958.6922    -6930.837   -3282.0336    20354.533   0.72323431 
    1530    244.44696   -6958.1054    -6930.837   -3302.2244    20354.533   0.72763008 
    1540    236.75683   -6957.2464   -6930.8358   -3274.9713    20354.533    0.7323608 
    1550    237.57971   -6957.3389   -6930.8365   -3428.4116    20354.533   0.73683196 
    1560    241.15015   -6957.7371   -6930.8364   -3593.4236    20354.533   0.74115804 
    1570    245.97302   -6958.2754   -6930.8368   -3733.6516    20354.533   0.74547586 
    1580    248.38573   -6958.5448    -6930.837   -3697.1233    20354.533   0.74963233 
    1590    246.86432   -6958.3746   -6930.8366   -3466.8015    20354.533   0.75351214 
    1600     247.7118   -6958.4687    -6930.836   -3388.9239    20354.533   0.75677589 
    1610    253.82537   -6959.1519   -6930.8373    -3531.034    20354.533   0.75955216 
    1620    251.92871   -6958.9401   -6930.8371   -3648.0728    20354.533   0.76294914 
    1630    244.66821   -6958.1291    -6930.836   -3657.5504    20354.533   0.76703359 
    1640    244.28177   -6958.0866   -6930.8366   -3671.0399    20354.533   0.77099433 
    1650    244.83575   -6958.1483   -6930.8365   -3788.3144    20354.533   0.77508445 
    1660    246.40424   -6958.3232   -6930.8364    -3813.853    20354.533   0.77989624 
    1670     250.2724    -6958.755   -6930.8367   -3565.9239    20354.533   0.78529205 
    1680    252.16532   -6958.9666   -6930.8372   -3320.4462    20354.533   0.79034429 
    1690    248.06278   -6958.5083   -6930.8366    -3241.467    20354.533   0.79410211 
    1700    246.18953   -6958.2989   -6930.8361   -3435.3007    20354.533   0.79613512 
    1710    251.37963   -6958.8788   -6930.8371   -3765.1983    20354.533   0.79697816 
    1720    252.49637   -6959.0036   -6930.8373   -4015.6546    20354.533   0.79809077 
    1730    246.19105   -6958.2991   -6930.8361   -4012.8085    20354.533   0.80001418 
    1740    244.72061   -6958.1349   -6930.8359   -3836.2711    20354.533   0.80174398 
    1750    250.77886   -6958.8116   -6930.8368   -3664.5304    20354.533   0.80300604 
    1760    253.23106   -6959.0851   -6930.8368   -3574.9487    20354.533   0.80474848 
    1770     250.9182   -6958.8268   -6930.8365   -3643.0638    20354.533   0.80759401 
    1780    248.19059    -6958.522   -6930.8359    -3925.933    20354.533   0.81194222 
    1790    251.50586   -6958.8923   -6930.8365   -4358.7518    20354.533   0.81788965 
    1800    254.74644   -6959.2547   -6930.8373   -4555.0094    20354.533   0.82537267 
    1810    250.83969   -6958.8178   -6930.8362   -4276.5786    20354.533   0.83331392 
    1820     251.8855   -6958.9345   -6930.8362   -4012.9598    20354.533   0.83972246 
    1830      255.594   -6959.3496   -6930.8377   -3901.3718    20354.533   0.84445553 
    1840    246.70995   -6958.3569   -6930.8361   -3626.6691    20354.533   0.84851616 
    1850    241.86654   -6957.8157   -6930.8351   -3456.7016    20354.533   0.85180041 
    1860    250.43531   -6958.7737   -6930.8372    -3514.864    20354.533    0.8548436 
    1870    251.67809   -6958.9117   -6930.8366    -3317.435    20354.533   0.85904271 
    1880    249.74232   -6958.6953   -6930.8361   -2814.4162    20354.533   0.86408884 
    1890    251.03758   -6958.8407    -6930.837   -2598.2462    20354.533   0.86903478 
    1900    247.47063   -6958.4421   -6930.8364   -2762.2368    20354.533   0.87371783 
    1910    246.41436   -6958.3238   -6930.8359   -3170.3298    20354.533   0.87809892 
    1920    252.32808   -6958.9847   -6930.8371   -3481.0709    20354.533    0.8826292 
    1930    251.70282   -6958.9148    -6930.837   -3522.0143    20354.533   0.88826081 
    1940    246.41342   -6958.3234   -6930.8356   -3409.4835    20354.533   0.89502972 
    1950     251.5574   -6958.8983   -6930.8367   -3383.3627    20354.533   0.90192896 
    1960    256.70331    -6959.473   -6930.8374   -3284.7665    20354.533   0.90797257 
    1970    251.99325   -6958.9465   -6930.8363   -3170.8424    20354.533   0.91214044 
    1980    249.36931   -6958.6536    -6930.836    -3268.664    20354.533   0.91382089 
    1990    253.19383   -6959.0808   -6930.8367   -3484.4565    20354.533   0.91429439 
    2000    255.75062   -6959.3664    -6930.837   -3645.8324    20354.533   0.91593526 
Loop time of 1629.65 on 16 procs for 2000 steps with 864 atoms

Performance: 0.106 ns/day, 226.341 hours/ns, 1.227 timesteps/s
97.6% CPU use with 16 MPI tasks x 1 OpenMP threads

MPI task timing breakdown:
Section |  min time  |  avg time  |  max time  |%varavg| %total
---------------------------------------------------------------
Pair    | 684.88     | 1294.4     | 1628.7     | 667.5 | 79.43
Bond    | 0.00020313 | 0.00062633 | 0.0014298  |   0.0 |  0.00
Neigh   | 0.018155   | 0.028237   | 0.036679   |   3.5 |  0.00
Comm    | 0.71104    | 318.36     | 906.96     |1313.0 | 19.54
Output  | 0.13093    | 8.5611     | 19.224     | 255.2 |  0.53
Modify  | 0.010515   | 0.01211    | 0.015748   |   1.2 |  0.00
Other   |            | 8.301      |            |       |  0.51

Nlocal:        54.0000 ave          71 max          39 min
Histogram: 3 2 1 1 0 4 1 0 3 1
Nghost:        497.125 ave         591 max         387 min
Histogram: 1 2 1 1 1 3 2 1 2 2
Neighs:         0.00000 ave           0 max           0 min
Histogram: 16 0 0 0 0 0 0 0 0 0
FullNghs:      2382.00 ave        3956 max        1259 min
Histogram: 3 2 2 0 2 3 1 1 1 1

Total # of neighbors = 38112
Ave neighs/atom = 44.111111
Ave special neighs/atom = 0.0000000
Neighbor list builds = 199
Dangerous builds = 198
unfix   1

velocity    all create 600.0 1312343 dist gaussian
fix     2 all npt temp 600.0 600.0 $(100.0*dt) aniso 0.0 1.01325 $(1000.0*dt)
fix     2 all npt temp 600.0 600.0 0.10000000000000000555 aniso 0.0 1.01325 $(1000.0*dt)
fix     2 all npt temp 600.0 600.0 0.10000000000000000555 aniso 0.0 1.01325 1
run     3000
Per MPI rank memory allocation (min/avg/max) = 8.897 | 8.905 | 8.914 Mbytes
Step Temp PotEng TotEng Press Volume c_msd[4] 
    2000          600   -6959.3664   -6892.4355   -1630.6862    20354.533   0.91593526 
    2010    542.28724   -6952.9112   -6892.4182    -323.8769     20353.33   0.92445799 
    2020    451.01613   -6942.6048   -6892.2933    1674.3913    20351.665   0.93933634 
    2030    421.23284   -6938.9551    -6891.966     2373.488    20352.695   0.95153119 
    2040    416.38091   -6937.8331   -6891.3852    2306.0021    20357.748   0.95952455 
    2050    405.81583   -6935.8906   -6890.6213    2029.6066    20366.783   0.96585367 
    2060    401.73092   -6934.6372   -6889.8235    1664.5755    20379.354   0.97228065 
    2070    426.42893   -6936.6517    -6889.083    1262.4711     20394.84   0.97993556 
    2080    435.13715   -6936.9335   -6888.3933    1364.0311    20412.654   0.99042384 
    2090    420.60746   -6934.6496   -6887.7302    1549.8675    20432.911      1.00257 
    2100    433.06948    -6935.328   -6887.0184    1102.6053    20455.817    1.0130437 
    2110     441.8461   -6935.4863   -6886.1977    550.77578    20480.701    1.0219762 
    2120    440.20687   -6934.4157     -6885.31   -51.513663    20506.595    1.0305676 
    2130    442.69621   -6933.7567   -6884.3733   -846.29351    20532.401    1.0392451 
    2140    440.75004   -6932.5694    -6883.403   -1414.0601    20556.764    1.0483269 
    2150    435.66293   -6931.0201   -6882.4213   -1560.0721    20578.696    1.0575481 
    2160    436.91289   -6930.1647   -6881.4264   -1589.6075    20597.874    1.0663742 
    2170     443.5002    -6929.875   -6880.4019   -1428.1004    20614.249    1.0743291 
    2180    454.89628    -6930.103   -6879.3587   -1057.0317    20628.105    1.0811909 
    2190    472.42643   -6930.9958    -6878.296   -898.14073    20640.028    1.0884172 
    2200    467.17932   -6929.3509   -6877.2363   -998.40472    20650.313    1.0978353 
    2210    472.16915   -6928.8609   -6876.1898   -1663.1592      20658.7    1.1080141 
    2220    477.17207   -6928.3468   -6875.1176    -2291.706    20664.097    1.1183516 
    2230    487.71987   -6928.4366   -6874.0307   -2612.9893    20665.424     1.128649 
    2240    495.01494   -6928.1489   -6872.9293   -2363.0788    20662.193    1.1384652 
    2250    491.87261   -6926.7037   -6871.8346   -1590.6847    20654.851    1.1473645 
    2260    497.61188   -6926.2492   -6870.7398    -892.8367    20644.709    1.1549979 
    2270    497.16448   -6925.0986   -6869.6392   -191.19365    20633.064    1.1619583 
    2280    495.32898   -6923.8004   -6868.5457    357.05651    20621.154     1.168672 
    2290     505.4842   -6923.8312   -6867.4437    21.439163    20609.822    1.1764433 
    2300    516.30656   -6923.9262   -6866.3314   -446.91045     20598.62    1.1874315 
    2310     523.2438   -6923.5875   -6865.2189   -544.25475    20586.797    1.2018361 
    2320    525.19232   -6922.6936   -6864.1076   -526.68387    20574.161    1.2164989 
    2330     540.0557   -6923.2341   -6862.9901   -564.97524    20560.731    1.2274992 
    2340    547.86668    -6922.979   -6861.8637   -170.93289    20546.555     1.235905 
    2350    540.16165   -6921.0191   -6860.7633    267.18504    20532.264     1.244757 
    2360    545.73752   -6920.5671   -6859.6893    407.90219    20518.584    1.2551633 
    2370    549.29446   -6919.8901   -6858.6155    801.30127    20505.838    1.2686484 
    2380    556.51596   -6919.6349   -6857.5547    1621.0151     20494.72    1.2857543 
    2390    555.86541    -6918.514   -6856.5064    2401.9621    20486.574    1.3053811 
    2400    553.21899   -6917.2022   -6855.4898    2789.8885    20482.682    1.3239903 
    2410    559.03448    -6916.852   -6854.4909    2652.7084    20483.643    1.3381713 
    2420    572.58765   -6917.3766   -6853.5036    2094.3124    20489.158    1.3478984 
    2430    569.94049   -6916.1188    -6852.541    1947.1788     20498.35    1.3568307 
    2440    561.96591    -6914.308   -6851.6199    2105.4237    20510.903    1.3676939 
    2450    570.43746   -6914.3436   -6850.7104     1923.455     20526.95    1.3796496 
    2460    563.64086   -6912.6808   -6849.8058    1480.3411    20546.165    1.3908364 
    2470    580.44569    -6913.655   -6848.9054    824.91441    20567.746    1.3983719 
    2480     594.9354   -6914.3609    -6847.995    189.21635    20590.535    1.4029932 
    2490    594.40822   -6913.4266   -6847.1194    -255.2824     20613.43    1.4059024 
    2500     606.8955   -6913.9825   -6846.2824   -670.27935    20635.622     1.407578 
    2510    616.38312   -6914.2431   -6845.4846     -874.635    20656.407    1.4111743 
    2520    615.06016   -6913.3619    -6844.751   -939.80473    20675.414    1.4175707 
    2530    605.73204   -6911.6545   -6844.0842   -748.29629    20692.579    1.4242335 
    2540    599.13789   -6910.3027   -6843.4679   -764.65274    20708.158     1.429534 
    2550    598.57227   -6909.6474   -6842.8757   -1141.1328     20722.13    1.4349065 
    2560    597.20252   -6908.9129   -6842.2941   -1409.2627    20733.904    1.4429912 
    2570    596.76762   -6908.2945   -6841.7242   -1116.6813    20743.106    1.4534869 
    2580    602.82511    -6908.406   -6841.1599   -785.95109    20750.201    1.4634569 
    2590    614.70385   -6909.1789   -6840.6077    -502.7494    20755.789    1.4716431 
    2600    628.32083   -6910.1859   -6840.0958    59.726965    20760.453    1.4797421 
    2610    613.07534   -6908.0352   -6839.6457    981.86364    20765.258    1.4888976 
    2620    616.56074   -6908.0337   -6839.2554    1160.6411    20771.632    1.4957702 
    2630    619.59202   -6908.0157   -6838.8993     1100.822    20779.988     1.500885 
    2640     605.4054   -6906.1287   -6838.5948     1270.845     20790.26    1.5079776 
    2650    604.53546   -6905.7523   -6838.3154    1409.9933    20802.698    1.5159664 
    2660    623.23932   -6907.5699   -6838.0466    882.57549    20817.409    1.5219378 
    2670    632.74447   -6908.3922   -6837.8086     382.8323    20833.566    1.5267687 
    2680     647.3166   -6909.8528   -6837.6437   -64.401455    20850.242    1.5326541 
    2690    651.03897   -6910.2082   -6837.5839   -309.65328    20866.636    1.5417097 
    2700    632.67877   -6908.2204   -6837.6441   -218.51046    20882.322    1.5544532 
    2710     607.5523   -6905.5525   -6837.7792    62.816915    20897.477    1.5693166 
    2720    603.15225   -6905.2232   -6837.9407   -158.19993    20912.476    1.5831928 
    2730    601.94728   -6905.2494   -6838.1013    -420.5038     20927.01    1.5947646 
    2740    608.28474   -6906.1228   -6838.2677   -651.50997    20940.612      1.60346 
    2750    616.20802   -6907.1919    -6838.453   -1055.2008    20952.836    1.6109577 
    2760    611.46542   -6906.8802   -6838.6703   -1145.1141    20963.046    1.6198664 
    2770    607.90232   -6906.7313   -6838.9189   -979.65393    20971.077    1.6303243 
    2780     605.8796   -6906.7756   -6839.1889   -867.67826     20977.22    1.6426481 
    2790    603.07469   -6906.7436   -6839.4697   -901.65273    20981.683    1.6563454 
    2800    595.44774   -6906.1709   -6839.7478   -869.36828    20984.466    1.6694875 
    2810    589.16033   -6905.7312   -6840.0094   -1077.6396    20985.576    1.6806377 
    2820    590.92199   -6906.1747   -6840.2565   -1346.3422    20984.703    1.6890225 
    2830    591.13558   -6906.4285   -6840.4864   -1817.4388    20981.336    1.6951382 
    2840    595.58223   -6907.1473   -6840.7092    -2150.407    20974.692    1.7016812 
    2850    603.27042   -6908.2219   -6840.9262   -2107.2999     20964.25    1.7120514 
    2860    610.84744   -6909.2968   -6841.1558   -1846.4502    20950.131    1.7260737 
    2870    606.65898   -6909.0814   -6841.4077   -1345.0553     20932.86    1.7407541 
    2880    606.48201   -6909.3307   -6841.6767   -1128.9204    20913.294    1.7536905 
    2890    607.41429   -6909.7207   -6841.9628   -1237.0751    20891.864    1.7667345 
    2900    605.79423   -6909.8432   -6842.2659   -1200.9094    20868.501    1.7832223 
    2910    601.64534   -6909.6934    -6842.579   -1080.2543    20843.267    1.8035351 
    2920    601.96865   -6910.0407   -6842.8902   -860.28069    20816.404    1.8242878 
    2930    608.99893   -6911.1405   -6843.2057   -462.08999    20788.376    1.8412971 
    2940    607.73545   -6911.3292   -6843.5354   -76.731452    20759.867    1.8535761 
    2950    598.77844   -6910.6659   -6843.8712    464.55202    20731.647    1.8616715 
    2960    587.27763   -6909.6993   -6844.1876     906.4094    20704.626    1.8659349 
    2970    593.90261   -6910.7233   -6844.4725    1174.8782    20679.562     1.867408 
    2980    607.51835   -6912.5168   -6844.7472    1341.1812    20656.933    1.8679678 
    2990    607.41243   -6912.7908    -6845.033    1641.9389    20637.037    1.8690217 
    3000    607.82299   -6913.1472   -6845.3436    1714.4017     20620.28    1.8724919 
    3010    597.10304   -6912.2766   -6845.6688    1815.7445    20606.805    1.8798381 
    3020    592.66957   -6912.1009   -6845.9877    1793.3165    20596.718    1.8853499 
    3030    600.13242   -6913.2454   -6846.2998    1632.8668    20589.916     1.885316 
    3040     592.1241   -6912.6569   -6846.6045    1987.4932    20586.165    1.8822153 
    3050    577.15107   -6911.2625   -6846.8804    2741.6027    20586.024    1.8780483 
    3060    576.62642   -6911.4427   -6847.1192    3292.7057    20590.694    1.8728649 
    3070     569.8139   -6910.8754   -6847.3118    3305.6378    20601.041    1.8668886 
    3080    573.56059   -6911.4348   -6847.4532    2787.4398    20617.044    1.8601373 
    3090    580.85179   -6912.3325   -6847.5376    1876.4404    20637.747    1.8522711 
    3100    589.58322   -6913.3424   -6847.5735     711.9496    20661.512    1.8422766 
    3110    594.76653   -6913.9132   -6847.5661   -712.92363    20686.248    1.8314424 
    3120    588.80563    -6913.206   -6847.5238   -1906.9796    20709.484    1.8218191 
    3130    581.00573   -6912.2637   -6847.4516   -2448.2111     20729.15    1.8136086 
    3140     579.6715     -6912.01   -6847.3467    -2416.946    20744.306    1.8065711 
    3150    577.35296   -6911.6086   -6847.2041    -2296.406    20754.976    1.8009246 
    3160    578.80297   -6911.5855   -6847.0191   -2353.3686    20761.384     1.797193 
    3170    583.24956   -6911.8549   -6846.7925   -2373.8135     20763.52    1.7979422 
    3180    582.34417   -6911.4919   -6846.5305    -2151.565    20761.423    1.8061319 
    3190    591.23466    -6912.193   -6846.2399   -1997.9725    20755.466     1.820548 
    3200    585.70974   -6911.2613   -6845.9245   -1562.7658    20746.055    1.8371684 
    3210    578.32584   -6910.1006   -6845.5875   -1144.7372    20733.949     1.850436 
    3220    575.17455   -6909.3736    -6845.212   -897.59471     20719.89    1.8583355 
    3230    569.66559   -6908.3367   -6844.7897   -546.02168    20704.408    1.8633454 
    3240    572.41489   -6908.1693   -6844.3156   -615.35122    20688.045    1.8667322 
    3250    577.46193   -6908.2122   -6843.7955   -901.42586    20670.717    1.8692559 
    3260    580.82958   -6908.0372   -6843.2448   -871.31813    20652.037    1.8710751 
    3270    583.98992   -6907.8203   -6842.6754   -601.52958    20632.042    1.8727162 
    3280    584.56183    -6907.295   -6842.0863    146.70989    20611.298     1.875254 
    3290    593.80158   -6907.7204    -6841.481    615.31927    20590.998    1.8795702 
    3300    607.84659    -6908.685   -6840.8788    542.03205    20571.931    1.8860513 
    3310    626.48111   -6910.1987   -6840.3138    542.15113    20554.048    1.8948956 
    3320    632.86034   -6910.4109   -6839.8144    1196.1319    20537.405    1.9064228 
    3330    627.80534   -6909.4325   -6839.3998    2079.4353    20523.085    1.9193226 
    3340    625.26177   -6908.8113   -6839.0624    2315.3548    20512.467    1.9299304 
    3350    640.91994   -6910.3014   -6838.8058    1976.1221    20505.907    1.9355644 
    3360    625.46141   -6908.4061   -6838.6349     1916.284    20502.922    1.9369791 
    3370     610.8753   -6906.6777   -6838.5336    2148.0567    20503.372     1.932172 
    3380    619.50912   -6907.5732    -6838.466    2123.2798    20507.539    1.9213659 
    3390    636.62927   -6909.4691   -6838.4522    1844.5536    20515.366    1.9107971 
    3400    625.90896    -6908.337   -6838.5159    1888.0319    20526.443    1.9073767 
    3410    612.47156   -6906.9617   -6838.6396    1788.8179     20540.74    1.9090112 
    3420    637.86272   -6909.9708   -6838.8163    1180.5797    20557.993    1.9111777 
    3430    641.41682   -6910.6266   -6839.0756    1121.6452    20577.329    1.9140897 
    3440    618.36368    -6908.402   -6839.4226    1117.2995    20598.514    1.9155088 
    3450    598.39852   -6906.5568   -6839.8045    1275.3522    20621.549    1.9124061 
    3460    588.20119   -6905.7939   -6840.1792    1538.2594    20646.713    1.9046668 
    3470    598.80578    -6907.331   -6840.5334     1170.296    20674.343    1.8941483 
    3480     605.0654   -6908.3749   -6840.8789    542.36981    20703.835    1.8840089 
    3490    592.16928   -6907.2648   -6841.2075   -11.124807    20734.115    1.8759634 
    3500    600.28272   -6908.4732   -6841.5108   -890.24844    20764.093    1.8688911 
    3510    610.46248   -6909.9019   -6841.8038   -1567.4942    20792.268    1.8633217 
    3520    607.26178   -6909.8569   -6842.1159   -1504.4763    20817.518    1.8611472 
    3530    602.00398   -6909.6034   -6842.4489   -1182.4846    20839.878     1.863197 
    3540    599.45142   -6909.6586   -6842.7889   -831.50894    20859.932    1.8694159 
    3550    610.93271   -6911.2868   -6843.1363   -1130.0498    20878.198    1.8790525 
    3560    613.21819   -6911.9056   -6843.5002   -1782.9342    20894.187    1.8912977 
    3570    603.87843    -6911.242   -6843.8785   -2120.4932    20906.849     1.903361 
    3580    603.61538   -6911.6018   -6844.2676   -2064.4433    20915.593    1.9135844 
    3590    590.35694   -6910.5071   -6844.6519    -1554.383    20920.578    1.9240517 
    3600    578.51077   -6909.5297    -6844.996   -1152.8268    20922.676    1.9363051 
    3610    595.97636   -6911.7837   -6845.3016    -1048.694     20922.61     1.950461 
    3620    607.67982   -6913.3853   -6845.5977   -807.91782    20920.669    1.9692741 
    3630    609.94889   -6913.9436   -6845.9029   -634.28089     20917.26    1.9943154 
    3640    606.86594   -6913.9181   -6846.2213   -469.93423    20912.736    2.0223727 
    3650    594.71686   -6912.8853   -6846.5437   -349.78731      20907.4    2.0483985 
    3660     589.9511   -6912.6572   -6846.8473   -201.18705    20901.493    2.0683293 
    3670    591.39162   -6913.0958   -6847.1252   -154.51747    20895.256    2.0806442 
    3680    587.35973   -6912.8979    -6847.377   -161.62326    20888.807    2.0879445 
    3690    584.04149   -6912.7561   -6847.6054   -322.95297    20882.109    2.0952027 
    3700    574.39709   -6911.8716   -6847.7967   -119.43098    20874.954    2.1054557 
    3710    574.76319   -6912.0547    -6847.939    387.13132     20867.69    2.1169138 
    3720    591.90952   -6914.0659   -6848.0375    577.67305    20861.129    2.1269318 
    3730    602.81879   -6915.3684   -6848.1231    683.83353    20855.652    2.1350187 
    3740    594.83137   -6914.5607   -6848.2064    998.26016    20851.516    2.1396593 
    3750    602.80199   -6915.5351   -6848.2916    992.49515    20849.154    2.1392208 
    3760    594.31866   -6914.6782    -6848.381    1067.8853    20848.612     2.137223 
    3770    570.00025   -6912.0348   -6848.4504    1189.7665    20850.014    2.1361352 
    3780    571.06162   -6912.1707   -6848.4679    1228.1225    20853.545    2.1348282 
    3790    568.85505   -6911.8725   -6848.4159    1430.5944    20859.319    2.1326951 
    3800    563.04097   -6911.1021    -6848.294    1706.3011    20867.667    2.1290294 
    3810    565.73299   -6911.2041   -6848.0957    1972.9057    20879.061    2.1220519 
    3820    577.81753   -6912.2845    -6847.828    2029.9796    20893.953     2.110393 
    3830    572.31596   -6911.3406   -6847.4979    1819.4649    20912.427    2.0951811 
    3840    576.35426   -6911.4067   -6847.1135    1115.6001     20934.04    2.0776739 
    3850    594.99224   -6913.0364   -6846.6642   -15.250012      20957.5    2.0608211 
    3860    599.44151   -6913.0537   -6846.1851   -765.16922    20980.873    2.0489786 
    3870    599.81046   -6912.6255   -6845.7157   -1210.8256    21002.743    2.0424962 
    3880    611.28289   -6913.4568   -6845.2672   -1329.3486      21022.3    2.0386125 
    3890    604.77426    -6912.325   -6844.8615   -1211.1871    21039.325     2.034623 
    3900    585.85242   -6909.8492   -6844.4964    -1226.214    21053.982    2.0280489 
    3910     584.5142   -6909.3406   -6844.1372   -1486.4639    21066.246    2.0192648 
    3920    593.77037   -6909.9988   -6843.7628   -1775.4614    21075.677    2.0114815 
    3930    601.41005   -6910.4792    -6843.391   -1927.8218     21081.78    2.0076709 
    3940    599.65623   -6909.9344   -6843.0418   -2261.0074    21084.225    2.0113406 
    3950    595.35655   -6909.1334   -6842.7205   -2572.9811    21082.472     2.025812 
    3960     598.9685   -6909.2366   -6842.4207   -2762.2707    21075.982    2.0482132 
    3970    604.68869   -6909.5944   -6842.1404   -2703.2973    21064.449    2.0706699 
    3980    598.69121   -6908.6639    -6841.879   -2460.2667    21048.038    2.0861735 
    3990    604.82695   -6909.1057   -6841.6363    -2159.164    21027.206    2.0928399 
    4000    598.11325   -6908.1179   -6841.3975   -1333.9356    21002.657    2.0951867 
    4010    606.52101   -6908.8234    -6841.165   -538.16383    20975.848    2.0971819 
    4020    605.14498   -6908.4394   -6840.9345   -30.366462    20948.266    2.1024823 
    4030    604.93268   -6908.2087   -6840.7276    -217.0021     20920.78    2.1120527 
    4040    604.23281   -6907.9459   -6840.5428   -435.73251    20893.165    2.1258118 
    4050    600.47308   -6907.3498   -6840.3662    18.410871    20865.156    2.1411988 
    4060    607.02002    -6907.894     -6840.18    674.40373    20837.526    2.1537129 
    4070    618.42755   -6908.9816   -6839.9951    1108.1848    20811.413    2.1605392 
    4080    623.29703   -6909.3712   -6839.8415    1338.1546    20787.587    2.1621562 
    4090     623.1128   -6909.2465   -6839.7373    1335.9968     20766.43    2.1608078 
    4100     625.2072    -6909.434   -6839.6912    1307.0305    20747.952    2.1589129 
    4110    630.15365    -6910.001   -6839.7064     1516.645    20732.109    2.1594955 
    4120    633.81621   -6910.4975   -6839.7943    1664.7249    20719.177     2.164706 
    4130    615.77407   -6908.6402   -6839.9497    1827.0758    20709.418    2.1762862 
    4140     606.9218   -6907.8574   -6840.1544    1701.6585    20703.006    2.1916979 
    4150    614.01554   -6908.8997   -6840.4053    1584.4606    20699.712    2.2056829 
    4160     619.6898   -6909.8404   -6840.7131    1585.9645    20699.322    2.2180991 
    4170    621.18169   -6910.3846   -6841.0909    1055.2472    20701.672     2.231752 
    4180    604.51295    -6908.954   -6841.5197    653.72867    20705.906    2.2475384 
    4190     588.7943   -6907.6391   -6841.9582    702.49339    20711.329    2.2611795 
    4200     583.5964   -6907.4751    -6842.374    1074.2197    20718.007      2.26847 
    4210    586.40949   -6908.1752   -6842.7603    1256.5426    20726.512    2.2697445 
    4220    600.07616   -6910.0648   -6843.1254    913.26391    20737.101    2.2678493 
    4230    610.76138   -6911.6202   -6843.4888    460.84923    20749.201    2.2666751 
    4240    607.79624   -6911.6596    -6843.859    267.63434    20762.043    2.2681641 
    4250    591.66846   -6910.2182   -6844.2167    47.578223    20775.229    2.2715767 
    4260    576.64472   -6908.8448   -6844.5192   -470.39741    20788.301    2.2754424 
    4270    580.89981   -6909.5477   -6844.7474   -968.31558      20800.4    2.2788183 
    4280    594.30191   -6911.2197   -6844.9244   -1302.3196    20810.662    2.2817584 
    4290     599.7871   -6911.9874   -6845.0803   -1206.0588    20818.531    2.2859228 
    4300    584.86208   -6910.4581   -6845.2158   -494.03483    20824.238    2.2922775 
    4310     579.2365   -6909.9243   -6845.3096   -47.166913    20828.953    2.2982353 
    4320    586.73223   -6910.8073   -6845.3565    -195.2871    20833.447    2.3044652 
    4330    590.51654   -6911.2432   -6845.3702   -447.20203    20837.544     2.313597 
    4340       585.08   -6910.6263   -6845.3598   -329.64588    20840.868     2.326373 
    4350     578.3106   -6909.8303   -6845.3188     82.21236    20843.616      2.34233 
    4360    575.89975   -6909.4819   -6845.2394    290.66357    20846.457    2.3599927 
    4370    575.59151   -6909.3284   -6845.1203   -67.557574    20849.709    2.3770888 
    4380     584.1002   -6910.1246   -6844.9674   -603.47279    20852.776    2.3904661 
    4390    589.01473   -6910.4999   -6844.7944   -727.29557    20854.791    2.3999453 
    4400    591.14816   -6910.5668   -6844.6233   -364.38325    20855.558    2.4065939 
    4410    574.49369   -6908.5358   -6844.4502    381.18964    20855.753    2.4119529 
    4420    567.59486   -6907.5747   -6844.2587    537.90622    20856.561    2.4155046 
    4430    582.59074   -6909.0269    -6844.038    68.330886    20858.245    2.4157856 
    4440    588.25509   -6909.4305   -6843.8097    30.905053    20860.119    2.4125344 
    4450    578.49467   -6908.1217   -6843.5898    498.73309    20862.104    2.4060831 
    4460    585.87893   -6908.7253   -6843.3696    885.77946    20864.984    2.3955271 
    4470      607.229   -6910.8973     -6843.16    759.11482    20869.384    2.3831745 
    4480    605.94547   -6910.5863   -6842.9922    574.29685    20875.158    2.3723986 
    4490    603.19246   -6910.1586   -6842.8715    301.20455    20881.934    2.3616883 
    4500    611.26276   -6910.9716   -6842.7843   -15.238154    20889.204    2.3502616 
    4510    597.66272   -6909.3912    -6842.721   -70.680248    20896.484    2.3408334 
    4520     586.6801   -6908.1055   -6842.6604   -465.49237    20903.554    2.3332664 
    4530    595.75755   -6909.0411   -6842.5835   -1191.7459    20909.679    2.3254799 
    4540    599.15756   -6909.3349    -6842.498   -1384.4739     20913.71    2.3178823 
    4550    599.73774   -6909.3255   -6842.4238   -1357.9636    20915.226    2.3113549 
    4560    606.91041   -6910.0666   -6842.3648   -1571.4866    20914.205    2.3064252 
    4570    621.28399   -6911.6387   -6842.3335   -1867.6899    20910.302    2.3036592 
    4580    615.19359   -6910.9703   -6842.3445   -1585.5652     20903.12    2.3041552 
    4590    588.79937   -6908.0608   -6842.3793   -761.80107     20893.19    2.3048141 
    4600    577.95465   -6906.8614   -6842.3897   -259.47165    20881.898    2.3000769 
    4610     582.7477   -6907.3553   -6842.3489   -192.45644    20870.157    2.2898532 
    4620    594.10153   -6908.5419   -6842.2689   -86.611867    20858.191    2.2795721 
    4630    597.78073   -6908.8562   -6842.1729    234.58508    20846.237    2.2731357 
    4640    597.08602   -6908.6796   -6842.0738    328.17999    20834.791    2.2692817 
    4650    596.77257   -6908.5268   -6841.9559    114.54863     20824.02    2.2654694 
    4660    600.72283   -6908.8261   -6841.8146    149.63535    20813.627     2.259764 
    4670    614.95676   -6910.2686   -6841.6692    332.58632    20803.654    2.2519994 
    4680    625.82049   -6911.3676   -6841.5564    722.25042    20794.444    2.2437262 
    4690    605.57479   -6909.0307    -6841.478    1623.6505    20786.765    2.2364731 
    4700    596.71212   -6907.9701   -6841.4059    2257.0132    20782.082    2.2293904 
    4710    612.63859   -6909.6601   -6841.3194    2012.1115    20781.379    2.2222687 
    4720    630.04064   -6911.5396   -6841.2576    1297.2352    20784.231    2.2176153 
    4730    618.18462   -6910.2193   -6841.2598    694.60393    20789.381    2.2164754 
    4740    607.70331   -6909.1055   -6841.3152    335.28878    20795.727    2.2151533 
    4750    606.36894   -6909.0283   -6841.3869    264.40553    20802.621    2.2123633 
    4760    605.08067   -6908.9724   -6841.4748     292.1029    20809.878    2.2105158 
    4770    594.55781   -6907.9134   -6841.5896    682.13045    20817.628     2.210972 
    4780    591.19431   -6907.6831   -6841.7345    728.67151    20826.423    2.2119143 
    4790     586.4544    -6907.316   -6841.8962    562.11996    20836.368     2.211155 
    4800    588.56078   -6907.7147   -6842.0599    155.32998    20847.126    2.2070088 
    4810    602.82582    -6909.478   -6842.2319   -398.36451    20857.955    2.1997286 
    4820    595.75072   -6908.8867   -6842.4298   -469.21155    20867.972    2.1921024 
    4830    577.94693   -6907.1103   -6842.6395    -86.21349    20877.053    2.1863694 
    4840     573.9682   -6906.8552   -6842.8282    383.92842    20885.849    2.1832245 
    4850    581.98676   -6907.9086   -6842.9871    665.94357    20895.161    2.1819358 
    4860    583.24232   -6908.1807   -6843.1192    984.37354    20905.537    2.1829162 
    4870    586.40416   -6908.6423   -6843.2281    975.07685    20917.493    2.1869427 
    4880    594.53004   -6909.6447    -6843.324    777.93177    20931.013    2.1932593 
    4890    586.70842   -6908.8613   -6843.4131    908.34628    20945.817    2.2015038 
    4900    583.01779   -6908.5196   -6843.4831     594.6996    20962.002    2.2093416 
    4910    589.46173   -6909.2749   -6843.5195   -157.89642    20978.985    2.2160804 
    4920    582.84517   -6908.5382    -6843.521   -353.51881     20995.55    2.2244454 
    4930    583.44908   -6908.5746   -6843.4899   -196.58643    21011.298    2.2343569 
    4940    591.32192   -6909.3894   -6843.4266    17.581679    21026.502    2.2458882 
    4950    590.30646   -6909.1883   -6843.3387    4.2818338    21041.525    2.2606956 
    4960    595.57376   -6909.6631   -6843.2259   -233.32455    21056.357    2.2774486 
    4970    601.50232   -6910.1897   -6843.0912   -170.19141    21070.661    2.2915989 
    4980    595.90332   -6909.4183   -6842.9444   -258.78251    21084.456    2.2998506 
    4990    588.54474   -6908.4306   -6842.7776   -743.50024     21097.56    2.3023402 
    5000    590.95963   -6908.4958   -6842.5734   -1273.5717     21109.16    2.3012504 
Loop time of 2438.54 on 16 procs for 3000 steps with 864 atoms

Performance: 0.106 ns/day, 225.791 hours/ns, 1.230 timesteps/s
97.3% CPU use with 16 MPI tasks x 1 OpenMP threads

MPI task timing breakdown:
Section |  min time  |  avg time  |  max time  |%varavg| %total
---------------------------------------------------------------
Pair    | 1129.9     | 1939.2     | 2437.2     | 728.5 | 79.52
Bond    | 0.00027537 | 0.00086617 | 0.002177   |   0.0 |  0.00
Neigh   | 0.0275     | 0.042992   | 0.058451   |   4.5 |  0.00
Comm    | 0.8211     | 384.52     | 1112.7     |1537.0 | 15.77
Output  | 0.19132    | 0.1945     | 0.24042    |   2.7 |  0.01
Modify  | 0.21548    | 114.61     | 195.7      | 835.3 |  4.70
Other   |            | 0.01533    |            |       |  0.00

Nlocal:        54.0000 ave          72 max          38 min
Histogram: 2 2 2 1 1 2 2 2 1 1
Nghost:        477.000 ave         531 max         396 min
Histogram: 1 1 2 0 2 0 2 4 2 2
Neighs:         0.00000 ave           0 max           0 min
Histogram: 16 0 0 0 0 0 0 0 0 0
FullNghs:      2259.25 ave        3672 max        1146 min
Histogram: 2 2 2 1 2 2 3 0 1 1

Total # of neighbors = 36148
Ave neighs/atom = 41.837963
Ave special neighs/atom = 0.0000000
Neighbor list builds = 300
Dangerous builds = 300
unfix   2

fix     3 all npt temp 600.0 600.0 $(100.0*dt) aniso 1.01325 1.01325 $(1000.0*dt)
fix     3 all npt temp 600.0 600.0 0.10000000000000000555 aniso 1.01325 1.01325 $(1000.0*dt)
fix     3 all npt temp 600.0 600.0 0.10000000000000000555 aniso 1.01325 1.01325 1
run     20000
Per MPI rank memory allocation (min/avg/max) = 8.897 | 8.905 | 8.914 Mbytes
Step Temp PotEng TotEng Press Volume c_msd[4] 
    5000    590.95963   -6908.4958   -6842.5734   -1273.5717     21109.16    2.3012504 
    5010    601.10213   -6909.6224   -6842.5686   -1406.4466    21107.906    2.2986067 
    5020    606.59628   -6910.2372   -6842.5705   -956.86835    21104.125    2.2992367 
    5030    590.09122   -6908.4034   -6842.5779   -361.16271    21098.585    2.3047561 
    5040     583.3256   -6907.6421   -6842.5713   -515.76807     21092.25    2.3124398 
    5050     580.4054   -6907.2726   -6842.5275   -1202.7223     21084.87    2.3205055 
    5060     580.0178   -6907.1433   -6842.4414   -1689.1549     21075.27    2.3302987 
    5070    578.62124   -6906.8526   -6842.3065   -1465.1903    21062.622     2.341617 
    5080    579.22396   -6906.7266   -6842.1133   -647.63283    21047.322     2.351853 
    5090     573.0397   -6905.7666   -6841.8431    464.03768    21030.864    2.3583803 
    5100    576.29846   -6905.7696   -6841.4827    1315.8436     21015.22     2.359121 
    5110     591.4914   -6907.0124   -6841.0307    1835.9751    21001.954    2.3571311 
    5120     592.1364   -6906.5679   -6840.5142    2292.1358    20992.076     2.358427 
    5130    588.21704   -6905.5769   -6839.9604    2180.0458    20986.333    2.3637886 
    5140    600.29147   -6906.3482   -6839.3848    1579.2114    20984.533    2.3727438 
    5150    609.69246   -6906.8294   -6838.8173    1503.9474    20985.764    2.3857244 
    5160    613.39832   -6906.7324   -6838.3069    1760.9992     20989.83    2.3995353 
    5170    620.33209    -6907.074    -6837.875     1884.931    20997.142    2.4092791 
    5180    632.77305   -6908.1245   -6837.5377    1856.1673    21007.942    2.4132694 
    5190    636.96795   -6908.3709   -6837.3161    1713.1361    21022.206    2.4137679 
    5200    631.17839   -6907.6156   -6837.2067    1261.7568     21039.67    2.4136584 
    5210    631.25622   -6907.6056    -6837.188    755.61203    21059.521    2.4143013 
    5220    614.55992   -6905.7846   -6837.2295    981.68847    21080.986    2.4162023 
    5230    620.64843    -6906.547   -6837.3128    1099.9198    21104.341    2.4172522 
    5240    633.31768   -6908.0801   -6837.4325    598.67107     21129.71    2.4177465 
    5250    625.25088    -6907.347   -6837.5993    327.05068     21156.36    2.4214659 
    5260    606.05307   -6905.3958   -6837.7897    293.78093    21183.753    2.4296204 
    5270    593.61439    -6904.183   -6837.9645    368.22934    21211.805    2.4422735 
    5280    595.78949   -6904.5647   -6838.1035    55.415675    21240.566    2.4591122 
    5290    608.00834   -6906.0403   -6838.2161   -524.95227    21269.459    2.4783436 
    5300    618.52466   -6907.3268   -6838.3295   -1093.1865    21297.434    2.4981427 
    5310    617.21651   -6907.3142   -6838.4627   -1656.4189    21323.388    2.5159344 
    5320     611.5765   -6906.8372   -6838.6149   -2013.3855    21346.282    2.5282172 
    5330    616.22914   -6907.5241   -6838.7828   -2414.9403    21365.351    2.5337906 
    5340    620.56998   -6908.2028   -6838.9772   -2841.1491    21379.822    2.5367107 
    5350    619.96877    -6908.371   -6839.2126        -3245    21388.867    2.5419935 
    5360    601.21905   -6906.5462   -6839.4793   -2984.9524    21391.839    2.5509187 
    5370    585.18054   -6905.0127   -6839.7349   -2204.2937    21389.183    2.5600966 
    5380    588.07198   -6905.5546   -6839.9543   -1535.8858    21382.303    2.5656386 
    5390    594.56111   -6906.4599   -6840.1357   -1544.2862    21372.365    2.5676656 
    5400    614.31821   -6908.8393   -6840.3112   -1899.0688    21359.406    2.5689713 
    5410    618.28167   -6909.4848   -6840.5145   -1987.3642    21342.858    2.5729624 
    5420    604.37639   -6908.1645   -6840.7454    -1566.651    21322.607    2.5800551 
    5430    593.70789   -6907.2019   -6840.9729   -1099.2549    21299.355    2.5896238 
    5440    588.06552   -6906.7703   -6841.1707   -691.02372    21273.988    2.6008445 
    5450    591.36958   -6907.3054   -6841.3372   -566.67116    21247.239    2.6108494 
    5460     592.4385   -6907.5626   -6841.4752   -304.66246    21219.451    2.6175134 
    5470    594.50162   -6907.9068   -6841.5892    16.266085    21191.086    2.6226192 
    5480    593.90419    -6907.933   -6841.6821    407.57206    21162.759    2.6309077 
    5490    591.49041   -6907.7292   -6841.7476     746.6806    21135.199     2.643903 
    5500    612.07569   -6910.0829   -6841.8049    544.19951     21108.94    2.6579482 
    5510     618.9073   -6910.9346   -6841.8946     233.9865     21083.69    2.6711658 
    5520    591.37065   -6907.9813    -6842.013    358.17506    21058.963    2.6833634 
    5530    585.62705   -6907.4479   -6842.1203    404.48773    21034.886    2.6916409 
    5540    600.97642   -6909.2492   -6842.2094    128.05232    21011.517    2.6968419 
    5550    605.70836   -6909.8719   -6842.3042   -150.76259    20988.405    2.7025256 
    5560    608.09744   -6910.2594   -6842.4253     -100.755    20965.088    2.7065611 
    5570     600.5141   -6909.5526   -6842.5643    235.67453    20941.649    2.7059199 
    5580    601.38712   -6909.8114   -6842.7258    61.410586    20918.566    2.7012944 
    5590    600.09186   -6909.8569   -6842.9157    -304.3975    20895.609    2.6954342 
    5600    596.05431   -6909.6323   -6843.1416   -301.00139    20872.197    2.6902406 
    5610     589.6826     -6909.18      -6843.4   -91.985984     20848.28    2.6866948 
    5620    583.44626   -6908.7712   -6843.6869    27.779818    20824.193    2.6861473 
    5630     587.4936   -6909.5467    -6844.011    178.32923    20800.188    2.6898189 
    5640    582.90147   -6909.4048   -6844.3813    593.81401    20776.563    2.6982834 
    5650    577.21036   -6909.1756   -6844.7869    1371.6899    20754.105    2.7080406 
    5660    584.56213   -6910.4362   -6845.2275    1815.5824    20734.082    2.7160381 
    5670    582.91346   -6910.7292   -6845.7043    1951.7917    20717.315    2.7238692 
    5680    581.54494   -6911.0799   -6846.2077    1738.9813    20704.008    2.7321029 
    5690    581.02099   -6911.5289   -6846.7152     1485.685    20693.828    2.7406782 
    5700    587.12959    -6912.708   -6847.2128    1334.1483    20686.334    2.7497229 
    5710    597.68635    -6914.375   -6847.7022    1544.4041    20681.294    2.7602946 
    5720    588.63629    -6913.838   -6848.1748    2104.7695    20679.077    2.7747689 
    5730    569.96532   -6912.1799   -6848.5994    2694.2458    20680.643    2.7921019 
    5740    550.89408   -6910.3852   -6848.9321    3011.2673    20686.996    2.8062923 
    5750    558.99402   -6911.5155   -6849.1589    2806.7481    20698.685    2.8118476 
    5760    579.81196   -6913.9821   -6849.3032     2300.949    20715.388    2.8109337 
    5770    577.22684   -6913.7856   -6849.3951    1960.4241    20736.295    2.8091901 
    5780    571.13732   -6913.1514   -6849.4402    1653.5475    20760.786    2.8099021 
    5790    566.18076    -6912.583   -6849.4247    1568.3293    20788.357     2.814353 
    5800     568.1257   -6912.7192   -6849.3439    1372.1503    20818.812    2.8222561 
    5810    571.06499   -6912.8932     -6849.19    895.13408     20851.75    2.8326658 
    5820    562.35501   -6911.6959   -6848.9644    903.16603    20886.459     2.843241 
    5830    568.57729   -6912.0977   -6848.6721     818.0782     20922.82    2.8509354 
    5840    564.08813   -6911.2281   -6848.3032    559.61723    20960.691    2.8545602 
    5850     572.5947   -6911.7358    -6847.862    -389.3644    20999.473    2.8528589 
    5860    584.33536   -6912.5312   -6847.3477   -1252.0742    21037.528    2.8471206 
    5870    580.47735   -6911.5719   -6846.8188   -1457.9991    21073.314    2.8414952 
    5880     575.3699   -6910.4926   -6846.3093   -1449.9715    21106.344    2.8387082 
    5890     569.3496   -6909.3306   -6845.8188   -1515.3662    21136.578    2.8384513 
    5900    574.85907   -6909.4758   -6845.3494   -1862.4666    21163.819    2.8393445 
    5910    572.88199   -6908.8116   -6844.9058   -2072.4037    21187.497    2.8417158 
    5920    570.83355   -6908.1769   -6844.4996   -2094.5891    21207.218    2.8459339 
    5930    582.22089   -6909.0709   -6844.1232   -2211.4706    21222.919    2.8518618 
    5940    593.09876   -6909.9452   -6843.7841   -2698.6231    21234.329    2.8592937 
    5950    583.35045   -6908.5645   -6843.4909   -2867.1427    21240.672    2.8678498 
    5960    586.25438   -6908.6285   -6843.2309   -3007.4566    21241.569    2.8769628 
    5970    586.82695   -6908.4442   -6842.9828    -2885.401    21236.849    2.8864877 
    5980    590.63236   -6908.6294   -6842.7435   -2429.4697    21226.787    2.8943102 
    5990    605.34331   -6910.0375   -6842.5106   -1917.6735    21212.229    2.8990036 
    6000    608.48831    -6910.177   -6842.2992   -1482.8949    21194.153    2.9021064 
    6010    600.47656   -6909.1015   -6842.1174   -1302.5332    21173.376    2.9048974 
    6020    604.33084   -6909.3701    -6841.956   -1103.2536    21150.307    2.9080357 
    6030    602.77935   -6909.0423   -6841.8014   -519.55497    21125.409    2.9133571 
    6040    604.98066     -6909.14   -6841.6535   -262.90163    21099.665    2.9208932 
    6050    614.97296   -6910.1244   -6841.5233   -327.87168    21073.569    2.9291185 
    6060    605.43529    -6908.953   -6841.4158    21.039073    21047.145    2.9383565 
    6070    589.17867   -6907.0379   -6841.3142    368.89267     21020.98    2.9483063 
    6080    592.20944   -6907.2516   -6841.1897    407.34579    20995.671    2.9555165 
    6090    621.64332   -6910.4026   -6841.0574    206.38774    20971.284    2.9589542 
    6100    634.19224   -6911.7082   -6840.9631    324.38368    20947.548    2.9627442 
    6110    618.18663   -6909.8929   -6840.9332    818.39877    20924.676    2.9690068 
    6120    601.11056   -6907.9953   -6840.9405    1464.4841    20903.515    2.9766303 
    6130    606.07145   -6908.5636   -6840.9554    2187.1317    20885.222    2.9843412 
    6140    613.36008   -6909.3999   -6840.9787    2528.1552    20871.026    2.9910275 
    6150    625.79658   -6910.8556   -6841.0471    2401.1684    20861.489    2.9954503 
    6160    624.54378   -6910.8505   -6841.1817    2378.7045    20856.426    2.9989732 
    6170    623.68665     -6910.97   -6841.3968    2274.0852    20855.696    3.0045696 
    6180    607.87797    -6909.484   -6841.6743    2264.9724    20859.131     3.014111 
    6190    600.72367   -6909.0083   -6841.9967    1943.7357    20866.591    3.0261095 
    6200    594.22228   -6908.6231   -6842.3367    1551.2295    20877.521    3.0403456 
    6210    595.06232   -6909.0663   -6842.6862    1062.2246    20891.179    3.0534433 
    6220    592.04668   -6909.0763   -6843.0326    730.80405    20906.704    3.0590047 
    6230    588.90547   -6909.0631   -6843.3698    919.46533    20923.543    3.0543999 
    6240    591.46576   -6909.6749    -6843.696     838.4423    20941.898    3.0453682 
    6250    598.86004   -6910.8207   -6844.0169    324.27467    20961.601    3.0400078 
    6260    586.41542    -6909.738   -6844.3225   -280.75413    20981.742    3.0421582 
    6270    573.24386   -6908.5365   -6844.5903   -627.30465    21001.283    3.0525692 
    6280    579.89254   -6909.4981   -6844.8102   -995.51534    21019.518    3.0691456 
    6290    584.94727   -6910.2425   -6844.9908   -1267.4341     21035.78    3.0868653 
    6300    583.67564   -6910.2583   -6845.1484   -1253.8475    21049.626    3.1015368 
    6310    574.84645   -6909.3976   -6845.2726   -1083.1769    21061.083    3.1139466 
    6320    581.61949   -6910.2315    -6845.351    -1180.748    21070.383    3.1250423 
    6330    584.67607   -6910.6051   -6845.3836   -1284.0442    21077.428    3.1347591 
    6340    584.88653   -6910.6294   -6845.3844   -1451.8341    21082.025    3.1434998 
    6350    605.03667   -6912.8616   -6845.3689   -1804.3211     21083.86    3.1510666 
    6360    605.50453   -6912.8992   -6845.3542   -1680.4638    21082.429    3.1579802 
    6370    593.31902   -6911.5353   -6845.3497   -1203.0063    21077.965    3.1633345 
    6380    585.93029   -6910.6914     -6845.33    -758.7712    21071.308    3.1665958 
    6390    581.65568   -6910.1521   -6845.2676    -91.81981    21063.374    3.1696349 
    6400      572.447   -6908.9947   -6845.1374    597.57695    21055.368     3.173882 
    6410    580.13836    -6909.636   -6844.9207    701.50784    21048.436    3.1798818 
    6420    596.80962   -6911.1796   -6844.6046     700.1227     21042.85    3.1901649 
    6430     600.7149   -6911.2156   -6844.2049     1134.489    21038.696    3.2053373 
    6440    606.33029   -6911.3734   -6843.7363    1424.2567    21036.655    3.2217596 
    6450    607.06866   -6910.9319   -6843.2125    1555.3516    21037.243    3.2371514 
    6460    602.43546   -6909.8601   -6842.6575     1462.546    21040.654    3.2515043 
    6470     604.9393   -6909.5651   -6842.0832    1050.5247    21046.679     3.264927 
    6480    611.92417   -6909.7703   -6841.5092    706.23227    21054.598    3.2775265 
    6490     607.9771   -6908.7878    -6840.967    657.62607    21063.808    3.2895333 
    6500    620.05701   -6909.6458   -6840.4776    511.76139    21074.124      3.29907 
    6510    631.46513   -6910.4934   -6840.0525    503.34709    21085.323     3.304884 
    6520    631.88085   -6910.2116   -6839.7243    334.90242    21097.334    3.3074214 
    6530    623.46922   -6909.0394   -6839.4905    162.34528     21109.87    3.3085607 
    6540    616.91414   -6908.1496   -6839.3319    13.879435    21122.605    3.3110122 
    6550    606.97424   -6906.9297   -6839.2208   -394.02395    21135.218    3.3173463 
    6560    594.52109   -6905.4503   -6839.1306   -902.91328    21146.977     3.326659 
    6570     591.5692   -6905.0245    -6839.034    -1245.227    21156.981    3.3344674 
    6580    594.16596   -6905.2032   -6838.9231   -1426.8204    21164.591    3.3370214 
    6590    592.07293   -6904.8528   -6838.8061   -1306.4846    21169.527    3.3331438 
    6600    595.26448   -6905.0828   -6838.6801   -1273.6763    21171.964    3.3254808 
    6610    605.16179   -6906.0541   -6838.5474   -1355.9869     21171.98    3.3176596 
    6620    599.41722   -6905.2853   -6838.4194     -1133.45    21169.531    3.3100303 
    6630    593.63435   -6904.5112   -6838.2904   -757.81395     21165.03    3.3007308 
    6640    608.73563   -6906.0563    -6838.151   -793.27475    21159.075    3.2904952 
    6650    634.88862   -6908.8559   -6838.0331   -1309.0729    21151.615    3.2833795 
    6660    636.24091   -6908.9607   -6837.9871   -1342.6858    21141.878    3.2813319 
    6670    613.46055   -6906.4442   -6838.0118   -688.72918    21129.865    3.2803982 
    6680    616.43114   -6906.8417   -6838.0779   -422.39594    21116.623    3.2756387 
    6690    618.85835   -6907.2184   -6838.1838    -252.0996    21102.751    3.2692241 
    6700    612.36715   -6906.6514    -6838.341    107.76618    21088.616      3.26482 
    6710    620.93126   -6907.8183   -6838.5525    174.71491    21074.788    3.2629698 
    6720    626.58743   -6908.7367   -6838.8399    418.50823    21061.479    3.2646401 
    6730       607.92    -6907.024   -6839.2096    1362.3429    21049.238    3.2705738 
    6740    598.04197    -6906.341   -6839.6285     2016.501    21039.628    3.2776568 
    6750    606.99929    -6907.809   -6840.0973    1715.7297     21033.71     3.282955 
    6760    601.55972   -6907.7329    -6840.628    952.79723    21030.968    3.2870636 
    6770    582.90064   -6906.2093   -6841.1858    330.76339    21030.046    3.2907742 
    6780    577.35562   -6906.1261   -6841.7213     118.2227    21029.819    3.2944744 
    6790     586.5512   -6907.6539   -6842.2233   -124.67275     21029.81    3.2982936 
    6800    587.84274   -6908.2653   -6842.6905   -174.73237    21029.625    3.3022861 
    6810     574.7137   -6907.2007   -6843.0906   -217.91497     21029.12    3.3052764 
    6820    567.21841   -6906.6758   -6843.4017   -519.67023    21028.184    3.3057661 
    6830    575.02596   -6907.7725   -6843.6275   -931.53164    21026.291    3.3033447 
    6840    589.68716   -6909.5719   -6843.7914   -1314.3387    21022.723    3.2990737 
    6850    609.27512   -6911.9021   -6843.9365   -1553.4672    21016.819    3.2952182 
    6860    609.68191   -6912.1041   -6844.0932   -1457.0983    21008.215    3.2935217 
    6870    599.39607   -6911.1178   -6844.2542    -1229.076    20997.132    3.2921281 
    6880    601.00293    -6911.452   -6844.4093     -1257.71    20983.946    3.2898727 
    6890    587.22369   -6910.0504   -6844.5447   -1043.9805    20968.724    3.2903904 
    6900    569.23337   -6908.1316   -6844.6328    -431.3171    20951.959    3.2955802 
    6910    564.68454   -6907.6353   -6844.6439   -29.396954    20934.695    3.3040047 
    6920    570.50584   -6908.2189   -6844.5782     295.9706    20917.705    3.3144346 
    6930     570.4589    -6908.087   -6844.4515    450.81376    20901.557    3.3254718 
    6940    572.83197   -6908.1781   -6844.2778    167.63542    20886.481    3.3344866 
    6950    594.37685   -6910.3892   -6844.0855   -452.43475    20871.954    3.3400825 
    6960    593.57835   -6910.1158   -6843.9013   -578.57545    20857.002     3.343728 
    6970      585.513   -6909.0417   -6843.7268   -343.68166    20841.384    3.3455496 
    6980     605.8285     -6911.14   -6843.5589   -348.69189    20825.444    3.3451357 
    6990    613.25041   -6911.8259   -6843.4169   -65.565484    20809.272    3.3451916 
    7000    603.39293    -6910.622   -6843.3126    877.49825    20793.447    3.3472623 
    7010    599.44997   -6910.0937   -6843.2242    1523.9878    20779.479    3.3499218 
    7020    609.30239   -6911.1179   -6843.1493     1918.802    20768.526    3.3523087 
    7030    610.82129   -6911.2381   -6843.1001    2335.8338     20761.27    3.3577077 
    7040    612.26609   -6911.3825   -6843.0833    2479.6744    20758.316    3.3706819 
    7050    616.60637   -6911.8776   -6843.0943    2281.0293    20759.809    3.3908451 
    7060    613.60099   -6911.5808   -6843.1327    2086.7545    20765.353    3.4121486 
    7070    614.30346   -6911.7278   -6843.2013    1848.3197    20774.503    3.4282768 
    7080    612.57995   -6911.6377   -6843.3035    1562.6882    20786.763    3.4368531 
    7090    597.86671   -6910.1175   -6843.4246    1222.0047     20801.55    3.4382069 
    7100    594.21267    -6909.823   -6843.5377    652.89678    20818.159    3.4351649 
    7110    604.17272    -6911.036   -6843.6396     364.2076    20835.635    3.4306943 
    7120    604.90198   -6911.2236   -6843.7459    319.06204    20853.426    3.4256205 
    7130    599.54172   -6910.7401   -6843.8603    106.40729    20871.374    3.4212917 
    7140    592.88708   -6910.1073   -6843.9699   -333.92015    20889.095    3.4227534 
    7150    578.01281   -6908.5311   -6844.0529   -685.98278    20905.861    3.4351575 
    7160    575.65038   -6908.3038   -6844.0892   -1062.4401    20921.035    3.4550178 
    7170     587.4695   -6909.6085   -6844.0754   -1681.8877     20933.91    3.4743346 
    7180    588.63699   -6909.6864   -6844.0231   -2166.6337    20943.478    3.4895957 
    7190    594.05409   -6910.2195   -6843.9519   -2212.2146    20948.989    3.5024891 
    7200    596.22703   -6910.3753   -6843.8653   -1651.2989    20950.467    3.5159509 
    7210    595.85075   -6910.2367   -6843.7686   -835.37361     20948.96    3.5310254 
    7220    585.40979    -6908.955   -6843.6517   -307.93699    20945.929    3.5454577 
    7230    580.67112   -6908.2652   -6843.4905    -147.7954    20942.354    3.5543293 
    7240    591.73541   -6909.2732   -6843.2643    -159.5321    20938.563    3.5583659 
    7250    603.56667   -6910.3031   -6842.9743   -160.24035    20934.566    3.5629333 
    7260     598.9202   -6909.4441   -6842.6336   -17.345914    20930.394     3.571904 
    7270    591.64502   -6908.2348   -6842.2359    499.55085    20926.354    3.5846816 
    7280    585.79973   -6907.0951   -6841.7483    1221.2839     20923.34    3.5980436 
    7290    597.28549   -6907.7851    -6841.157    1637.0624    20922.544    3.6088627 
    7300    605.14528   -6907.9788   -6840.4739    1602.3305    20924.663     3.615469 
    7310    617.30899   -6908.6201   -6839.7584     1239.142    20929.615    3.6177242 
    7320    630.85878   -6909.4413   -6839.0681    628.82164    20936.681    3.6178981 
    7330    625.94018   -6908.2976    -6838.473    341.21231    20944.816    3.6175609 
    7340    610.14775   -6906.0589    -6837.996    240.44461    20953.473     3.617315 
    7350    604.28455   -6905.0186   -6837.6098  -0.17778591    20962.415    3.6185802 
    7360    598.65364   -6904.0644   -6837.2837   -381.95847    20971.185    3.6216297 
    7370    603.91039   -6904.3709   -6837.0038   -929.78095    20979.088    3.6273065 
    7380     617.3648   -6905.6385   -6836.7705   -1479.3222    20985.163     3.636312 
    7390    620.61107    -6905.836   -6836.6059   -1598.2317    20988.485    3.6462136 
    7400    608.04708   -6904.3352   -6836.5066   -1146.0947    20988.918    3.6535981 
    7410    603.63228   -6903.7793   -6836.4432   -817.36398    20987.223    3.6577439 
    7420    612.63829   -6904.7417   -6836.4009   -809.88271    20984.011    3.6604158 
    7430    619.03228    -6905.445   -6836.3911    -901.0541    20979.342    3.6624941 
    7440    617.00931   -6905.2494   -6836.4211   -631.10329    20973.157    3.6620849 
    7450     622.6643   -6905.9471   -6836.4879   -393.01533    20965.897    3.6572118 
    7460    627.60329   -6906.6145   -6836.6044   -276.64269    20958.006    3.6482986 
    7470    613.50286   -6905.2022    -6836.765   -131.56637    20949.726    3.6384581 
    7480    619.07487   -6906.0167    -6836.958    107.29859    20941.336    3.6307099 
    7490    628.13173   -6907.2581   -6837.1891    335.71209     20933.22    3.6292469 
    7500    620.78591   -6906.7127   -6837.4631    935.98221    20925.892    3.6356096 
    7510    615.21257   -6906.3949    -6837.767    1223.5053    20920.302    3.6444138 
    7520    624.46029   -6907.7592   -6838.0997    867.80966    20916.887    3.6494483 
    7530    627.29566    -6908.446   -6838.4703     407.1246    20915.077    3.6486731 
    7540    621.19113   -6908.1765   -6838.8817    343.60474    20914.083    3.6437911 
    7550    597.16593   -6905.9033   -6839.2885    834.32375    20913.833    3.6376179 
    7560    588.52166    -6905.298   -6839.6475    1128.1687    20915.086    3.6301091 
    7570    590.80863   -6905.8516    -6839.946    1097.7962    20918.329    3.6226771 
    7580    602.82442   -6907.4475   -6840.2016    819.36139    20923.496    3.6196834 
    7590    610.04278   -6908.4916   -6840.4404    539.55527    20930.105    3.6250059 
    7600    601.14401   -6907.7265    -6840.668    621.38986    20937.703    3.6364922 
    7610     604.7523    -6908.338    -6840.877    590.11988    20946.359    3.6481533 
    7620    618.65455   -6910.0932   -6841.0813    179.42143    20955.946      3.65751 
    7630    607.19895   -6909.0307   -6841.2967    27.765562    20965.809    3.6657082 
    7640    576.84422   -6905.8397   -6841.4918    129.33019    20975.666    3.6726105 
    7650    568.25468   -6905.0136   -6841.6239    23.609745    20985.637    3.6763858 
    7660    581.91379   -6906.5946   -6841.6812   -414.36039     20995.51    3.6778067 
    7670     594.8107   -6908.0472   -6841.6951   -676.10477    21004.575    3.6808458 
    7680    584.90965   -6906.9338   -6841.6862   -564.74872    21012.388    3.6872292 
    7690    581.17071   -6906.4829   -6841.6525   -519.24142    21019.075    3.6935906 
    7700    589.76644   -6907.3722   -6841.5828   -268.75502    21024.808    3.6975839 
    7710    615.47439   -6910.1592   -6841.5021   -245.84792    21029.957    3.7006173 
    7720    625.47314   -6911.2248   -6841.4523   -39.827973    21034.658     3.705642 
    7730    625.55267    -6911.241   -6841.4597    28.200895    21039.244    3.7120762 
    7740    634.16236   -6912.2748    -6841.533   -265.89788    21043.793    3.7173859 
    7750    618.97642   -6910.7237   -6841.6759   -168.40856    21047.896     3.721794 
    7760    589.98295   -6907.6656   -6841.8521    462.73226     21051.76    3.7266357 
    7770    575.77965   -6906.2395   -6842.0104    846.12467    21056.408    3.7330294 
    7780    571.59873   -6905.8818   -6842.1191     816.7862    21062.535    3.7415486 
    7790    578.89305    -6906.745   -6842.1686    450.95592    21070.084    3.7530096 
    7800    596.05855     -6908.67   -6842.1788   -66.300173    21078.379     3.766077 
    7810    584.63742   -6907.3847   -6842.1675    253.79159    21086.664    3.7764975 
    7820    576.23715   -6906.4087   -6842.1286    853.18825    21095.428    3.7802482 
    7830    580.71556   -6906.8206   -6842.0409    907.54591    21105.636    3.7801861 
    7840    578.07173    -6906.375   -6841.8902    670.48859    21117.439    3.7836104 
    7850    587.86214   -6907.2564   -6841.6795    388.04557    21130.432    3.7939257 
    7860    592.62685   -6907.5125   -6841.4041   -93.505425    21144.045    3.8100907 
    7870     600.8729   -6908.0988   -6841.0705   -683.32755    21157.377    3.8306101 
    7880    600.03876    -6907.616   -6840.6808   -1064.8119    21169.397    3.8537344 
    7890    606.37444   -6907.8856   -6840.2437   -1425.4498    21179.357     3.875203 
    7900    612.70022   -6908.1061   -6839.7584     -1571.73    21186.614    3.8942434 
    7910    607.62005   -6907.0191   -6839.2382   -1606.6381    21190.873    3.9109776 
    7920    598.98662   -6905.5028   -6838.6849   -1353.8461    21192.168    3.9229674 
    7930    596.40886    -6904.616   -6838.0857   -958.12868    21190.952    3.9297142 
    7940    598.01351   -6904.1542   -6837.4448   -647.47302    21187.925     3.933899 
    7950    596.19697   -6903.2889   -6836.7823   -580.12391    21183.674    3.9380985 
    7960    605.06994   -6903.6322   -6836.1357   -582.41153    21178.363    3.9439844 
    7970    620.49128   -6904.7616   -6835.5449    -370.2172    21172.052    3.9537743 
    7980    622.74286   -6904.5348   -6835.0669    51.883483    21165.136    3.9657242 
    7990    622.43062   -6904.1503   -6834.7172    426.42487    21158.361    3.9729237 
    8000    632.79514   -6905.0681   -6834.4789    308.47256    21152.338    3.9719737 
    8010    633.20282    -6904.983   -6834.3483    493.09338     21147.02    3.9665681 
    8020    634.34938   -6905.0784   -6834.3158     583.5264    21142.648    3.9611597 
    8030    630.27395   -6904.6704   -6834.3624    638.34527    21139.383    3.9606633 
    8040    623.32688   -6903.9957   -6834.4626    823.24704    21137.357    3.9662227 
    8050    628.77965   -6904.7505   -6834.6092      943.265    21136.884    3.9746833 
    8060    623.84295   -6904.3893   -6834.7987    981.48205    21138.167    3.9851973 
    8070    614.56771   -6903.5721   -6835.0161    646.57115    21141.216    3.9967946 
    8080    614.17671   -6903.7546   -6835.2422   -26.845741     21145.42    4.0068705 
    8090    620.28229   -6904.6712   -6835.4778   -1025.2685    21149.479    4.0143667 
    8100    616.63498   -6904.5241   -6835.7375   -1455.0598    21151.705    4.0245224 
    8110    605.32776   -6903.5445   -6836.0192   -1479.3002    21151.263    4.0403299 
    8120    591.45264   -6902.2685    -6836.291    -1151.869    21148.122    4.0558524 
    8130    603.79069    -6903.897   -6836.5432   -650.88021    21142.871     4.064669 
    8140    621.38448   -6906.1129   -6836.7965   -79.497606    21136.458    4.0685126 
    8150    625.59255   -6906.8694   -6837.0836    253.71611    21129.879    4.0705177 
    8160      621.734   -6906.7692   -6837.4138    459.17382    21123.785    4.0712121 
    8170    617.34047   -6906.6467   -6837.7815    384.08744    21118.522    4.0712603 
    8180    603.13486   -6905.4498   -6838.1692    375.59257    21114.018    4.0728049 
    8190    583.30493   -6903.6015    -6838.533    418.11433    21110.254     4.076945 
    8200     592.9635   -6905.0029   -6838.8569    159.50939    21107.231    4.0814422 
    8210    597.47028   -6905.7965   -6839.1478    374.97355    21104.617    4.0855953 
    8220    598.92301   -6906.2241   -6839.4134    814.48684    21102.741    4.0877505 
    8230    613.37845   -6908.0854   -6839.6621    812.49544    21102.328    4.0870164 
    8240    635.25742   -6910.8032   -6839.9393    413.00029    21103.366    4.0872372 
    8250    629.32468   -6910.4807   -6840.2786    184.93869    21105.189    4.0931093 
    8260    599.72662   -6907.5429   -6840.6425    149.60601    21107.396    4.1031161 
    8270    588.47268   -6906.6144   -6840.9694   -270.74276    21109.812    4.1114868 
    8280     589.8913   -6907.0456   -6841.2423   -721.13276    21111.722    4.1154643 
    8290    603.27935   -6908.7804   -6841.4837    -1017.638    21112.312     4.114572 
    8300    606.30436   -6909.3557   -6841.7215   -951.85014    21111.081    4.1105963 
    8310    584.78821   -6907.1808   -6841.9468   -844.46359    21108.092    4.1071521 
    8320    577.26314   -6906.5217   -6842.1271    -837.5546    21103.555    4.1067696 
    8330    590.75553   -6908.1587    -6842.259   -751.29945    21097.502    4.1119148 
    8340    589.47041   -6908.1129   -6842.3566   -353.28195    21090.145    4.1266711 
    8350    578.33934   -6906.9402   -6842.4256    122.64764    21082.184    4.1478191 
    8360    572.21102   -6906.2727   -6842.4417    278.13823    21074.444     4.163241 
    8370    594.04646   -6908.6728    -6842.406   -225.29458    21067.135    4.1645456 
    8380    619.67934    -6911.486   -6842.3599   -694.59366    21059.453    4.1546986 
    8390    615.83842   -6911.0493   -6842.3516   -780.37388    21050.571    4.1451176 
    8400    599.53059   -6909.2612   -6842.3827   -570.22122    21040.326    4.1432427 
    8410    586.00244   -6907.7822   -6842.4128   -284.14269    21029.109    4.1457824 
    8420    584.95043   -6907.6712   -6842.4191     -169.711    21017.387    4.1502686 
    8430    582.24327   -6907.3374   -6842.3873    -17.64493    21005.411    4.1598275 
    8440    580.56274   -6907.0729   -6842.3103    236.63877    20993.471     4.174339 
    8450    583.05735    -6907.225   -6842.1841    517.69049    20982.038    4.1888755 
    8460    594.05277    -6908.286   -6842.0185    345.47456    20971.527     4.199759 
    8470    594.57242   -6908.1552   -6841.8298    109.39283    20961.695    4.2067648 
[...]
   22890    575.86207   -6912.2079   -6847.9696    2817.7108     20798.78    10.480948 
   22900    587.99924   -6913.4739   -6847.8817     2431.282    20801.471    10.477073 
   22910    588.09049   -6913.3538   -6847.7514     1793.977    20808.497    10.476733 
   22920    582.85022   -6912.5924   -6847.5746    1475.2853    20818.787    10.484053 
   22930    584.83465   -6912.5727   -6847.3336    1501.0278    20831.724    10.502949 
   22940    581.12605   -6911.8341   -6847.0087    1755.1128    20847.343    10.532088 
   22950    591.12052   -6912.5277   -6846.5873    1425.2051    20865.953    10.564391 
   22960    590.63769   -6911.9366   -6846.0501    985.68144    20887.043    10.599079 
   22970    582.40986   -6910.3863   -6845.4176    526.28924    20909.784    10.636454 
   22980    585.94919   -6910.0598   -6844.6962    272.33699    20933.389    10.670078 
   22990    600.54816   -6910.9182   -6843.9261     223.9424    20957.365    10.697435 
   23000    601.99291   -6910.3432     -6843.19    397.21404    20981.637    10.725335 
   23010    608.99128    -6910.491   -6842.5571    278.26033    21006.425    10.761746 
   23020    623.65994   -6911.6106   -6842.0404   -122.38196    21031.482     10.80587 
   23030    632.58556   -6912.2288   -6841.6629   -561.71274    21056.085    10.849532 
   23040    620.70115     -6910.66   -6841.4199   -564.01748    21079.557    10.885011 
   23050    609.59737   -6909.2692   -6841.2677   -784.26287    21101.767    10.909001 
   23060    619.41453   -6910.2597   -6841.1631   -1533.0551    21122.258    10.924469 
   23070    617.72318    -6910.005   -6841.0971   -2156.1899    21139.746    10.938494 
   23080     611.5847   -6909.2991   -6841.0759   -2167.4829    21153.168     10.95169 
   23090    596.69293   -6907.6456   -6841.0836   -1832.7418    21162.499    10.961789 
   23100    588.24225   -6906.7096   -6841.0903   -1818.6556    21168.273     10.96751 
   23110    592.02854   -6907.1237    -6841.082   -1845.8171    21170.606    10.968943 
   23120    592.67149   -6907.1682   -6841.0548   -1754.9066    21169.498    10.965628 
   23130    610.08502   -6909.0807   -6841.0248   -1613.3871    21165.143    10.954589 
   23140    621.01631   -6910.2919   -6841.0166   -1573.0925    21157.781    10.939616 
   23150    614.99546   -6909.6593   -6841.0556   -1649.0203    21147.536    10.924298 
   23160    611.24958   -6909.3231   -6841.1373   -1990.4781    21134.271    10.907474 
   23170    612.29311   -6909.5577   -6841.2555   -2399.0893      21117.4    10.888423 
   23180    602.98611   -6908.6668   -6841.4028   -2327.7361    21096.302    10.868466 
   23190    599.29437   -6908.4142   -6841.5621   -1963.7788    21071.104    10.848053 
   23200    607.27557   -6909.4672   -6841.7247    -1332.689    21042.557    10.825718 
   23210    608.46889   -6909.7685   -6841.8929   -447.57855    21011.881    10.799179 
   23220    612.93592   -6910.4489    -6842.075    328.79987    20980.689    10.767467 
   23230    614.76046   -6910.8682   -6842.2907    569.29198    20950.331    10.731539 
   23240    608.33038   -6910.4035   -6842.5433    986.86717     20921.38    10.690718 
   23250    616.57718   -6911.6158   -6842.8357    1365.6061    20894.528    10.650055 
   23260    619.32513   -6912.2688   -6843.1821    1771.5747    20870.487    10.624655 
   23270    611.55709   -6911.8025   -6843.5824    2146.4358     20849.93    10.621801 
   23280    599.49715   -6910.8893   -6844.0144    2400.9946    20833.474    10.633182 
   23290    598.50207   -6911.2195   -6844.4557    2333.6826      20821.5    10.644977 
   23300    604.94579   -6912.3878   -6844.9052    1862.5832    20813.798    10.652882 
   23310    606.42202   -6913.0078   -6845.3606    1727.2944    20809.599     10.66143 
   23320     609.1763   -6913.7752   -6845.8207    1898.3606    20808.613    10.669628 
   23330    605.24451   -6913.7847   -6846.2687    1800.6936    20811.025    10.674049 
   23340    606.92838   -6914.3853   -6846.6815    1324.7362    20816.601     10.67437 
   23350    614.65462   -6915.6381   -6847.0724    849.22012    20824.512    10.671198 
   23360    615.36401   -6916.0903   -6847.4455    685.61673     20833.93    10.664533 
   23370    595.98045   -6914.2643   -6847.7818    637.18884    20844.516     10.65932 
   23380    588.41557   -6913.6974   -6848.0588    264.54379    20856.089     10.65952 
   23390    588.26545   -6913.8929    -6848.271    -53.68526    20868.022    10.663042 
   23400    591.09895   -6914.3745   -6848.4365    123.13089    20879.801    10.669516 
   23410    581.83762   -6913.4635   -6848.5586     642.2872    20891.708    10.677441 
   23420    574.33601   -6912.6969   -6848.6288      1018.95    20904.622    10.683126 
   23430    579.93387   -6913.3363   -6848.6439    976.89169    20919.182    10.686326 
   23440    590.12624   -6914.4456   -6848.6162    422.11439     20935.24    10.690165 
   23450    591.15895   -6914.5033   -6848.5587    164.45547    20951.939    10.698046 
   23460    592.89833   -6914.6181   -6848.4794   -139.19283    20968.713    10.711491 
   23470    606.13093   -6916.0053   -6848.3905   -621.92024    20984.988    10.729137 
   23480    600.19673   -6915.2664   -6848.3135   -751.28211    20999.972    10.747708 
   23490    574.43071   -6912.3136    -6848.235    -669.0996    21013.403    10.760421 
   23500    581.71127    -6913.014   -6848.1232   -871.55928    21025.377    10.757658 
   23510    595.96911   -6914.4534   -6847.9721   -1133.5696    21035.588     10.73996 
   23520    597.19245   -6914.4299   -6847.8122   -1140.7088    21043.625    10.718688 
   23530    592.64012   -6913.7604   -6847.6505   -813.71462    21049.523    10.703075 
   23540    591.99457   -6913.5153   -6847.4774   -517.27591    21053.856    10.695804 
   23550    607.69456   -6915.0863    -6847.297   -706.87366    21057.109    10.698745 
   23560    608.01549   -6914.9527   -6847.1276   -862.54167    21059.031    10.713673 
   23570    593.18696   -6913.1469    -6846.976   -807.38148    21059.375    10.734811 
   23580    595.72466   -6913.2729   -6846.8189   -874.87305    21058.216    10.753896 
   23590    602.05534   -6913.8126   -6846.6524   -966.41718    21055.445    10.770501 
   23600    581.45662   -6911.3361   -6846.4737   -470.21578    21051.052    10.788808 
   23610    572.76865   -6910.1544   -6846.2612   -86.084016    21045.829    10.808774 
   23620    572.47892   -6909.8451   -6845.9843   -130.88375    21040.444    10.825395 
   23630    581.67658   -6910.5266   -6845.6397   -232.25833    21034.891    10.833421 
   23640    590.36848   -6911.0936   -6845.2372   -140.28481    21029.025    10.830288 
   23650    593.18126   -6910.9692    -6844.799   -106.38044    21022.956    10.820425 
   23660    606.08781   -6911.9573   -6844.3473    69.864537    21016.797      10.8136 
   23670     615.1431   -6912.5291    -6843.909    577.04275    21010.886    10.817624 
   23680    612.15061   -6911.7992   -6843.5129    1180.4875    21006.121     10.83373 
   23690    625.14225   -6912.9088   -6843.1733    1270.9766    21003.495    10.856134 
   23700     631.5984   -6913.3677   -6842.9119    1228.9825    21003.233    10.877268 
   23710    615.92778   -6911.4484   -6842.7408    1259.7597    21005.262    10.893539 
   23720    614.77727   -6911.2159   -6842.6365    999.03042    21009.527    10.903875 
   23730    616.16401     -6911.31    -6842.576    892.39496    21015.611     10.90896 
   23740    599.32343   -6909.4017   -6842.5463    1280.8785    21023.375    10.910664 
   23750    598.62006   -6909.3055   -6842.5285     1035.814    21033.306    10.910568 
   23760    611.22854   -6910.6953   -6842.5118    582.67179    21045.018    10.911339 
   23770    613.10917    -6910.907   -6842.5137    650.67584    21057.778    10.919108 
   23780    619.01145   -6911.5954   -6842.5437    638.64954    21071.594    10.936927 
   23790    628.49419   -6912.7204    -6842.611    310.39369    21086.394    10.959466 
   23800    626.80297   -6912.6471   -6842.7262   -40.502106    21101.629    10.979609 
   23810    620.27231   -6912.0659   -6842.8736   -550.96677    21116.606    10.992902 
   23820    622.67149   -6912.4955   -6843.0356   -1222.5223    21130.363    11.000528 
   23830    623.21233   -6912.7309   -6843.2107   -1637.1219    21141.744    11.010204 
   23840    624.56068   -6913.0824   -6843.4117     -1640.37    21150.015    11.025085 
   23850    618.26419   -6912.6057   -6843.6374   -1104.4575    21155.255     11.04374 
   23860    616.73764   -6912.6736   -6843.8756   -788.84131    21158.327    11.062695 
   23870    611.05755   -6912.2801   -6844.1158   -474.08141    21159.895    11.079954 
   23880    603.25721   -6911.6391   -6844.3448    42.753854    21160.597     11.09533 
   23890    601.00013   -6911.5993   -6844.5569    502.38682     21161.36    11.109179 
   23900    599.62566   -6911.6362   -6844.7471    531.01528     21162.98    11.118932 
   23910    602.30573   -6912.1124   -6844.9242    88.456378    21165.499    11.123486 
   23920    598.54532   -6911.8577    -6845.089   -111.03891    21168.236    11.125174 
   23930    604.10945   -6912.6347   -6845.2454   -138.54765    21170.779     11.12881 
   23940    613.55232   -6913.8483   -6845.4056   -44.691288    21173.087    11.138176 
   23950    616.71384   -6914.3886   -6845.5932   -29.523035    21175.274    11.148971 
   23960     606.5056   -6913.4623   -6845.8057    -131.6025    21177.356    11.154433 
   23970    593.95048    -6912.278   -6846.0219   -416.99978    21179.146    11.150088 
   23980    592.75876    -6912.345   -6846.2219   -898.63862    21180.112    11.135042 
   23990    595.29967   -6912.8123   -6846.4058   -1380.6523    21179.391    11.112429 
   24000    589.41988   -6912.3239   -6846.5732   -1475.8716    21176.175     11.08898 
   24010    591.42388   -6912.6942     -6846.72    -1200.621    21170.298    11.073364 
   24020     592.4695   -6912.9333   -6846.8425   -829.34699    21162.253    11.069821 
   24030    590.76444   -6912.8476   -6846.9469   -630.87928    21152.696    11.073382 
   24040    580.73198   -6911.8072   -6847.0257   -348.69636    21142.075    11.076018 
   24050    587.77196   -6912.6398   -6847.0729   -265.15642    21130.885    11.067669 
   24060    601.47574    -6914.196   -6847.1005   -381.94149    21119.266    11.052392 
   24070    599.81441   -6914.0378   -6847.1276   -185.52381    21107.096    11.040645 
   24080    600.02403   -6914.0955   -6847.1619    95.002151    21094.708    11.036797 
   24090    586.06155   -6912.5638   -6847.1877    405.07033     21082.63    11.041799 
   24100    583.10196   -6912.2318   -6847.1859    374.12903    21071.354    11.051444 
   24110    584.22574   -6912.3141   -6847.1429     379.5278    21060.885    11.055415 
   24120    572.07865   -6910.8616   -6847.0454    728.13326    21051.298    11.045948 
   24130    579.89724   -6911.5654    -6846.877    719.46621    21043.074    11.026794 
   24140    588.91427   -6912.3177   -6846.6234    870.08421     21036.31    11.005967 
   24150    596.47492   -6912.8379   -6846.3002      1124.17    21031.237    10.989513 
   24160    599.38232   -6912.7703   -6845.9083    1455.0177    21028.312    10.984038 
   24170    615.81995   -6914.1493   -6845.4537    1090.1968    21027.982    10.994519 
   24180    632.71883   -6915.5423   -6844.9615    150.84346    21029.558    11.018743 
   24190    621.13403   -6913.7679   -6844.4794   -56.325688    21031.544    11.048361 
   24200     622.3848   -6913.4508   -6844.0228    26.264003     21033.47    11.069936 
   24210    628.03568   -6913.6418   -6843.5835    10.374203    21035.411    11.077872 
   24220     620.3408   -6912.3821   -6843.1822    -61.60394    21037.359    11.075833 
   24230    619.49045   -6911.9285   -6842.8234   -657.81921    21039.094    11.065309 
   24240    612.21799   -6910.7946   -6842.5008   -1260.5875    21039.597    11.050329 
   24250    600.18523   -6909.1622   -6842.2106   -1346.4472    21037.838    11.039511 
   24260    586.28249   -6907.3184   -6841.9177   -932.45339    21033.708    11.041678 
   24270    590.60429   -6907.4791   -6841.5963   -1035.3207    21027.789    11.058816 
   24280    604.23132   -6908.6395   -6841.2365   -1399.6761    21019.959    11.085721 
   24290    630.36694   -6911.1943   -6840.8759   -1517.4295    21009.654     11.11133 
   24300    635.63001     -6911.47   -6840.5645   -1352.2786    20996.694    11.122818 
   24310    639.38529   -6911.6676   -6840.3432   -1354.5001    20981.306    11.116022 
   24320    630.18285    -6910.513   -6840.2152    -1215.787    20963.591    11.098204 
   24330      618.881   -6909.1921    -6840.155    -1082.221    20943.802    11.077586 
   24340    623.46769    -6909.687   -6840.1383    -872.4745    20922.229    11.059836 
   24350    627.46964   -6910.1574   -6840.1622   -305.50916    20899.328    11.049304 
   24360    629.09551   -6910.4179   -6840.2413    516.76863     20876.15    11.045995 
   24370    636.47361   -6911.3961   -6840.3965    943.94188    20854.076    11.046259 
   24380    640.07116   -6912.0604   -6840.6595    822.20309    20833.858    11.046719 
   24390    634.55456   -6911.8356   -6841.0501    402.82428    20815.288    11.047778 
   24400    618.37364   -6910.5386   -6841.5581    415.36516    20797.714    11.049267 
   24410    597.88514   -6908.8196   -6842.1246    863.57264    20781.132    11.047693 
   24420    602.72072   -6909.9518   -6842.7174     1394.096    20766.301    11.043259 
   24430     599.8299   -6910.2369    -6843.325    1655.0897    20754.083    11.040083 
   24440    596.08252   -6910.4015   -6843.9076    1653.4648    20744.925    11.044339 
   24450    608.76266   -6912.3626   -6844.4542    1452.7458    20738.798    11.054174 
   24460    604.56038   -6912.3916    -6844.952     1455.509    20735.373    11.064995 
   24470    590.80811   -6911.2669   -6845.3614    1625.1461     20734.63    11.073811 
   24480    607.24434   -6913.4244   -6845.6853    1487.0893    20736.748    11.076413 
   24490    608.58632   -6913.8409   -6845.9522     1604.793    20741.581    11.076011 
   24500    590.98995    -6912.091   -6846.1652     1687.628    20749.253    11.074515 
   24510     594.3259   -6912.6196   -6846.3216    1682.3998    20759.882    11.068636 
   24520    611.69565    -6914.682   -6846.4465    1678.9334     20773.47    11.055657 
   24530    610.88851   -6914.7179   -6846.5724    1303.0612    20789.929    11.039748 
   24540    595.89844   -6913.1666   -6846.6932    589.80455    20808.579    11.031426 
   24550    590.53504   -6912.6632   -6846.7881   -430.11862    20828.089    11.037528 
   24560    573.85633   -6910.8474   -6846.8329   -822.62364    20846.796    11.056256 
   24570    582.38017   -6911.7947   -6846.8294   -1007.2929     20863.88    11.078502 
   24580    591.56322   -6912.7763   -6846.7866   -867.06404    20879.065    11.097725 
   24590     589.3213   -6912.4667   -6846.7271   -632.68014    20892.567    11.110921 
   24600    587.58672   -6912.1944   -6846.6483   -606.13465    20904.778    11.117808 
   24610    594.13132   -6912.8237   -6846.5475   -694.38867    20915.781    11.119125 
   24620    596.77101   -6913.0004   -6846.4297   -780.25157     20925.43    11.118019 
   24630    600.60107   -6913.3019    -6846.304    -873.9099    20933.584    11.115736 
   24640    615.98287   -6914.8993   -6846.1855   -1161.0852    20940.043    11.113252 
   24650     611.2392   -6914.2767    -6846.092   -1100.6354    20944.397    11.112509 
   24660    593.40964   -6912.2193   -6846.0236   -798.27227    20946.742    11.116744 
   24670    585.84511   -6911.2987   -6845.9468   -803.01971    20947.561    11.124892 
   24680    593.01979   -6911.9947   -6845.8425   -1038.2602    20946.874    11.132463 
   24690    596.30664   -6912.2307   -6845.7118   -1203.8559    20944.313    11.138553 
   24700    593.42685   -6911.7594   -6845.5617   -1065.5166    20939.627    11.145252 
   24710    587.77321   -6910.9492   -6845.3822   -649.73011    20933.089    11.155258 
   24720     599.4093   -6912.0309   -6845.1659   -542.14773    20925.345    11.165389 
   24730    619.95445   -6914.0914   -6844.9346   -475.53454    20916.695    11.168541 
   24740    619.12902   -6913.7919   -6844.7271   -222.55967    20907.268    11.162525 
   24750    604.50699   -6911.9871   -6844.5534    839.31909    20897.651    11.154241 
   24760    602.30763   -6911.5761   -6844.3878     1818.458     20889.63    11.155432 
   24770    599.27927   -6911.0587   -6844.2081    2364.6613    20884.931    11.171601 
   24780    612.03133    -6912.301    -6844.028    2331.4163    20884.478    11.196332 
   24790    627.17199   -6913.8272   -6843.8652    2075.0498    20888.243    11.222118 
   24800    620.46383   -6912.9561   -6843.7424    1912.8835    20895.774    11.247109 
   24810    619.42559   -6912.7587   -6843.6609    1648.6301    20906.721    11.267782 
   24820    621.63415   -6912.9626   -6843.6184    1465.2884    20920.625    11.282714 
   24830    611.15271   -6911.7957   -6843.6207    1302.1891    20937.123     11.29722 
   24840    596.86506   -6910.2287   -6843.6475    845.30671    20955.828    11.320205 
   24850    590.97211   -6909.5923   -6843.6685    49.008567    20975.874     11.35411 
   24860    577.10963   -6908.0315   -6843.6541   -581.22326    20995.891    11.390726 
   24870    588.38638   -6909.2253   -6843.5899    -1127.874    21014.692    11.419995 
   24880    604.03659   -6910.8647   -6843.4835   -1217.6187     21031.33    11.439194 
   24890    584.09273   -6908.5137   -6843.3573   -525.39831    21045.729    11.451454 
   24900    575.74457   -6907.4174   -6843.1922   -180.22017    21058.969     11.46308 
   24910     592.2552   -6909.0195   -6842.9525   -512.87553    21071.645    11.483349 
   24920    610.50671   -6910.7526   -6842.6497   -928.07997    21083.257    11.515848 
   24930    605.90679   -6909.9102   -6842.3204   -824.37113     21093.14    11.552777 
   24940    601.74277   -6909.1042   -6841.9789   -672.19569    21101.415    11.585104 
   24950     610.1285   -6909.6735   -6841.6128   -618.33747    21108.377    11.611952 
   24960    616.93897   -6910.0567   -6841.2363   -470.46001    21114.145    11.637169 
   24970    619.98179   -6910.0289    -6840.869   -355.99914    21118.992    11.665368 
   24980    645.23025   -6912.5135   -6840.5371   -782.03427     21123.03     11.69781 
   24990    648.40797   -6912.6138   -6840.2829   -1111.8042    21125.593    11.731682 
   25000    634.39251   -6910.9024    -6840.135   -1094.6682    21126.129    11.760185 
Loop time of 14669.3 on 16 procs for 20000 steps with 864 atoms

Performance: 0.118 ns/day, 203.740 hours/ns, 1.363 timesteps/s
97.1% CPU use with 16 MPI tasks x 1 OpenMP threads

MPI task timing breakdown:
Section |  min time  |  avg time  |  max time  |%varavg| %total
---------------------------------------------------------------
Pair    | 8595.6     | 11801      | 14498      |1427.0 | 80.44
Bond    | 0.0018482  | 0.0060588  | 0.019391   |   6.4 |  0.00
Neigh   | 0.1943     | 0.27277    | 0.37081    |  10.8 |  0.00
Comm    | 53.329     | 2071.4     | 4977       |3275.6 | 14.12
Output  | 2.8536     | 2.8809     | 3.2818     |   6.1 |  0.02
Modify  | 1.5094     | 793.96     | 1652.7     |2255.1 |  5.41
Other   |            | 0.09666    |            |       |  0.00

Nlocal:        54.0000 ave          70 max          40 min
Histogram: 2 1 1 3 2 0 3 2 0 2
Nghost:        489.750 ave         590 max         430 min
Histogram: 3 2 2 2 2 1 1 1 1 1
Neighs:         0.00000 ave           0 max           0 min
Histogram: 16 0 0 0 0 0 0 0 0 0
FullNghs:      2272.12 ave        3649 max        1341 min
Histogram: 3 3 2 1 0 3 1 1 0 2

Total # of neighbors = 36354
Ave neighs/atom = 42.076389
Ave special neighs/atom = 0.0000000
Neighbor list builds = 2000
Dangerous builds = 2000
unfix   3
                
Total wall time: 5:12:26
