LAMMPS (29 Sep 2021 - Update 3)
OMP_NUM_THREADS environment is not set. Defaulting to 1 thread. (src/comm.cpp:98)
  using 1 OpenMP thread(s) per MPI task
Reading data file ...
  orthogonal box = (1.6189139 1.6002803 3.1782586) to (17.232314 17.250948 34.524197)
  2 by 2 by 4 MPI processor grid
  reading atoms ...
  432 atoms
  reading velocities ...
  432 velocities
Finding 1-2 1-3 1-4 neighbors ...
  special bond factors lj:    0        0        0       
  special bond factors coul:  0        0        0       
     0 = max # of 1-2 neighbors
     0 = max # of 1-3 neighbors
     0 = max # of 1-4 neighbors
     1 = max # of special neighbors
  special bonds CPU = 0.006 seconds
  read_data CPU = 0.238 seconds
Neighbor list info ...
  update every 1 steps, delay 10 steps, check yes
  max neighbors/atom: 2000, page size: 100000
  master list distance cutoff = 6.22
  ghost atom cutoff = 6.22
  binsize = 3.11, bins = 6 6 11
  1 neighbor lists, perpetual/occasional/extra = 1 0 0
  (1) pair quip, perpetual
      attributes: full, newton on
      pair build: full/bin
      stencil: full/bin/3d
      bin: standard
Setting up Verlet run ...
  Unit style    : metal
  Current step  : 0
  Time step     : 0.001
Per MPI rank memory allocation (min/avg/max) = 8.896 | 8.897 | 8.898 Mbytes
Step Temp PotEng TotEng Press Volume c_msd[4] 
       0    321.62338   -4715.3961   -4697.4781   -3074.2224    7659.6975            0 
      10    312.18485   -4714.8922      -4697.5   -2391.4158    7657.8958 0.0020624263 
      20    302.73207   -4714.4111   -4697.5456   -1002.6625    7652.8905 0.0073956158 
      30    305.13349   -4714.5834    -4697.584     368.7543    7645.6865  0.014077554 
      40    309.02921   -4714.8147   -4697.5983    1909.2434    7637.6256  0.020257293 
      50    299.57691   -4714.2699   -4697.5802    4044.6682    7630.3064   0.02471731 
      60    301.15399   -4714.3152   -4697.5376    5669.5652    7625.5454   0.02690527 
      70    315.03424   -4715.0497   -4697.4988    5986.0235    7624.8059  0.027313177 
      80     319.2534   -4715.2641   -4697.4781    5158.3709    7628.4794  0.027102816 
      90    319.59522   -4715.2563   -4697.4513    3485.8762    7635.6701  0.027060291 
     100    322.64665   -4715.3544   -4697.3794    1123.8008    7644.5744  0.027279673 
     110    325.87913   -4715.4063   -4697.2512   -1155.8998    7653.1161  0.027442612 
     120    323.54825   -4715.1059   -4697.0806   -3134.2475     7659.425  0.027298466 
     130    309.43556   -4714.1315   -4696.8925   -3940.9569    7661.9667  0.026910227 
     140    299.20255   -4713.3648   -4696.6959    -3201.416    7660.0584  0.026534611 
     150    300.80924   -4713.2218   -4696.4634   -1491.9315    7654.2228  0.026629848 
     160    309.82524   -4713.4319   -4696.1712    588.13983    7645.8705  0.027572123 
     170    323.25904   -4713.8413   -4695.8322    2931.6054    7636.8085  0.029246312 
     180    326.42937   -4713.6768    -4695.491    5473.0191    7629.0566  0.030980223 
     190    325.63244   -4713.3429   -4695.2016    7089.6634     7624.619  0.031698686 
     200    333.57778   -4713.5712   -4694.9872    6916.4069    7624.6943  0.030740097 
     210    340.13479    -4713.777   -4694.8277     5350.614    7629.0782  0.028504931 
     220    338.85897   -4713.5587   -4694.6805    3233.8479    7636.4675  0.025991284 
     230    341.69739   -4713.5447   -4694.5083    921.17369      7645.03   0.02406699 
     240    335.40698    -4712.988   -4694.3021   -494.55031    7652.9403   0.02321709 
     250    322.17016   -4712.0218   -4694.0733   -1054.0116    7658.9044  0.023217944 
     260    330.95909    -4712.261   -4693.8229   -1880.3657     7661.974  0.023420827 
     270    350.82265    -4713.103   -4693.5583   -2278.4165    7661.2984  0.023583387 
     280    356.94763   -4713.1816   -4693.2956   -1044.1112     7656.858  0.023834216 
     290     353.8638   -4712.7403   -4693.0261    932.00414    7649.8677  0.024187101 
     300    350.77876   -4712.2777   -4692.7355     2505.424     7641.976  0.024499157 
     310    350.70816   -4711.9579   -4692.4195    3950.7725    7634.6123  0.024606759 
     320    343.48945   -4711.2227   -4692.0865    5541.8261    7629.1457  0.024352327 
     330    337.97937   -4710.5864   -4691.7572      6575.28     7626.908  0.023415805 
     340    350.69538   -4710.9764   -4691.4388    6195.0299    7628.5706   0.02167229 
     350    370.45442   -4711.7576   -4691.1192    4821.1987     7633.768  0.019672279 
     360    379.98305   -4711.9636   -4690.7943    3340.6661    7641.4801  0.018280012 
     370    380.75502   -4711.6703    -4690.458    1883.3824    7650.3008  0.018017164 
     380    377.93327   -4711.1561   -4690.1011    298.81264    7658.4259  0.018879415 
     390    379.79153   -4710.8933   -4689.7347   -1274.6753    7664.0835  0.020482458 
     400    393.95613   -4711.3251   -4689.3773   -2622.7301    7665.9842  0.022459791 
     410    390.07527   -4710.7809   -4689.0493   -2255.5504    7663.5173  0.024751895 
     420    363.57546   -4709.0038   -4688.7486   -215.41608    7657.1481  0.027038962 
     430     366.0939   -4708.8192   -4688.4237    2052.5627    7648.3982  0.028622043 
     440    393.14618    -4709.931   -4688.0284     4310.989    7639.2354  0.029364895 
     450    407.41705   -4710.2852   -4687.5876    6630.1622    7631.5993   0.02957554 
     460    414.80953   -4710.2646   -4687.1551    7909.1791    7627.2459  0.029300319 
     470    424.83251   -4710.4342   -4686.7663     7713.971    7627.4097  0.028599486 
     480    423.52939    -4710.017   -4686.4217    6353.0011    7632.0573  0.027999876 
     490    395.97785   -4708.1516   -4686.0912    4551.4591    7639.8317   0.02807212 
     500     373.0102   -4706.5195   -4685.7387    2242.6922    7648.9019  0.028657189 
     510    377.64594   -4706.3674   -4685.3283   -118.19695     7657.453  0.029195517 
     520    389.70357   -4706.5752   -4684.8643   -1405.8845    7663.6258  0.029302581 
     530    405.78583   -4707.0008   -4684.3941   -1351.2343     7666.044  0.028676837 
     540    435.71147   -4708.2133   -4683.9393   -620.65057    7664.3633  0.027296823 
     550    450.14362   -4708.5837   -4683.5057    1102.9727    7659.0594  0.025703674 
     560    445.22484    -4707.892   -4683.0881    3594.5451    7651.3991  0.024359624 
     570    458.16327   -4708.1813   -4682.6565    5409.2711    7643.3773   0.02338597 
     580    464.24846   -4708.0739   -4682.2101    6666.6129     7636.806  0.023094004 
     590    441.92037   -4706.4011   -4681.7812    7632.7223    7632.8843  0.023445518 
     600    430.99537   -4705.3895   -4681.3783    7505.5145    7632.5665  0.023676398 
     610     430.6627   -4704.9731   -4680.9804    6536.7289    7636.1763  0.023300845 
     620    429.39755   -4704.4837   -4680.5615    5444.4763    7642.7614  0.022321523 
     630    459.06646   -4705.6675   -4680.0924    3607.7429    7650.5305  0.020931855 
     640    487.16645   -4706.7141   -4679.5735    1373.7392    7657.5655  0.019876751 
     650    479.67207   -4705.7912   -4679.0681    234.99795    7662.3211  0.019702328 
     660    466.58942   -4704.6008   -4678.6066    260.69838    7663.9733  0.020154736 
     670    460.23597   -4703.8083    -4678.168    970.96443     7662.485  0.020881582 
     680    453.76475   -4703.0066   -4677.7269    2244.4202    7658.5424  0.021690598 
     690     450.8334   -4702.3811   -4677.2647    4078.0841    7653.2604  0.022325895 
     700    479.63963   -4703.4877   -4676.7665    5437.2219    7647.7091  0.022581215 
     710    528.54226   -4705.6734   -4676.2277    6246.5769     7642.781  0.022927091 
     720    530.31188   -4705.2449   -4675.7006    7786.8986    7639.5513  0.024206327 
     730    510.93171      -4703.7   -4675.2355     8720.074    7639.0074  0.026259605 
     740    525.16979   -4704.0575   -4674.7997    7697.2203    7641.1455  0.028554133 
     750    524.66968   -4703.5964   -4674.3664    6445.6428    7645.2529  0.031347084 
     760    494.26781   -4701.4825   -4673.9462    5625.2088    7650.7439  0.034598765 
     770    498.30821   -4701.2676   -4673.5063     3731.144    7656.7256  0.037580345 
     780    519.89802   -4701.9791    -4673.015      1684.29    7661.7134  0.040074283 
     790    510.54214   -4700.9556   -4672.5127    1213.4484    7664.4933  0.042071453 
     800    496.46707   -4699.6859   -4672.0272    2145.2405    7664.6637  0.043044927 
     810     503.9762   -4699.6118   -4671.5347    3194.3255    7662.5247  0.042679334 
     820    545.26493   -4701.3893    -4671.012    3663.1262    7658.7267  0.041414832 
     830    577.16577   -4702.6282   -4670.4736    4511.8975    7653.8158   0.04049263 
     840    550.61975   -4700.6405   -4669.9649    6592.0623    7648.4911  0.040845363 
     850    525.65061   -4698.7694   -4669.4848    8024.8615    7644.1539  0.041910624 
     860    546.55346   -4699.4461    -4668.997    7576.3795     7642.129  0.042815232 
     870    554.90182   -4699.4114   -4668.4972    7062.9827    7642.6428  0.043463573 
     880    537.24433   -4697.9402   -4668.0097    7083.3591    7645.1733  0.043530841 
     890    537.48967   -4697.4654   -4667.5213    6814.2637    7649.1569   0.04236028 
     900    556.44187   -4698.0055   -4667.0055    5999.1531    7654.1182  0.040025901 
     910    589.53748   -4699.3043   -4666.4605    4704.2847    7659.2755  0.037331411 
     920    618.95639   -4700.3937    -4665.911    3945.3953     7663.509  0.035375837 
     930    601.22841   -4698.9002   -4665.4051    4446.0992    7666.2246  0.034845895 
     940    582.28992   -4697.3863   -4664.9463    4380.3104    7667.6525  0.035135335 
     950    594.60727   -4697.6181   -4664.4918    3431.1021    7667.7456  0.035361248 
     960    598.69857   -4697.3892    -4664.035    3219.4683    7665.9422  0.035248545 
     970    580.23239   -4695.9134    -4663.588    4276.2452    7662.1031  0.034583765 
     980    560.68945   -4694.3657    -4663.129    5796.5366    7657.1513  0.033021519 
     990    583.57499   -4695.1395   -4662.6279    6515.1641    7652.4497  0.030514865 
    1000    634.56545    -4697.434   -4662.0816    6693.0664    7648.8069  0.028000582 
    1010    626.76246   -4696.4602   -4661.5425    8116.9157     7646.612  0.026762754 
    1020    588.79896   -4693.8579   -4661.0552    9633.9554    7646.6057  0.026534699 
    1030    605.59688   -4694.3225    -4660.584    9100.7342      7649.51  0.026188312 
    1040    643.60832   -4695.9439   -4660.0877    7547.4401    7655.0864  0.025753383 
    1050    652.17413   -4695.9151   -4659.5818    6060.9074    7662.0975  0.025916993 
    1060    645.43097   -4695.0415   -4659.0838    4529.0433    7668.7895  0.026860136 
    1070    656.16807   -4695.1535   -4658.5976    3194.8013     7673.449  0.028370751 
    1080    655.51166   -4694.6554   -4658.1361    3159.6121    7675.0555   0.03053229 
    1090     636.6638   -4693.1785   -4657.7093     4424.564    7673.5559  0.033275042 
    1100    645.68871   -4693.2608   -4657.2888    5408.1518    7669.5331  0.036149972 
    1110    668.27551   -4694.0788   -4656.8484    6315.6776    7663.7674  0.039058604 
    1120    673.14252   -4693.8981   -4656.3965    7712.5838    7657.2767  0.042049788 
    1130    663.90787     -4692.93    -4655.943    8905.6859     7651.471  0.044837611 
    1140    658.32647   -4692.1701    -4655.494    9275.4579    7647.7779  0.046965928 
    1150    645.22297   -4690.9982   -4655.0521    9212.1929    7646.8215  0.048203082 
    1160    631.55907   -4689.7934   -4654.6085    8911.8179    7648.5778  0.048302118 
    1170     650.1717   -4690.3588    -4654.137    7570.9889    7652.5988  0.047077345 
    1180    688.54589   -4691.9764   -4653.6167     6142.465    7657.6524  0.044972471 
    1190     691.7739   -4691.6247   -4653.0852    6120.8758    7662.2774  0.042675937 
    1200    681.79865   -4690.5642   -4652.5805    6479.6506    7665.8508  0.040123889 
    1210     708.0948   -4691.5356   -4652.0868    5960.3764    7668.2801  0.037131385 
    1220    720.89116   -4691.7648   -4651.6032    5733.4096    7669.4286   0.03441047 
    1230    709.75093   -4690.6971    -4651.156    6395.3093    7669.2533  0.032556949 
    1240    695.78758   -4689.4989   -4650.7358    7000.0551    7667.5676  0.031649078 
    1250    693.81591   -4688.9731   -4650.3199    7068.5631     7664.284  0.031535375 
    1260    710.66178   -4689.4771   -4649.8854    6993.3978    7659.9672  0.032022291 
    1270    698.92696   -4688.3725   -4649.4345    8294.0805    7655.6973  0.032970257 
    1280    694.92822   -4687.6933   -4648.9781    9619.9223    7652.3254   0.03365395 
    1290    719.25008   -4688.5722    -4648.502    10198.031    7650.1759  0.033686921 
    1300    729.08824   -4688.6367   -4648.0184    10526.632    7649.7881  0.033474885 
    1310    728.22631   -4688.1263    -4647.556    10724.928     7651.749  0.033309152 
    1320    726.84005   -4687.5991    -4647.106    10679.885    7655.7991  0.033323704 
    1330    746.11039   -4688.2178   -4646.6512    10041.657    7661.0227  0.033601003 
    1340    789.33561   -4690.1673   -4646.1925    8260.2917    7666.5912  0.034441574 
    1350    792.58048   -4689.9199   -4645.7643      6680.78    7671.7146  0.036346334 
    1360    747.21663   -4687.0197   -4645.3914    6382.1005    7675.4582  0.038817244 
    1370    717.49613   -4685.0151   -4645.0426    6442.7927    7677.0539  0.040436063 
    1380    728.07475   -4685.2389    -4644.677    6209.6243    7675.9845   0.04051914 
    1390    737.61195   -4685.3774   -4644.2842     6287.819    7672.1634  0.039726176 
    1400    731.21579   -4684.6024   -4643.8655    7225.1447    7666.2531  0.038871961 
    1410     748.0987   -4685.0844    -4643.407    8613.8645    7659.4813  0.038193878 
    1420    779.52191   -4686.3336   -4642.9055    10016.872    7653.2956   0.03798149 
    1430    811.42489   -4687.6099   -4642.4045     11188.32    7648.9693  0.038578229 
    1440    803.15338   -4686.6968   -4641.9522    12131.931     7647.071  0.040168652 
    1450    755.26374   -4683.6353   -4641.5587    13282.722    7647.9028  0.042024034 
    1460    774.47242   -4684.3326   -4641.1859    11991.351    7651.9135  0.042892805 
    1470    818.65222    -4686.395   -4640.7869    9622.0862    7658.4696  0.043354899 
    1480     805.0238   -4685.2318   -4640.3831    8358.5394    7665.7986  0.044698239 
    1490    806.02065    -4684.898   -4639.9937    6631.9048    7672.4005  0.046924207 
    1500    787.02109    -4683.454   -4639.6081    5784.4261    7676.9683  0.049967798 
    1510    729.00665    -4679.846   -4639.2322    6802.7244    7678.6014  0.053126869 
    1520    745.10436    -4680.335   -4638.8244    7292.9455    7677.5335  0.054914042 
    1530    824.29086   -4684.2689   -4638.3467    6656.7847    7674.2951    0.0553788 
    1540    860.85661   -4685.8206   -4637.8614    7332.8124    7668.8505  0.055932284 
    1550    835.50932   -4683.9696   -4637.4224    9732.0537    7661.8794   0.05728757 
    1560    808.04989   -4682.0246   -4637.0073    11928.988    7655.3189  0.059010451 
    1570    800.67699   -4681.1993   -4636.5926    12724.285    7650.8226  0.060508457 
    1580    805.51835   -4681.0502   -4636.1739    12691.647    7649.0596  0.061436372 
    1590    808.14895   -4680.7751   -4635.7522    12313.379    7650.1222  0.061567664 
    1600    807.12924   -4680.2973   -4635.3313    11713.029    7654.0749  0.060698999 
    1610    832.06928   -4681.2526   -4634.8971     10323.12    7660.5875  0.058879759 
    1620    854.04572   -4682.0117   -4634.4318    9199.6486     7668.148  0.056820865 
    1630    860.07874   -4681.8792   -4633.9633    8471.8004    7674.7193  0.054993998 
    1640    861.23067   -4681.5052   -4633.5251    8134.0747    7678.8449  0.053312294 
    1650    838.22652   -4679.8234   -4633.1249    8507.1749    7680.1932  0.051588511 
    1660    841.08975   -4679.5986   -4632.7405    8343.2225    7679.3873  0.049408447 
    1670    867.61188   -4680.6855   -4632.3498    7620.6039    7676.8784  0.046966433 
    1680     859.7029   -4679.8635   -4631.9685    7986.5331     7672.682  0.044863309 
    1690    853.71379   -4679.1546   -4631.5933     9677.302    7667.2751  0.042960561 
    1700    855.19768   -4678.8415   -4631.1975    11817.404    7661.8987   0.04106208 
    1710    868.34801   -4679.1603   -4630.7836    13291.442    7657.9615  0.039167255 
    1720    887.00103   -4679.7885   -4630.3727    13354.537    7656.4059  0.037584865 
    1730     881.9193   -4679.1157    -4629.983    13399.191     7657.338   0.03672971 
    1740    894.64427   -4679.4525   -4629.6108    12172.663    7660.2338   0.03649973 
    1750    923.68243   -4680.7062   -4629.2468     10311.49    7664.0112  0.037063021 
    1760    895.26557   -4678.7847   -4628.9085    9935.7436    7667.5445  0.038842861 
    1770    857.47763   -4676.3636   -4628.5926    10525.816    7670.3823  0.041189246 
    1780      851.205   -4675.6748   -4628.2532    10441.711    7672.5497  0.043292565 
    1790    851.46202    -4675.305   -4627.8691    10876.283    7674.1442  0.044882937 
    1800    865.77604   -4675.6719   -4627.4385    11004.134    7675.6598  0.045741191 
    1810    909.99387   -4677.6629   -4626.9662    10080.091    7676.8992  0.045945548 
    1820    939.00351   -4678.8047   -4626.4918    9539.2592     7676.719  0.046281939 
    1830    911.51071   -4676.8413     -4626.06    10318.522    7674.8348  0.047351921 
    1840     901.9102   -4675.9045    -4625.658    11434.043    7671.9751  0.048631952 
    1850    913.65329   -4676.1531   -4625.2525    11768.916    7668.9506  0.049802096 
    1860     908.5444   -4675.4631   -4624.8471    12286.344    7666.3397  0.050945609 
    1870    901.59848   -4674.6719   -4624.4429    12712.624    7664.5955  0.051816002 
    1880    929.25609    -4675.802   -4624.0321    12554.214    7664.0787  0.052190874 
    1890    956.62992   -4676.9201   -4623.6252    12490.525    7664.8061  0.052594039 
    1900    951.65069   -4676.2684   -4623.2509    12555.491    7666.6095  0.053582119 
    1910    947.31267   -4675.6853   -4622.9095    12364.851    7669.2083  0.054989264 
    1920    942.02747   -4675.0641   -4622.5827     11511.36    7671.9256  0.056571551 
    1930    925.82259   -4673.8387     -4622.26     10950.95    7674.0687  0.058140268 
    1940    929.91793   -4673.7364   -4621.9297     10010.86    7675.5623  0.059389255 
    1950    916.51401   -4672.6412   -4621.5812    9158.8937    7676.5441  0.060305848 
    1960    880.85984   -4670.2798   -4621.2062    9211.7296    7676.7799  0.060430335 
    1970    907.41005   -4671.3375   -4620.7846    9146.2013    7675.5609  0.058988257 
    1980    931.12238   -4672.1828    -4620.309    9815.4572    7672.8385  0.056625027 
    1990    891.27782   -4669.4612   -4619.8071    12060.727    7670.0053  0.054000848 
    2000    920.78695   -4670.5811    -4619.283    13261.065    7668.1961  0.050366674 
    2010    1049.5682   -4677.1985   -4618.7258    12479.659    7666.9102   0.04622389 
    2020    1094.4792   -4679.2166    -4618.242    13416.829    7665.7884   0.04405549 
    2030    1014.7922   -4674.4592    -4617.924    15430.115    7665.8771  0.044612741 
    2040    967.87987    -4671.625   -4617.7033    15435.265    7668.1714  0.045958611 
    2050    991.23314   -4672.7142   -4617.4915    12848.811     7672.352  0.046743358 
    2060    983.82916   -4672.0808   -4617.2706    11088.259     7677.069  0.047280461 
    2070    928.15323   -4668.7496   -4617.0412    11026.827    7681.1581  0.047585539 
    2080    909.02959   -4667.4071   -4616.7641    10559.177    7683.9988  0.046844535 
    2090     966.5383   -4670.2619    -4616.415    8917.6433    7685.1094  0.044958563 
    2100     997.8017   -4671.6085   -4616.0198     9189.602    7684.3696  0.043183169 
    2110    998.39891   -4671.2468   -4615.6248    10485.056    7682.2534    0.0421458 
    2120    1026.7495   -4672.4422   -4615.2408    11157.057    7679.0706  0.041841957 
    2130    1022.5471   -4671.8428   -4614.8756    12544.911    7674.8572  0.042764749 
    2140    989.66234   -4669.6592    -4614.524    14264.659    7670.5075  0.044635497 
    2150    1015.5033   -4670.7399   -4614.1651    13803.113    7667.3534   0.04657568 
    2160    1041.2737   -4671.8171   -4613.8065    13135.857    7665.7922  0.048953044 
    2170    987.60861    -4668.492   -4613.4712    14167.884     7665.713  0.052212104 
    2180    960.70554   -4666.6574   -4613.1354    14455.969    7667.3177  0.055293842 
    2190    996.88503   -4668.2966    -4612.759     13270.81    7670.9795  0.057661318 
    2200    1001.6298   -4668.1433   -4612.3414      12687.6    7676.3545  0.059907538 
    2210    1014.4136   -4668.4111    -4611.897    11742.618    7682.1608  0.061874698 
    2220    1063.6101   -4670.6925   -4611.4376    10512.544    7686.9434  0.063384813 
    2230    1079.5299   -4671.1565   -4611.0147    10970.055    7690.0197  0.065043065 
    2240    1035.6255   -4668.3543   -4610.6585    12876.212    7691.6405  0.067097724 
    2250    1002.2903    -4666.168   -4610.3293    13483.527    7692.2982  0.068814073 
    2260     1035.524    -4667.673   -4609.9828    12113.577    7691.9949  0.069606335 
    2270    1076.1022   -4669.5816   -4609.6307    11001.044    7690.3639  0.070202323 
    2280    1046.0166   -4667.5816   -4609.3069    12048.427    7687.3098  0.071595675 
    2290    1015.6526   -4665.5794   -4608.9963    12879.473    7683.4075  0.073340167 
    2300    1018.8622   -4665.4192   -4608.6573    12726.396    7679.5634  0.074681049 
    2310    1012.9149    -4664.711   -4608.2804    12998.986    7676.6122  0.075363886 
    2320    1030.8884   -4665.3078   -4607.8759    13256.677     7675.134  0.075132352 
    2330    1052.6036   -4666.0931   -4607.4514    13151.856     7675.129  0.074282055 
    2340    1045.2506   -4665.2579   -4607.0259    13333.722     7676.101  0.073099493 
    2350     1050.431   -4665.1242   -4606.6035    13423.592    7677.7143  0.071348382 
    2360    1073.7195   -4665.9962   -4606.1781    13090.695    7679.9308  0.069211063 
    2370    1086.4734    -4666.291   -4605.7624    12897.617    7682.3621  0.067304466 
    2380    1061.4692   -4664.5059   -4605.3703    13274.414    7684.2138  0.065948401 
    2390    1030.3009   -4662.3864   -4604.9872    13995.889    7685.8943  0.064685946 
    2400    1070.6798   -4664.2294   -4604.5806    13073.466    7688.3508  0.062949022 
    2410    1110.6289   -4666.0233    -4604.149    12221.789    7690.8005  0.061441297 
    2420    1082.4742   -4664.0476   -4603.7418    13299.581    7692.0036  0.060682622 
    2430    1066.1324   -4662.7485    -4603.353    14211.466    7692.4679  0.059811013 
    2440    1109.0522   -4664.7382   -4602.9517    13434.261    7693.6221  0.058296562 
    2450    1143.8579   -4666.2731   -4602.5475    12279.715    7695.0725  0.056779057 
    2460    1147.2981   -4666.1053   -4602.1881    11959.958    7694.7321  0.055748255 
    2470    1144.5123   -4665.6408   -4601.8788    12782.837    7692.0735   0.05528419 
    2480    1140.0364   -4665.1081   -4601.5954    13857.885    7688.7321  0.055589968 
    2490    1094.4797   -4662.2969   -4601.3222    15322.987    7686.0969  0.056686404 
    2500    1065.1955   -4660.3704   -4601.0272    15764.681    7684.4265  0.057537706 
    2510    1111.1708   -4662.5807   -4600.6762    13956.792    7683.4375  0.057437973 
    2520     1139.538   -4663.7689   -4600.2839    13248.326    7682.8984  0.057296641 
    2530    1091.6421   -4660.7048   -4599.8882    14304.994     7683.281  0.057718561 
    2540    1049.9503   -4657.9638   -4599.4699     15195.98    7684.9765  0.057754234 
    2550    1063.1866   -4658.2103    -4598.979     14342.24     7687.449  0.056578303 
    2560    1073.6877   -4658.2241   -4598.4078    13706.954    7689.9505  0.054506548 
    2570    1106.4014   -4659.4254   -4597.7865    12919.407    7692.2713   0.05188967 
    2580     1149.419   -4661.1776   -4597.1421    13376.123    7693.7358  0.049343364 
    2590    1180.2199   -4662.2836   -4596.5322    13721.063    7693.7244  0.047633643 
    2600    1217.5365   -4663.8264    -4595.996    14089.168    7692.1105  0.047231172 
    2610    1237.6161   -4664.5074   -4595.5584    15013.398    7689.5875  0.048640453 
    2620    1173.0881   -4660.5736   -4595.2196    17018.243    7687.1144  0.051934361 
    2630    1114.0302   -4656.9874   -4594.9235    18494.996    7685.3891   0.05565973 
    2640    1120.0087   -4656.9947   -4594.5977    16855.861     7684.765  0.058585069 
    2650     1149.771   -4658.2842   -4594.2291    14433.301    7685.2366  0.060858021 
    2660     1135.782   -4657.1058   -4593.8301    13913.187    7686.4909  0.063023019 
    2670    1143.2763   -4657.1006   -4593.4074    13486.502    7687.8228  0.064749834 
    2680    1165.4929   -4657.8832   -4592.9523    13759.869    7688.5134  0.066067978 
    2690    1138.6823   -4655.9185   -4592.4813    15258.267     7688.903  0.067342397 
    2700    1145.1118   -4655.7815    -4591.986    15719.734    7689.8281  0.068104258 
    2710    1241.9054   -4660.6442   -4591.4563    13866.193    7690.7063  0.068628556 
    2720    1245.4825   -4660.3396   -4590.9524    13813.756    7690.3408  0.070624336 
    2730    1185.5059   -4656.5674   -4590.5215     15754.62    7688.8963  0.073669304 
    2740    1201.0261   -4657.0179   -4590.1074    15957.986    7687.6828  0.076244363 
    2750    1188.5961   -4655.9023   -4589.6843    15150.662    7687.6511  0.078564482 
    2760    1162.8839   -4654.0416   -4589.2561    15094.258    7688.3625  0.080370944 
    2770    1144.1738   -4652.5374   -4588.7942    15972.558    7688.9977  0.080909465 
    2780    1141.8449   -4651.8937   -4588.2803    16467.098    7690.3114  0.079654696 
    2790    1207.9165   -4655.0035   -4587.7091    14906.972     7693.181  0.076730222 
    2800    1272.0339   -4657.9713   -4587.1048    13178.195    7696.3512  0.073540467 
    2810     1246.238    -4655.988   -4586.5587    14401.778    7697.8067  0.071226541 
    2820     1170.617   -4651.2917   -4586.0753    17027.457     7697.593  0.069121951 
    2830    1211.4206   -4653.0766    -4585.587    17473.241    7697.6253  0.065845083 
    2840    1267.2568   -4655.6721   -4585.0718    16687.147    7698.7623     0.062145 
    2850    1265.3826    -4655.084   -4584.5882    16597.086    7700.2063  0.058905971 
    2860    1304.8687    -4656.852   -4584.1563     16116.73    7701.0684  0.055976877 
    2870    1332.5079   -4658.0216    -4583.786    15526.645    7700.9287  0.054225821 
    2880    1315.3237   -4656.7853   -4583.5071      15663.2    7699.9632  0.054413892 
    2890    1248.5573   -4652.8471   -4583.2885    16672.916    7698.6041  0.056226023 
    2900    1168.9265   -4648.1801   -4583.0579    17885.775    7697.3426  0.058337503 
    2910    1180.0697   -4648.4849   -4582.7419    16514.246    7696.7399  0.059174332 
    2920    1290.6607   -4654.2396   -4582.3354    12865.111    7696.0304  0.058935025 
    2930     1268.899   -4652.6006   -4581.9088    13230.679    7693.5682  0.059639771 
    2940    1176.2874   -4647.0142   -4581.4819     16481.12    7689.7075  0.060849312 
    2950    1212.0801   -4648.5037   -4580.9774    17164.816    7686.6569  0.060823833 
    2960    1297.8611   -4652.6961   -4580.3908    16508.591    7685.6851  0.060317889 
    2970    1276.9772   -4650.9475   -4579.8056    18934.142    7686.6677  0.060996152 
    2980    1235.7451   -4648.1007    -4579.256    21262.109    7689.6154  0.062352323 
    2990    1300.4611   -4651.1502   -4578.7001    20773.173    7694.7015   0.06353319 
    3000    1342.8931   -4652.9527   -4578.1386    18423.469    7701.3693  0.065689628 
    3010    1340.4218   -4652.3014    -4577.625    16801.308    7707.9836   0.06934942 
    3020    1358.5771   -4652.8698    -4577.182    14745.334    7712.9194   0.07412547 
    3030    1308.2165    -4649.697   -4576.8147    15109.685    7715.3204  0.080014636 
    3040    1250.0728   -4646.1276   -4576.4846    15971.329    7715.6145  0.085726825 
    3050    1273.9205   -4647.0997   -4576.1282    15390.049    7714.4133  0.089937291 
    3060    1268.6023   -4646.4067   -4575.7314    15449.531    7711.6207   0.09291927 
    3070    1257.7062   -4645.3752    -4575.307    16236.278    7707.2768  0.094359378 
    3080     1290.015   -4646.7088   -4574.8406    17039.205     7701.613  0.093916887 
    3090    1325.4875   -4648.1876   -4574.3432    18240.685    7694.9952  0.092394679 
    3100    1316.5009   -4647.1754   -4573.8316     20674.28    7688.8404  0.090871271 
    3110    1299.3699   -4645.7203    -4573.331    23023.876    7685.3642  0.089535971 
    3120    1360.5907   -4648.6525   -4572.8525    21771.515    7685.5922   0.08815816 
    3130    1402.1104   -4650.5255   -4572.4124    19604.817    7688.6261   0.08791486 
    3140    1324.4662   -4645.8283   -4572.0408    19941.641    7693.3439  0.089412162 
    3150    1280.1586   -4643.0131   -4571.6941    20297.665    7699.4938  0.090840668 
    3160    1289.1567   -4643.1049   -4571.2845    18186.324    7706.5226  0.090983963 
    3170    1350.9157   -4646.0685   -4570.8075    14603.444    7712.9917  0.089916693 
    3180    1349.8573   -4645.5181   -4570.3161     14042.19    7717.4615  0.088753454 
    3190    1319.7195   -4643.3729   -4569.8498    15562.765    7719.3559   0.08739465 
    3200    1373.5323    -4645.912   -4569.3909    15918.983    7717.9784  0.084942095 
    3210    1429.4398   -4648.5975   -4568.9618     16971.25    7712.8834  0.082244433 
    3220    1395.5023   -4646.3267   -4568.5817    19408.303    7705.2473  0.080523076 
    3230    1361.7815   -4644.0893    -4568.223    21716.322    7697.2096  0.079331356 
    3240    1333.2875   -4642.1177   -4567.8388    23147.584    7690.7588  0.078046159 
    3250    1361.2873   -4643.2705   -4567.4317    22616.538     7687.592  0.076239623 
    3260    1399.0241   -4644.9699   -4567.0287    21738.983     7688.344  0.074481483 
    3270    1350.9369   -4641.9011   -4566.6389    22028.564    7692.0721   0.07333146 
    3280    1339.8618   -4640.8774   -4566.2322    20997.725    7697.4694  0.071695592 
    3290    1394.5718   -4643.4693   -4565.7761     18760.79    7703.7395  0.069251366 
    3300    1396.4239   -4643.0927   -4565.2964      19038.1     7710.231  0.066925843 
    3310    1368.3341   -4641.0488   -4564.8174    20242.762     7715.931  0.064614414 
    3320    1368.4423   -4640.5601   -4564.3227    19692.953    7719.7005  0.061704725 
    3330     1456.317   -4644.9513   -4563.8182     17699.99    7721.0738  0.058586211 
    3340    1498.4739   -4646.8409   -4563.3592    17805.164    7720.1434  0.057332892 
    3350      1465.48   -4644.6451   -4563.0015    19774.964    7717.3604  0.058665109 
    3360    1441.3249   -4643.0156   -4562.7178    21323.684    7713.2021  0.061373325 
    3370    1399.1207   -4640.3942   -4562.4476    22350.278    7708.2098  0.064407723 
    3380    1394.1814   -4639.8244    -4562.153    22863.449    7703.4427   0.06675766 
    3390    1421.5513   -4641.0223   -4561.8261     22186.06    7699.5148  0.068340852 
    3400    1398.3692   -4639.3826   -4561.4778    21844.128    7696.3928  0.069866343 
    3410    1405.8312   -4639.4285   -4561.1081    20766.713    7694.2085  0.071292074 
    3420    1417.0462   -4639.6533   -4560.7081    19872.031    7692.9536  0.073093508 
    3430    1374.3745    -4636.851   -4560.2831    21132.057    7692.5753  0.075504849 
    3440    1371.5742   -4636.2319     -4559.82    22065.421    7693.6525  0.077507886 
    3450    1394.6464   -4636.9978   -4559.3005    22493.725     7696.665   0.07875551 
    3460    1388.5721    -4636.104   -4558.7451    23263.606    7701.6012  0.079404848 
    3470    1404.3465   -4636.4028   -4558.1651    21958.821     7708.472  0.079172842 
    3480    1485.8636   -4640.3268   -4557.5477    18483.299    7716.5271  0.078303774 
    3490    1552.1693   -4643.4265   -4556.9534     16276.63    7723.7138  0.078310292 
    3500     1501.184   -4640.1229   -4556.4902    18120.696     7728.335  0.080427854 
    3510    1393.9511   -4633.7852   -4556.1266    20853.989    7730.4804  0.083548001 
    3520    1422.5203   -4635.0071   -4555.7569    19147.716    7730.7844  0.085202145 
    3530    1504.7903   -4639.1967   -4555.3631    17450.936    7728.8105  0.085366858 
    3540    1468.2481   -4636.8027    -4555.005    19810.704    7724.2865  0.085286853 
    3550    1457.7897   -4635.8893   -4554.6742    22133.726    7717.5902  0.084244074 
    3560    1523.6854   -4639.2175   -4554.3312    21895.643    7709.3672  0.082583004 
    3570    1499.0837   -4637.4974   -4553.9818     23429.61    7701.3776  0.082520497 
    3580    1436.4536    -4633.677   -4553.6505    25611.074    7695.7685  0.083995615 
    3590    1428.7775   -4632.9061   -4553.3073    25277.956    7693.1296   0.08537849 
    3600    1395.9454   -4630.6789   -4552.9093    25495.261    7693.3924  0.085944445 
    3610    1440.3056   -4632.7047   -4552.4636    24688.624    7697.5971   0.08488571 
    3620    1540.8599   -4637.8051    -4551.962     22224.31    7705.8902  0.083378839 
    3630    1531.9501   -4636.7845   -4551.4379     21685.79    7716.2726  0.083629381 
    3640    1550.7165   -4637.3257   -4550.9336    19851.333    7726.5429  0.085218728 
    3650    1560.6414   -4637.3971    -4550.452     17852.06     7734.732  0.087832842 
    3660    1487.5308    -4632.907    -4550.035    18055.964    7739.3051  0.091094987 
    3670    1404.1651   -4627.8617   -4549.6341    20107.222    7739.8016  0.093091506 
    3680    1447.5219   -4629.8078   -4549.1647    20848.924    7736.8494  0.091873436 
    3690    1561.7119   -4635.6129   -4548.6082    20227.747    7731.3262  0.088309163 
    3700     1565.885   -4635.2865   -4548.0492    21972.702    7724.0481   0.08493097 
    3710    1523.9033   -4632.4287   -4547.5303    25180.027    7716.1872  0.082128901 
    3720    1550.1157   -4633.3775   -4547.0188    25753.292     7708.787  0.079275312 
    3730    1567.5712   -4633.8423   -4546.5112    25899.708     7702.727  0.076974644 
    3740    1536.0722   -4631.6113    -4546.035    27900.226    7699.2964  0.075652427 
    3750     1532.678   -4630.9859   -4545.5987     28346.97    7699.9018  0.074784542 
    3760    1559.5798   -4632.0686   -4545.1827     26082.13    7704.9754  0.074444579 
    3770     1599.459   -4633.8835   -4544.7758    23424.607    7713.4215  0.075390945 
    3780    1571.7964   -4631.9515    -4544.385    23668.003    7723.4235  0.078313708 
    3790    1503.3876   -4627.7502   -4543.9948    24394.742    7733.7159  0.082239837 
    3800    1545.9325   -4629.6817    -4543.556    22065.212    7743.3178  0.085363776 
    3810    1577.6016   -4630.9543   -4543.0644    19298.187    7750.8633  0.088064161 
    3820    1578.1427   -4630.5109   -4542.5908     18150.25    7754.5642  0.090556735 
    3830    1586.3819   -4630.5548   -4542.1757    18044.454    7753.3543  0.092415589 
    3840    1558.0057   -4628.5981   -4541.7998    19797.013    7747.7671  0.093752298 
    3850     1538.132   -4627.1191    -4541.428    21823.111    7738.6087  0.094294504 
    3860    1569.3308    -4628.438   -4541.0089    22765.028    7726.8393  0.094103573 
    3870    1582.4993   -4628.6762   -4540.5134     24834.27    7714.5632  0.094225746 
    3880    1567.5575   -4627.3191   -4539.9888    26448.632    7704.1649  0.094998345 
    3890    1559.9795   -4626.3749   -4539.4666    27180.007    7696.8239  0.095892787 
    3900    1571.1883   -4626.4812   -4538.9486    27515.084    7693.0182  0.096588092 
    3910    1566.0111   -4625.6935   -4538.4493    27547.429     7693.274  0.097229751 
    3920    1543.5848   -4623.9592   -4537.9643    28172.653    7697.5101  0.097643874 
    3930    1599.1002   -4626.5645   -4537.4768    26730.964    7705.2943  0.097355182 
    3940    1640.5976   -4628.3774   -4536.9779    25249.549    7715.6662  0.097555909 
    3950     1610.724   -4626.2316   -4536.4963    25849.621    7726.8827  0.099154178 
    3960    1646.6144   -4627.7692   -4536.0344    24897.311    7737.4043   0.10122572 
    3970    1649.2339   -4627.4845   -4535.6039    23618.904     7745.966   0.10369661 
    3980    1590.2418   -4623.8169   -4535.2227    23865.478    7751.9445   0.10596144 
    3990    1612.5703   -4624.6978   -4534.8597    23144.008     7755.205   0.10670672 
    4000     1624.392   -4624.9903   -4534.4936    22249.835    7755.4346   0.10644004 
    4010    1649.5703   -4626.0585   -4534.1591    21048.268    7751.9634   0.10559308 
    4020    1682.0678   -4627.5963   -4533.8864    20812.705    7744.1893   0.10492313 
    4030    1591.0456   -4622.2866   -4533.6477    23965.031     7732.366   0.10532167 
    4040    1547.8557   -4619.5701   -4533.3373    26774.369     7718.346    0.1052186 
    4050     1607.451   -4622.4414   -4532.8885    28325.475    7704.3192   0.10366511 
    4060    1637.8029   -4623.5671   -4532.3232    30145.105    7692.7217   0.10176745 
    4070    1649.2313   -4623.6399   -4531.7594    31939.402    7686.6554   0.10032096 
    4080    1654.8399   -4623.4861   -4531.2931    32947.167     7688.058  0.099671727 
    4090    1656.5528   -4623.2136   -4530.9252    31963.569    7697.0173   0.10000679 
    4100    1651.9988   -4622.5877   -4530.5529    29559.546    7711.7329   0.10118369 
    4110    1697.2048   -4624.6557   -4530.1025    25419.418    7729.1574   0.10292345 
    4120    1659.3274   -4622.0453   -4529.6023    23791.987    7746.6101   0.10583711 
    4130    1608.4877   -4618.6834   -4529.0727    23338.584     7762.587   0.10896102 
    4140    1661.9603   -4621.0585   -4528.4688    20645.766    7775.5856   0.11053221 
    4150    1737.3471   -4624.6371   -4527.8475    17782.544    7783.7038   0.11046735 
    4160    1669.5025   -4620.3421   -4527.3322    19899.261    7785.1013   0.10937498 
    4170    1623.7073   -4617.3884   -4526.9298    22795.283    7779.0268   0.10590671 
    4180    1703.5334   -4621.4007   -4526.4949    23782.588    7767.2867   0.10020724 
    4190    1711.7112   -4621.3468   -4525.9854    26848.836     7753.171  0.094984158 
    4200    1692.6762   -4619.7467   -4525.4458    28811.691    7739.4968  0.090940099 
    4210     1720.809   -4620.7629   -4524.8947    27888.934    7728.3743   0.08770167 
    4220    1686.8851   -4618.3448   -4524.3665    28643.979    7721.3488  0.085580784 
    4230    1679.7942   -4617.4705   -4523.8873     29407.33    7718.6469  0.083985391 
    4240    1688.8619   -4617.5019   -4523.4135    28676.985     7719.235  0.083118135 
    4250    1674.0874   -4616.2073   -4522.9421    28165.832    7722.7818  0.083560532 
    4260    1653.0241   -4614.5457   -4522.4539    28151.755    7728.9854  0.084904534 
    4270     1689.463   -4616.0533   -4521.9314    25475.872     7737.284  0.086340866 
    4280     1745.025   -4618.5903    -4521.373    22581.878    7746.9329  0.088249658 
    4290    1731.5328   -4617.2807    -4520.815    21912.694    7756.4488  0.091452869 
    4300     1720.371    -4616.132   -4520.2882    21820.095    7764.2389  0.095413963 
    4310    1683.6906   -4613.5848   -4519.7845    22954.112    7769.9718   0.09970542 
    4320    1666.0452   -4612.0873     -4519.27    23421.705    7773.5787   0.10330095 
    4330    1709.1569   -4613.9534   -4518.7344    22298.574    7773.5881   0.10510244 
    4340    1738.9657   -4615.1074   -4518.2277    22266.279     7768.822    0.1054556 
    4350    1712.6293   -4613.1408   -4517.7283    25497.415    7760.2316   0.10510993 
    4360    1754.0056   -4614.9051   -4517.1875    26863.413    7751.1105   0.10427347 
    4370    1819.5198   -4618.0293   -4516.6618    26559.444     7743.673     0.104109 
    4380    1795.6515   -4616.2648    -4516.227    27212.816    7737.3034    0.1055561 
    4390    1745.0216   -4613.0674   -4515.8503    28488.919    7731.3495   0.10772476 
    4400    1732.4938    -4611.984   -4515.4649    28962.519    7727.3776   0.10990382 
    4410    1731.6109   -4611.5368   -4515.0668    28579.863    7726.9328   0.11238937 
    4420    1739.3285   -4611.5503   -4514.6504    27599.015    7729.2121   0.11523849 
    4430    1707.3756   -4609.3208    -4514.201    27713.137    7732.9707   0.11834097 
    4440    1681.9129   -4607.4048   -4513.7035    27279.275    7738.2603   0.12082783 
    4450    1739.8219   -4610.0529   -4513.1255    25693.497    7744.8461   0.12168044 
    4460    1795.4117   -4612.5125   -4512.4881    25659.959    7752.0893   0.12155185 
    4470    1846.7542   -4614.7617   -4511.8769    24858.894    7760.1339   0.12188279 
    4480    1796.0863   -4611.3666   -4511.3046    24831.497    7768.5436   0.12394129 
    4490    1754.4203   -4608.4878   -4510.7471    24225.931    7775.5513   0.12640929 
    4500     1792.784   -4610.0579   -4510.1799    22436.927    7779.2545   0.12779856 
    4510     1754.531   -4607.3708   -4509.6239    23288.667    7779.2885   0.12844784 
    4520    1718.1053   -4604.7745    -4509.057    24492.214     7777.072    0.1278834 
    4530     1750.178   -4605.9428   -4508.4384    24138.164    7773.0787   0.12527879 
    4540    1808.9277    -4608.552   -4507.7746     23375.52    7766.7512   0.12078848 
    4550    1891.5382   -4612.4807    -4507.101    24217.539    7759.1165   0.11595946 
    4560    1867.3395   -4610.5331   -4506.5015    27666.842    7751.6637   0.11312582 
    4570    1792.3411   -4605.8343    -4505.981     31133.64    7744.5038   0.11192621 
    4580    1873.9485   -4609.8681   -4505.4683    30924.048    7738.4391   0.11096786 
    4590    1890.2785   -4610.2912   -4504.9817    30558.209    7735.5147   0.11160984 
    4600    1868.4504   -4608.6981   -4504.6046    29617.392    7736.6167   0.11375019 
    4610    1827.9878     -4606.12   -4504.2808    28451.073    7741.1866   0.11631905 
    4620    1822.4756   -4605.4943   -4503.9621    27373.739    7748.4476   0.11857736 
    4630    1801.4532   -4603.9719   -4503.6109    28068.881    7757.5502   0.12088573 
    4640    1756.0404   -4601.0264   -4503.1954    28160.836    7767.7559   0.12318358 
    4650    1841.8831    -4605.302   -4502.6887    25098.384    7777.9708   0.12492334 
    4660    1865.4349   -4606.0452   -4502.1198    23359.847     7786.946   0.12772425 
    4670    1834.0843   -4603.7359    -4501.557    23367.921    7793.4554   0.13129098 
    4680    1893.3175   -4606.4918    -4501.013    21901.923    7796.0269    0.1337508 
    4690    1869.5217   -4604.6708   -4500.5176    22381.827    7794.1784   0.13579772 
    4700    1756.9075   -4597.9057   -4500.0264    25447.376    7789.8854   0.13787722 
    4710    1807.7545   -4600.1832   -4499.4712    25152.512    7785.1692   0.13868079 
    4720    1886.9962   -4603.9849   -4498.8582    23777.031    7779.1129   0.13879432 
    4730    1825.6452   -4599.9716   -4498.2629    26331.388    7770.4586   0.13933959 
    4740    1747.6056   -4594.9957   -4497.6347    29415.897    7760.2831   0.13938664 
    4750    1828.0431   -4598.7523     -4496.91    28865.437    7750.3914    0.1374424 
    4760    1968.9605   -4605.8334   -4496.1404    27597.104    7741.1806   0.13470905 
    4770    1911.2983   -4601.9153   -4495.4347    30734.245    7733.5182   0.13395545 
    4780    1813.1428   -4595.8467   -4494.8345    33222.475    7730.1968   0.13464457 
    4790    1862.4921   -4598.0494   -4494.2878    31744.183    7732.5959   0.13532758 
    4800    1906.2544   -4599.9326    -4493.733     30295.75    7738.9118   0.13662757 
    4810    1934.3133   -4600.9873   -4493.2246    29070.569    7747.4836   0.13883989 
    4820    1885.9851   -4597.8216   -4492.7513    28804.861    7757.4151   0.14198775 
    4830    1856.6179   -4595.7069   -4492.2726    28762.362     7767.032   0.14462334 
    4840    1895.4114   -4597.3714   -4491.7759    28352.032     7775.336   0.14580777 
    4850    1939.3223   -4599.3362   -4491.2944    27109.983    7783.1262   0.14700109 
    4860    1899.6873   -4596.6555   -4490.8218    26486.044    7790.3573   0.14974161 
    4870    1912.0663   -4596.8704    -4490.347    24284.648     7794.812   0.15249819 
    4880    1971.8532   -4599.7729   -4489.9187    22962.388    7793.5946   0.15346162 
    4890     1947.495   -4598.0838   -4489.5866    25668.508    7785.9125   0.15266797 
    4900    1847.6997   -4592.1759   -4489.2385    30130.467    7774.1185   0.15057346 
    4910    1853.5645   -4592.0638   -4488.7996    32126.288    7760.8542   0.14687746 
    4920    1925.0175   -4595.5079    -4488.263    31407.602    7746.8572   0.14240657 
    4930    1961.3224   -4596.9258   -4487.6583    30901.216    7732.5113   0.13878583 
    4940    1998.3088   -4598.3355   -4487.0074    31463.168    7719.9269   0.13692978 
    4950    1974.6479    -4596.402   -4486.3922    33981.756    7712.2852   0.13761984 
    4960    1932.9122     -4593.57   -4485.8853    35946.222    7711.4493   0.14040231 
    4970     1930.798   -4593.0188   -4485.4519    35358.995    7717.5167   0.14451035 
    4980    1886.4273   -4590.1123   -4485.0174    33877.527    7729.8274   0.14976599 
    4990    1932.9797   -4592.1994   -4484.5109    31881.343    7746.9141   0.15547049 
    5000    1856.5895   -4587.3038   -4483.8712    32477.101    7766.4958    0.1626777 
Loop time of 1493.22 on 16 procs for 5000 steps with 432 atoms

Performance: 0.289 ns/day, 82.957 hours/ns, 3.348 timesteps/s
95.6% CPU use with 16 MPI tasks x 1 OpenMP threads

MPI task timing breakdown:
Section |  min time  |  avg time  |  max time  |%varavg| %total
---------------------------------------------------------------
Pair    | 897.58     | 1191.6     | 1380       | 416.5 | 79.80
Bond    | 0.00034046 | 0.00081204 | 0.0019703  |   0.0 |  0.00
Neigh   | 0.040147   | 0.04098    | 0.041683   |   0.2 |  0.00
Comm    | 107.07     | 290.43     | 579.75     | 836.3 | 19.45
Output  | 1.9151     | 1.9223     | 2.0246     |   1.9 |  0.13
Modify  | 4.1579     | 9.2266     | 13.918     | 120.1 |  0.62
Other   |            | 0.02211    |            |       |  0.00

Nlocal:        27.0000 ave          31 max          21 min
Histogram: 1 0 2 0 1 3 0 3 3 3
Nghost:        485.000 ave         491 max         481 min
Histogram: 1 2 3 3 0 3 1 0 2 1
Neighs:         0.00000 ave           0 max           0 min
Histogram: 16 0 0 0 0 0 0 0 0 0
FullNghs:      1603.12 ave        1868 max        1225 min
Histogram: 1 1 1 0 4 0 2 1 5 1

Total # of neighbors = 25650
Ave neighs/atom = 59.375000
Ave special neighs/atom = 0.0000000
Neighbor list builds = 481
Dangerous builds = 395
Setting up Verlet run ...
  Unit style    : metal
  Current step  : 5000
  Time step     : 0.001
Per MPI rank memory allocation (min/avg/max) = 8.897 | 8.897 | 8.898 Mbytes
Step Temp PotEng TotEng Press Volume c_msd[4] 
    5000    1856.5895   -4587.3038   -4483.8712    32477.101    7766.4958    0.1626777 
    5010    1825.6939   -4585.4885   -4483.7771    33259.553    7766.5589   0.16355281 
    5020    1980.8609   -4593.8849    -4483.529     28555.99    7766.7777   0.16285316 
    5030      2024.12   -4595.9799   -4483.2139    26262.244    7767.0139   0.16366593 
    5040    1913.8045   -4589.5192    -4482.899    28495.563    7767.1535   0.16679023 
    5050    1877.5879   -4587.1161   -4482.5136    28965.047      7767.26   0.16989328 
    5060    1925.8644   -4589.2829   -4481.9909    27556.429    7767.4168   0.17182814 
    5070     1889.128    -4586.584   -4481.3386    27884.578    7767.7161   0.17290214 
    5080    1845.1848   -4583.3549   -4480.5576    29730.184    7768.1902    0.1720841 
    5090    1889.5375   -4584.8603    -4479.592    29461.765    7768.6592   0.16853539 
    5100    1997.1624   -4589.7144   -4478.4502    27227.866    7768.9857   0.16349374 
    5110    2005.6336   -4588.9789   -4477.2428    28433.937     7769.215   0.15917032 
    5120    2021.0258   -4588.6777   -4476.0841    30938.299    7769.5415   0.15558463 
    5130    2061.0244   -4589.8231   -4475.0011    33755.424    7770.0625   0.15281474 
    5140       2052.1   -4588.3775   -4474.0527    35800.841    7770.8877   0.15129545 
    5150    2111.5484   -4590.9021   -4473.2654    34059.837    7772.1001   0.15020911 
    5160    2176.9139   -4593.9576   -4472.6793    32137.752    7773.4831   0.15015444 
    5170    2031.0745   -4585.4793   -4472.3259    34314.865    7774.8778   0.15264015 
    5180    1952.7053   -4580.8741   -4472.0867    33863.661    7776.4982   0.15549181 
    5190    2080.9303   -4587.8071   -4471.8761    27806.261    7778.4848   0.15750824 
    5200    2018.6203   -4584.1802   -4471.7206      26842.6    7780.5525   0.16102699 
    5210    1899.4058   -4577.4304   -4471.6124    28839.185    7782.5252   0.16506069 
    5220     1875.994   -4575.9519   -4471.4382    28705.448    7784.5202    0.1674396 
    5230    1939.5366   -4579.2262   -4471.1724    28348.582    7786.5315    0.1678588 
    5240    1975.5257   -4580.9206   -4470.8618    29181.454    7788.4523   0.16768392 
    5250    2006.2462   -4582.3381   -4470.5679     30343.56    7790.2911   0.16779557 
    5260     2017.793   -4582.7232   -4470.3097     30316.76    7792.1269   0.16875173 
    5270    2012.7919   -4582.2294   -4470.0945    29934.869     7793.945    0.1702077 
    5280    2025.7712   -4582.7793   -4469.9213    28968.976    7795.6753   0.17123729 
    5290    2008.4877   -4581.6755   -4469.7804    29247.932    7797.2959    0.1715457 
    5300    2031.9637   -4582.8746   -4469.6716    27193.164    7798.7114   0.17072251 
    5310    2040.2297   -4583.2585    -4469.595    24716.814    7799.6269   0.16938864 
    5320    2025.6319   -4582.4248   -4469.5745    24409.585    7799.7965   0.16852135 
    5330    1985.9788   -4580.2195   -4469.5784    25736.929    7799.2901    0.1687636 
    5340    1995.3691   -4580.7463   -4469.5821    26634.434    7798.4258   0.17005281 
    5350    1972.8292   -4579.4809   -4469.5724    27935.791    7797.3026   0.17269573 
    5360    1913.7889   -4576.1507   -4469.5314    29560.841    7795.8652   0.17607963 
    5370    1877.5591   -4573.9975   -4469.3966     29337.79    7794.3478   0.17880309 
    5380    1906.1669   -4575.3469   -4469.1522    26800.968    7792.9558   0.18019426 
    5390    1890.7954   -4574.1311   -4468.7928    26574.711    7791.5865   0.18068793 
    5400    1936.7338   -4576.2328   -4468.3352    26590.699     7790.151   0.17990025 
    5410       2005.9   -4579.5416   -4467.7907     26116.15    7788.6026   0.17835105 
    5420    2058.0908   -4581.9007   -4467.2421    26263.723    7786.7967   0.17723435 
    5430    2011.5453   -4578.8052   -4466.7398    28762.825    7784.5992   0.17748692 
    5440    1909.2234   -4572.6123   -4466.2473    33319.601    7782.1466   0.17785276 
    5450    1934.8817   -4573.4727   -4465.6782    33879.117    7779.7476   0.17591288 
    5460    2067.5941   -4580.2014   -4465.0134    31356.628    7777.4749   0.17194026 
    5470    2151.1977   -4584.2133   -4464.3676    30269.226    7775.2472   0.16847567 
    5480     2110.673   -4581.4517   -4463.8638    32942.611    7773.0474   0.16715066 
    5490    2056.4199   -4578.0506   -4463.4852    35130.295    7770.9484   0.16729636 
    5500    2050.2911   -4577.3936   -4463.1696    35349.009    7769.1218   0.16816731 
    5510    2012.3078   -4574.9984   -4462.8904    34698.437    7767.7735   0.17006326 
    5520    1920.9026   -4569.6189   -4462.6033    34692.353    7766.9548   0.17250997 
    5530    1928.4589   -4569.6653   -4462.2287     32686.38    7766.7486   0.17356465 
    5540    2006.3399   -4573.4967   -4461.7212    29537.341    7767.2147   0.17288591 
    5550    2009.1895   -4573.0329   -4461.0987    30443.745    7768.1626   0.17163384 
    5560    2012.0844   -4572.4603   -4460.3648     31841.06    7769.4435   0.16971545 
    5570    2100.9925   -4576.5281   -4459.4795    30305.142    7771.0305   0.16714093 
    5580    2088.3027   -4574.7903   -4458.4486    30700.868    7772.8481   0.16569986 
    5590    2111.5594   -4574.9489   -4457.3115    32112.515    7774.8666   0.16516057 
    5600    2124.6359   -4574.4018    -4456.036    33185.497    7777.0823   0.16551134 
    5610    2134.2872   -4573.5875    -4454.684    33314.015    7779.5359   0.16663617 
    5620    2226.9272   -4577.3541   -4453.2895    31365.452    7782.2506    0.1686998 
    5630    2146.4005   -4571.5552   -4451.9769    32452.587    7785.1152   0.17349507 
    5640    2083.9686   -4566.9194   -4450.8192    32382.836    7788.0557   0.17925282 
    5650    2159.4044   -4570.0322   -4449.7294    29329.405    7791.0675   0.18419936 
    5660    2121.7366   -4566.9647   -4448.7603    29115.965    7794.2368   0.18984822 
    5670    2026.2073   -4560.8389   -4447.9566    31328.992     7797.744   0.19598488 
    5680    2037.1894   -4560.7131    -4447.219    31663.314    7801.6968   0.20066457 
    5690    2067.5595   -4561.6854   -4446.4993    31644.652    7806.0469   0.20352663 
    5700    2149.6649    -4565.616   -4445.8557    32025.035    7810.7381   0.20536238 
    5710    2099.5056    -4562.305   -4445.3392    33631.428    7815.6364   0.20844718 
    5720    2041.8179    -4558.709    -4444.957    35374.622     7820.679    0.2123009 
    5730    2146.3566   -4564.2291   -4444.6531    33184.265    7825.9781   0.21571655 
    5740     2240.576    -4569.304    -4444.479    29981.713     7831.445   0.21993073 
    5750    2267.0372   -4570.8748   -4444.5756    28620.794    7836.7904   0.22639956 
    5760    2219.6497   -4568.6821   -4445.0229     29315.44    7841.9312   0.23611342 
    5770    2082.4468    -4561.756   -4445.7406    30255.574    7847.0654   0.24872804 
    5780    2000.2392   -4558.0127   -4446.5771    29075.017    7852.4004   0.26201576 
    5790    1997.8906   -4558.7518   -4447.4471     25812.27    7857.9553   0.27454319 
    5800    1992.5346   -4559.3582   -4448.3518    22783.873    7863.5519   0.28622544 
    5810    1906.4316   -4555.4485   -4449.2391    21185.633    7869.0225   0.29650581 
    5820    1881.6209   -4554.8625   -4450.0353    20173.011    7874.2791   0.30345736 
    5830    1989.1561   -4561.5844   -4450.7663    16710.802    7879.2544   0.30701042 
    5840    2068.9041    -4566.806   -4451.5451    14519.963    7883.7859   0.31037152 
    5850    1981.3883   -4562.7778   -4452.3924    18146.488    7887.7331   0.31567274 
    5860    1904.3224   -4559.3037   -4453.2118    20878.971    7891.1155   0.32075861 
    5870    1922.2776   -4561.0505   -4453.9583    20315.146    7894.0597   0.32367163 
    5880    1939.8684   -4562.7203    -4454.648    18813.168    7896.7926   0.32522048 
    5890    1956.5755   -4564.2823   -4455.2792    17064.176    7899.4657   0.32637709 
    5900    2031.6948   -4569.0919   -4455.9039    13842.669     7901.998   0.32837723 
    5910    2034.9061   -4569.9398   -4456.5729    11355.171    7904.1249   0.33360511 
    5920    1937.8606   -4565.2248   -4457.2644     11838.74    7905.5545    0.3425391 
    5930    1852.8263   -4561.1067   -4457.8837    12707.112    7906.1316   0.35257656 
    5940    1824.1037   -4559.9901   -4458.3673    12931.666    7905.9321   0.36084634 
    5950    1818.9464   -4560.0158   -4458.6803    12941.503    7905.2775   0.36650358 
    5960    1887.6532   -4564.0007   -4458.8374    11197.928    7904.4099   0.36962345 
    5970    1982.7844   -4569.3645   -4458.9013    8103.3204    7903.1751    0.3716166 
    5980     1993.868   -4570.0287    -4458.948     5728.325    7901.2049   0.37462514 
    5990    1975.3349   -4569.0584   -4459.0103    3933.8813    7898.2389   0.37902838 
    6000    1940.3238   -4567.1698   -4459.0722    3926.0547    7894.0818   0.38429216 
    6010    1872.7514    -4563.407   -4459.0739    5795.4228    7888.6093   0.38970181 
    6020    1870.1972   -4563.1145   -4458.9237    5913.0486    7881.7975   0.39403695 
    6030    1925.3224   -4565.7621   -4458.5003    5660.9212    7873.7557   0.39705816 
    6040    2006.0433   -4569.5023   -4457.7433    4468.2091    7864.7671   0.39952252 
    6050    2009.8985   -4568.6698   -4456.6961    4368.1803     7855.094   0.40243718 
    6060    1984.3881   -4566.0023   -4455.4498    5688.8041    7844.8417   0.40616072 
    6070    1970.6158   -4563.8213   -4454.0361    7492.3494    7834.0792   0.41178491 
    6080    1997.0771   -4563.7458   -4452.4864    8142.8371    7823.0928    0.4205184 
    6090    2005.6046    -4562.672   -4450.9375    6518.6074    7812.0621   0.43312555 
    6100    2022.3857    -4562.183   -4449.5136    3546.2381    7800.7881   0.44946755 
    6110    2076.8203    -4563.924    -4448.222    751.88468    7789.1344   0.46962973 
    6120    2061.8654   -4561.9495   -4447.0807    212.51397    7777.2173   0.49446464 
    6130    2004.5907    -4557.763    -4446.085    218.36789    7765.2969   0.52297373 
    6140    2085.9652   -4561.4134    -4445.202   -4435.0487    7753.5888   0.55310347 
    6150    2106.8375   -4561.8591   -4444.4848   -9294.3583    7741.9212   0.58561441 
    6160    2096.7714   -4560.8036   -4443.9901   -12333.513    7729.9122   0.62030187 
    6170    2133.3822   -4562.5119   -4443.6588   -15112.253    7717.3449     0.656191 
    6180    2132.9409    -4562.308   -4443.4794    -16586.18    7704.2649   0.69380153 
    6190    2152.4122   -4563.3898   -4443.4765   -18275.136    7690.7047   0.73318236 
    6200    2148.9736   -4563.3501   -4443.6283    -19699.04    7676.7101   0.77423432 
    6210    2154.9163   -4563.9398    -4443.887   -21078.089    7662.5873   0.81671948 
    6220    2319.1359   -4573.5793   -4444.3776   -25360.209    7648.6077   0.86122575 
    6230    2449.6489   -4581.8507    -4445.378   -30223.028    7634.6721   0.91047754 
    6240    2410.3272   -4581.3134   -4447.0314   -31902.544    7620.5019   0.96555216 
    6250    2315.7694   -4578.1728   -4449.1587   -33735.013    7605.8616    1.0229009 
    6260    2337.1426   -4581.7466   -4451.5418   -40979.434    7590.5657    1.0787318 
    6270    2415.9081    -4588.709    -4454.116   -48918.316    7574.5546    1.1341053 
    6280      2456.56   -4593.6519   -4456.7942   -54603.675    7557.8835    1.1906545 
    6290    2460.3096   -4596.6254   -4459.5588   -57998.016    7540.4476    1.2479184 
    6300    2396.1343   -4595.7262   -4462.2349   -58660.955     7522.108    1.3043374 
    6310    2424.4894   -4599.8997   -4464.8287   -59831.374    7502.9291    1.3573485 
    6320    2403.6041     -4601.33   -4467.4226   -58820.853    7483.0024    1.4079994 
    6330    2392.0768   -4603.2957   -4470.0304   -57286.635    7462.4571    1.4564099 
    6340    2396.2528   -4606.2163   -4472.7183   -54953.949    7441.3882    1.5016801 
    6350    2362.5236   -4607.0428   -4475.4239   -52707.876    7419.9602    1.5449686 
    6360    2394.1528   -4611.5017   -4478.1207   -52887.181    7398.4713    1.5878546 
    6370    2423.3367   -4615.9423   -4480.9355   -52035.154    7377.1562    1.6313155 
    6380    2346.3729     -4614.47    -4483.751   -47701.644    7356.1492    1.6743181 
    6390    2342.6546   -4616.9351   -4486.4232   -47141.629    7335.7607    1.7153705 
    6400    2390.5456   -4622.3572   -4489.1772   -49335.426    7316.1074    1.7564624 
    6410    2308.7774   -4620.5783   -4491.9537   -49247.074    7297.0238    1.8004323 
    6420    2314.4811   -4623.6396   -4494.6973   -50733.019    7278.4101    1.8478208 
    6430    2259.4694   -4623.2683   -4497.3907    -50923.41    7260.1768    1.8977487 
    6440    2283.8908    -4627.202   -4499.9639   -53352.496    7242.3754    1.9449673 
    6450    2414.9083   -4637.2744   -4502.7371   -59834.098    7224.9252    1.9866497 
    6460    2366.8899   -4637.6095   -4505.7474   -61167.497    7207.4888    2.0245913 
    6470    2270.1275    -4635.147   -4508.6756   -59184.371    7190.0619    2.0589635 
    6480    2204.0211   -4634.1887   -4511.4003   -57082.264    7172.8821    2.0881019 
    6490    2138.5309   -4632.9788   -4513.8389   -56112.585    7156.1637    2.1089497 
    6500    2262.8964    -4642.237   -4516.1685   -59155.213    7140.0449      2.12055 
    6510    2379.1253   -4651.3093   -4518.7656   -63228.599    7124.3149    2.1277594 
    6520    2319.6147   -4650.7828   -4521.5544   -63528.278     7108.652    2.1355057 
    6530    2307.1439   -4652.8917   -4524.3581   -63224.304    7093.0414    2.1438514 
    6540    2273.9043   -4653.8185   -4527.1368   -63288.033    7077.6074    2.1528532 
    6550    2216.4349   -4653.2939   -4529.8138   -62378.215     7062.415    2.1630513 
    6560    2132.6216   -4651.0785   -4532.2678   -60279.713    7047.5369    2.1740749 
    6570    2207.5348   -4657.5114   -4534.5272   -63384.282    7033.1736    2.1841134 
    6580    2304.5489   -4665.2945   -4536.9055   -64853.322    7019.3739    2.1942139 
    6590     2180.224   -4660.8126   -4539.3498    -61689.15    7005.9723    2.2052364 
    6600    2118.3152   -4659.6656   -4541.6518   -59357.928    6992.7788    2.2144962 
    6610    2267.3032   -4670.2727   -4543.9587   -62498.993    6979.6646    2.2230239 
    6620    2367.3885   -4678.4237   -4546.5338   -68082.598    6966.4498    2.2355229 
    6630    2306.9795   -4677.8845   -4549.3601   -68538.713    6952.8618    2.2531954 
    6640    2203.1748   -4674.9012   -4552.1598   -67379.362    6938.7387     2.273952 
    6650    2202.8598   -4677.5479   -4554.8241    -71134.95    6924.1475    2.2959714 
    6660     2272.784   -4684.0829   -4557.4636   -74427.793    6909.2128    2.3190105 
    6670      2237.63   -4684.7959    -4560.135   -71753.022    6894.0598    2.3444903 
    6680    2059.9255   -4677.3113   -4562.5505   -64152.261    6878.9096    2.3710229 
    6690    2077.4865   -4680.3539   -4564.6148   -59090.342    6864.1153    2.3955865 
    6700    2232.6818   -4691.0309   -4566.6457   -58488.808    6849.9622    2.4211436 
    6710    2173.3437   -4689.8093   -4568.7299    -54707.01    6836.5565    2.4527084 
    6720    2100.5806    -4687.704   -4570.6783   -51703.073    6824.0974    2.4892204 
    6730    2204.3845   -4695.4424   -4572.6337   -58417.827    6812.6543    2.5291421 
    6740    2303.9255   -4703.2188   -4574.8646   -68224.227    6801.8275    2.5731703 
    6750    2227.8367   -4701.4114   -4577.2961   -70471.379    6791.0987    2.6191011 
    6760      2133.32   -4698.5392   -4579.6895   -69458.642    6780.2368    2.6632927 
    6770    2142.9029   -4701.3528   -4581.9693   -69482.649    6769.1827    2.7054144 
    6780    2236.9194   -4708.9127   -4584.2914   -71176.855    6757.8907    2.7479541 
    6790    2204.7787   -4709.5025   -4586.6718   -70567.994    6746.3769    2.7947948 
    6800    2119.8719   -4707.0796   -4588.9791   -71610.098     6734.745    2.8443692 
    6810    2127.5735   -4709.7513   -4591.2218   -73454.885    6722.9252     2.891358 
    6820    2133.1568   -4712.3267   -4593.4861   -74348.709    6710.6741    2.9339776 
    6830    2071.3011   -4711.0454   -4595.6509   -74308.476     6697.914    2.9733677 
    6840    2137.6144   -4716.7878   -4597.6989   -75758.984    6684.8341    3.0127633 
    6850    2229.1467   -4723.9601   -4599.7718   -76576.613    6671.7582    3.0557797 
    6860    2200.1112   -4724.5371   -4601.9665   -74989.252    6658.8529    3.1013094 
    6870    2127.2504   -4722.6952   -4604.1837   -73327.745    6646.0043    3.1483431 
    6880    2120.9221   -4724.5134   -4606.3544   -71322.069    6633.1059    3.1993437 
    6890    2082.1172   -4724.4307   -4608.4336   -68409.604     6620.202    3.2563455 
    6900    2075.9884   -4726.0257     -4610.37   -67330.753    6607.4373    3.3186581 
    6910    2150.1359   -4732.0792   -4612.2927    -68600.45    6594.9125    3.3849624 
    6920    2105.5878   -4731.5549   -4614.2503    -67694.29    6582.6052    3.4535105 
    6930    1999.9316   -4727.4603   -4616.0418   -64256.113    6570.5917    3.5195309 
    6940    2055.7148   -4732.1939   -4617.6677   -64215.985    6559.1127    3.5798372 
    6950    2126.4572   -4737.7876   -4619.3203   -66263.403    6548.2409    3.6384799 
    6960    2022.4157   -4733.6428   -4620.9717   -65135.181    6537.9007    3.6977841 
    6970    1952.0175   -4731.2167   -4622.4676   -63782.615    6528.0486    3.7503011 
    6980    2028.2265   -4736.8762   -4623.8815   -64210.344    6518.6261    3.7911452 
    6990    2019.5387   -4737.7685   -4625.2577   -63183.438    6509.5626    3.8238985 
    7000    2020.5836   -4739.1571   -4626.5882   -63694.353    6500.8545    3.8529519 
Loop time of 543.172 on 16 procs for 2000 steps with 432 atoms

Performance: 0.318 ns/day, 75.441 hours/ns, 3.682 timesteps/s
95.9% CPU use with 16 MPI tasks x 1 OpenMP threads

MPI task timing breakdown:
Section |  min time  |  avg time  |  max time  |%varavg| %total
---------------------------------------------------------------
Pair    | 344.66     | 432.76     | 515.47     | 258.9 | 79.67
Bond    | 0.00012445 | 0.00028545 | 0.00071836 |   0.0 |  0.00
Neigh   | 0.015458   | 0.017327   | 0.018585   |   0.5 |  0.00
Comm    | 24.026     | 104.46     | 193.38     | 526.8 | 19.23
Output  | 2.2307     | 2.2334     | 2.2721     |   0.7 |  0.41
Modify  | 1.4205     | 3.6958     | 6.3896     |  94.5 |  0.68
Other   |            | 0.007757   |            |       |  0.00

Nlocal:        27.0000 ave          31 max          21 min
Histogram: 1 0 0 0 3 1 5 2 2 2
Nghost:        485.562 ave         498 max         467 min
Histogram: 2 0 2 1 1 2 1 1 2 4
Neighs:         0.00000 ave           0 max           0 min
Histogram: 16 0 0 0 0 0 0 0 0 0
FullNghs:      1737.88 ave        2015 max        1299 min
Histogram: 1 0 0 1 2 4 2 2 3 1

Total # of neighbors = 27806
Ave neighs/atom = 64.365741
Ave special neighs/atom = 0.0000000
Neighbor list builds = 200
Dangerous builds = 200
Setting up Verlet run ...
  Unit style    : metal
  Current step  : 7000
  Time step     : 0.001
Per MPI rank memory allocation (min/avg/max) = 8.897 | 8.898 | 8.899 Mbytes
Step Temp PotEng TotEng Press Volume c_msd[4] 
    7000    2020.5836   -4739.1571   -4626.5882   -63694.353    6500.8545    3.8529519 
    7010     2089.572   -4743.0349   -4626.6225   -65428.654     6500.704    3.8577541 
    7020     2047.806   -4740.8358   -4626.7502   -61872.276    6500.0401    3.8664337 
    7030    1926.8859   -4734.2616   -4626.9127   -56832.392    6498.8657    3.8756404 
    7040    1961.8371   -4736.3349   -4627.0387   -56589.862    6497.3927    3.8822957 
    7050    2008.8101   -4739.0414   -4627.1283   -59658.497    6495.6677    3.8913809 
    7060    2050.4862   -4741.4995   -4627.2646   -62700.886    6493.4761    3.9084257 
    7070    2027.0207   -4740.4032   -4627.4756   -62226.726    6490.6251    3.9308603 
    7080    2024.8483   -4740.5638   -4627.7572   -63533.742    6487.1205    3.9512358 
    7090    2031.3484   -4741.3003   -4628.1316   -66235.772    6482.9308    3.9700626 
    7100     1976.006   -4738.6636   -4628.5781   -65890.792    6478.0047     3.997222 
    7110       2025.9    -4741.957   -4629.0919   -67650.101    6472.3835    4.0367282 
    7120    2140.7777   -4749.0674   -4629.8023    -70661.72      6465.97      4.08536 
    7130    2099.9974   -4747.8193    -4630.826   -69727.303    6458.5064    4.1383972 
    7140    1975.2263   -4742.0978   -4632.0557   -65272.688    6450.0347    4.1898581 
    7150    1927.1944    -4740.704   -4633.3378   -64220.569    6440.8746    4.2365572 
    7160    2001.8013   -4746.2815   -4634.7589   -66788.383    6431.1024    4.2824511 
    7170    1976.6904    -4746.396   -4636.2723   -64386.389     6420.646     4.333587 
    7180    1997.3392   -4749.0206   -4637.7466   -62179.607    6409.7989    4.3880607 
    7190    2046.8002   -4753.2523   -4639.2228   -63563.524    6398.9347    4.4405586 
    7200    1979.3821   -4750.9365   -4640.6629    -62005.62    6388.1335    4.4882193 
    7210    1872.0857   -4746.1506   -4641.8546   -57071.762    6377.4543    4.5296479 
    7220    1925.9764   -4750.0243    -4642.726   -55842.988    6367.1571    4.5669827 
    7230     2060.029   -4758.2389   -4643.4724   -58433.865    6357.4249    4.6060704 
    7240    2019.4542   -4756.6897   -4644.1836   -54952.411    6348.1902    4.6472452 
    7250    1978.4931   -4755.0325   -4644.8084    -48344.18    6339.3959    4.6804993 
    7260    2022.8397   -4758.0379   -4645.3433   -44341.345    6331.1096    4.6990899 
    7270    2080.3495    -4761.776   -4645.8774   -42291.479    6323.3311    4.7089204 
    7280    2123.5754   -4764.7822   -4646.4754   -44360.166    6316.0285    4.7196335 
    7290    2162.4544   -4767.6809   -4647.2081   -47191.099    6309.1853    4.7297111 
    7300    2057.4751    -4762.631   -4648.0068   -47166.697    6302.9277    4.7335913 
    7310    2074.3547   -4764.3936    -4648.829   -47479.481      6297.47     4.730464 
    7320    2061.8518   -4764.5554   -4649.6873    -44932.32    6292.9441    4.7267177 
    7330    2030.5998   -4763.6755   -4650.5485   -41738.902    6289.5581    4.7290382 
    7340    2094.9759   -4768.1818   -4651.4683   -44775.634    6287.5406    4.7406337 
    7350    2084.3683   -4768.6132   -4652.4907   -46069.259    6286.8103    4.7564989 
    7360    2032.1343   -4766.7789   -4653.5665    -45636.26    6287.1923    4.7654829 
    7370    2082.4453   -4770.6703    -4654.655   -49400.196    6288.6233    4.7641465 
    7380    2196.2044   -4778.2352   -4655.8821   -56783.503    6290.9677    4.7611693 
    7390    2126.1691   -4775.6865   -4657.2353   -58893.034    6293.9133    4.7640131 
    7400    2089.3711   -4775.0249   -4658.6237   -60398.783    6297.2078    4.7707202 
    7410    2021.9968   -4772.6023   -4659.9546   -61357.576    6300.6262    4.7768147 
    7420    1985.6967   -4771.7907   -4661.1653   -64592.756    6303.9975    4.7763231 
    7430    1972.4442   -4772.1417   -4662.2546   -67089.367    6307.2313    4.7659627 
    7440    1972.2889   -4773.1052   -4663.2267   -67977.949    6310.1977    4.7480379 
    7450     2022.104     -4776.81   -4664.1563   -70538.925    6312.7481    4.7283095 
    7460    2007.3477   -4776.8984   -4665.0668   -72435.783    6314.7207    4.7118561 
    7470    2028.9301   -4779.0468   -4666.0128    -73999.08     6316.046    4.7010697 
    7480    1967.7819   -4776.5828   -4666.9555   -73912.732    6316.7247    4.6965566 
    7490    2002.8067     -4779.47   -4667.8914   -76027.826     6316.796     4.697483 
    7500    2080.6163   -4784.8051   -4668.8916   -79404.374    6316.2475    4.7053093 
    7510    2056.3172   -4784.5859   -4670.0262   -78284.222    6314.9621    4.7250623 
    7520     1914.676   -4777.8394   -4671.1707   -70688.944    6312.8145    4.7587018 
    7530    1899.5868   -4778.0413   -4672.2132   -67371.791    6309.7969     4.796512 
    7540    1988.0877   -4783.9651   -4673.2065    -67840.82    6305.9827    4.8272499 
    7550    2015.1805   -4786.4768   -4674.2088   -68214.335    6301.5881    4.8498126 
    7560    2020.9434   -4787.8448   -4675.2557   -69971.061    6296.8796    4.8711955 
    7570    1961.6141   -4785.6178   -4676.3341   -69029.068    6291.9158    4.8989262 
    7580    1928.6131    -4784.813   -4677.3678   -67261.258    6286.6704    4.9347718 
    7590     1936.352   -4786.2283    -4678.352   -68442.781      6281.18    4.9725802 
    7600    1953.6325   -4788.1464   -4679.3073   -69906.066    6275.4497    5.0035508 
    7610    1916.8706   -4787.0097   -4680.2187   -68701.901    6269.5716    5.0281588 
    7620    1902.2464   -4787.0111   -4681.0348    -68241.06    6263.8033    5.0546166 
    7630    1960.3352   -4791.0376   -4681.8251   -68409.177    6258.3321    5.0864982 
    7640    1964.2655   -4792.0595    -4682.628   -69447.981    6253.1724    5.1211956 
    7650    1978.1412   -4793.6862   -4683.4817   -68986.137    6248.2934    5.1564757 
    7660    1912.0419   -4790.8465   -4684.3245   -64616.377    6243.8016    5.1911119 
    7670    1898.0049   -4790.8617   -4685.1217   -63380.679    6239.8826      5.22289 
    7680    1950.1938   -4794.5563   -4685.9088   -67230.541     6236.556    5.2522439 
    7690    1957.8215   -4795.8085    -4686.736   -67759.399    6233.7092    5.2782702 
    7700    1917.0283   -4794.3716   -4687.5718   -64140.154    6231.2924    5.2954857 
    7710    1944.1109   -4796.7126    -4688.404   -65551.487    6229.3609    5.2992936 
    7720    1991.9002   -4800.2496   -4689.2786   -69190.118    6227.9121    5.2942305 
    7730    2021.1824   -4802.8405   -4690.2382   -69426.789    6226.8501    5.2896884 
    7740    2025.6827    -4804.166    -4691.313   -66784.884     6226.117    5.2925996 
    7750    1956.0593   -4801.4071   -4692.4329   -63313.278    6225.7372    5.3046489 
    7760    1943.5523   -4801.8105    -4693.533   -60456.831    6225.7285    5.3215513 
    7770    1956.4977   -4803.6008   -4694.6021   -59876.026    6226.0415    5.3353696 
    7780    1992.1105   -4806.6479   -4695.6652   -62558.671    6226.5889    5.3402417 
    7790    2012.3606   -4808.8798   -4696.7689   -64980.025    6227.2715    5.3355575 
    7800    1911.1781   -4804.3248    -4697.851   -62200.656    6227.9785    5.3236591 
    7810    1914.9385   -4805.5141   -4698.8307   -63080.824    6228.6329    5.3081822 
    7820    2038.0275   -4813.3498    -4699.809   -68363.153    6229.1399    5.2944105 
    7830    2053.7335   -4815.3008    -4700.885   -71735.242    6229.3818    5.2848213 
    7840    1975.9348   -4812.1111   -4702.0295   -73704.169    6229.3015     5.279094 
    7850    1945.3629   -4811.5131   -4703.1347   -74648.801    6228.7634    5.2800186 
    7860     2000.558   -4815.7093    -4704.256   -76414.213     6227.707    5.2914349 
    7870    1874.2984   -4809.7598   -4705.3406   -72127.752    6226.2792    5.3126984 
    7880    1783.6347   -4805.6165   -4706.2482   -66686.624    6224.8032    5.3357356 
    7890    1863.3278   -4810.8217   -4707.0136   -68296.712    6223.4306    5.3529136 
    7900    1923.9092   -4814.9267   -4707.7436   -71296.258    6222.0169    5.3611633 
    7910    1929.9226   -4816.0223   -4708.5042   -68798.357    6220.3864    5.3604366 
    7920    1893.4263   -4814.7687   -4709.2837   -63289.482    6218.5927    5.3536555 
    7930    1845.6852    -4812.851   -4710.0258   -58756.314    6216.9135    5.3454042 
    7940    1869.7056   -4814.8909   -4710.7275    -58702.47    6215.6593    5.3433672 
    7950    1904.5133   -4817.5491   -4711.4465    -59941.36    6214.8966    5.3529749 
    7960    1864.2693   -4816.0317   -4712.1712   -57490.944    6214.5079    5.3683299 
    7970     1930.739   -4820.4888   -4712.9252   -55402.437    6214.4457    5.3801754 
    7980    1961.7842   -4823.0675   -4713.7743   -54136.286    6214.6725    5.3873108 
    7990    1851.7708   -4817.8425   -4714.6783   -51885.443     6215.247    5.3914494 
    8000    1807.4623    -4816.228   -4715.5322   -53714.786    6216.3171    5.3918385 
    8010    1863.7001   -4820.1727   -4716.3439   -58098.166    6217.8901     5.388425 
    8020    1828.6135   -4819.0009   -4717.1268   -59519.798    6219.8578    5.3845367 
    8030    1825.7098   -4819.5645   -4717.8522   -61345.535    6222.1145    5.3839385 
    8040    1911.4673   -4825.0588   -4718.5688   -64995.168    6224.4393    5.3880773 
    8050    1878.3917    -4823.958   -4719.3107   -65073.493    6226.5188    5.3979117 
    8060    1864.1505   -4823.9186   -4720.0647   -66803.495    6228.1915    5.4107718 
    8070    1956.6051   -4829.8623   -4720.8576    -74396.93    6229.4003    5.4219749 
    8080    2005.1767   -4833.5186   -4721.8079   -81082.811    6229.9505    5.4321413 
    8090    1868.5825   -4826.9545   -4722.8537   -82928.143    6229.7034     5.446224 
    8100    1796.2815   -4823.9148    -4723.842   -83832.673    6228.6914     5.466003 
    8110    1807.4177   -4825.4188   -4724.7256   -83898.378    6227.0242    5.4894906 
    8120    1866.2872   -4829.5087   -4725.5357   -85017.221    6224.8587    5.5129233 
    8130    1918.4132   -4833.2466   -4726.3697   -85735.987    6222.3099     5.532404 
    8140    1834.0439   -4829.3719   -4727.1953   -85488.489    6219.4296    5.5473805 
    8150    1836.2322   -4830.2918   -4727.9932   -85568.936    6216.2071    5.5606437 
    8160    1797.2091   -4828.8464   -4728.7219   -81784.735    6212.6226    5.5790849 
    8170    1824.4556   -4831.0369   -4729.3944   -79267.946    6208.6878     5.609982 
    8180    1843.2371   -4832.7324   -4730.0436   -75942.646    6204.4048     5.655311 
    8190    1813.4813   -4831.7087   -4730.6776   -73269.475    6199.7706    5.7079655 
    8200     1815.091   -4832.4161   -4731.2953   -72770.591    6194.7667     5.758097 
    8210    1808.6779    -4832.656   -4731.8925   -72003.517    6189.3305    5.8038471 
    8220    1836.0159   -4834.7744   -4732.4879   -71998.896     6183.436    5.8499087 
    8230    1820.8366   -4834.5179   -4733.0771   -71988.766    6177.1309    5.9006192 
    8240    1834.2675     -4835.84   -4733.6509   -73653.882    6170.5844    5.9531468 
    8250    1857.9034   -4837.7443   -4734.2384   -73602.608    6163.9719    6.0007851 
    8260    1841.0482    -4837.388   -4734.8211   -71291.753    6157.5282    6.0387575 
    8270    1838.4007   -4837.8335   -4735.4142   -69028.159    6151.5688    6.0671408 
    8280    1811.5484    -4836.921   -4735.9976    -67902.28     6146.292    6.0889278 
    8290    1905.8284   -4842.7992   -4736.6234   -69926.693    6141.8261    6.1085204 
    8300    1933.0757   -4845.0701   -4737.3763   -71450.992    6138.2505    6.1328238 
    8310    1907.3438   -4844.5205   -4738.2602   -73395.854    6135.5154    6.1601532 
    8320     1935.723   -4847.1052   -4739.2639   -77813.045    6133.4508    6.1830685 
    8330    1844.1157   -4843.0655   -4740.3277   -77899.364    6131.8987    6.1990129 
    8340    1717.4153   -4836.9525   -4741.2733   -73423.476    6130.8414    6.2064254 
    8350    1718.2678   -4837.7581   -4742.0314   -70203.048    6130.3279    6.2064394 
    8360    1807.0655   -4843.3483   -4742.6746   -72319.678    6130.3796    6.2065249 
    8370    1824.7923   -4844.9424   -4743.2812   -74975.336    6130.9261    6.2122743 
    8380    1807.9874   -4844.5875   -4743.8625   -75639.352    6131.8751     6.222993 
    8390    1840.8201   -4846.9915   -4744.4373   -76178.888    6133.1135    6.2349848 
    8400    1792.4922   -4844.8658    -4745.004   -73646.058    6134.5216    6.2409759 
    8410     1773.883    -4844.371    -4745.546    -71883.07    6136.0778     6.234038 
    8420    1727.4183   -4842.2608   -4746.0244   -70203.919    6137.7946    6.2180716 
    8430    1751.5714   -4844.0267   -4746.4447   -71633.079    6139.7346    6.2017826 
    8440    1745.6778   -4844.0661   -4746.8124   -73994.828    6141.8391    6.1908234 
    8450    1718.7838   -4842.8767   -4747.1213   -76912.982    6143.8745    6.1861595 
    8460    1779.2852   -4846.5213   -4747.3953   -80976.772    6145.6633    6.1871227 
    8470    1812.5181   -4848.6568   -4747.6794   -84292.016    6147.1343     6.194023 
    8480    1829.6371   -4849.9691   -4748.0379   -86923.856    6148.2063      6.20404 
    8490    1750.5408   -4845.9695   -4748.4449   -84214.336     6148.815    6.2136767 
    8500     1708.169   -4844.0098   -4748.8458   -80210.561    6149.0478     6.219483 
    8510    1751.5742    -4846.788   -4749.2058   -78311.983      6149.08    6.2166796 
    8520    1806.5404   -4850.2295   -4749.5851   -80362.507    6148.9957    6.2028537 
    8530    1782.8381    -4849.349    -4750.025   -81782.043    6148.7526    6.1810788 
    8540    1717.5929   -4846.1781    -4750.489   -80887.011    6148.3053    6.1586471 
    8550    1709.0914   -4846.1455   -4750.9301   -81393.347    6147.6013    6.1419037 
    8560    1754.1824   -4849.0806   -4751.3531   -82627.118    6146.5769    6.1309262 
[...]
   24890    295.28138   -4952.9268   -4936.4763   -125847.17     5958.651    7.0657858 
   24900    304.35205   -4953.3771   -4936.4213   -123304.98    5955.1527    7.0710573 
   24910    310.79712   -4953.6875   -4936.3726   -120445.36    5952.3077       7.0789 
   24920    306.32714   -4953.4065   -4936.3407   -118178.76    5950.8082     7.088548 
   24930    301.75008   -4953.1407   -4936.3299   -118089.99    5951.1784    7.0944518 
   24940    297.46447   -4952.9041    -4936.332    -119850.6    5953.4607    7.0900523 
   24950    304.44362   -4953.2936   -4936.3327   -122492.09    5957.1342     7.073226 
   24960    308.46164   -4953.5113   -4936.3266   -124652.71    5961.1721    7.0497407 
   24970    293.49391   -4952.6671   -4936.3162   -126405.51    5964.5859    7.0287843 
   24980    307.94467   -4953.4622   -4936.3062   -129494.81    5966.7657    7.0161913 
   24990    318.24699   -4954.0428   -4936.3129   -131912.99    5967.2459    7.0142364 
   25000    287.22056   -4952.3394   -4936.3381   -131606.02    5965.9303    7.0212033 
   25010    287.54639   -4952.3749   -4936.3553   -130918.53    5963.3923    7.0315689 
   25020    311.72992   -4953.7268     -4936.36   -129987.99    5960.3278    7.0423928 
   25030    308.80188   -4953.5709   -4936.3672   -127783.29     5957.161    7.0544139 
   25040    304.83749    -4953.363   -4936.3802   -126930.28    5954.4386    7.0659588 
   25050    311.20593   -4953.7391   -4936.4014   -127971.08    5952.7661    7.0727496 
   25060    310.66513   -4953.7481   -4936.4406   -128712.93    5952.3372    7.0727809 
   25070    297.02834   -4953.0406   -4936.4928   -128454.26    5952.9189    7.0683218 
   25080    288.57153   -4952.6212   -4936.5445   -127827.78    5954.2717    7.0628578 
   25090    295.08823   -4953.0272   -4936.5875   -128082.26    5956.2653    7.0582356 
   25100    310.60026   -4953.9319    -4936.628   -129343.46    5958.4896     7.055223 
   25110    300.20062   -4953.3993   -4936.6748   -130036.07    5960.1751    7.0548635 
   25120    287.21796   -4952.7265   -4936.7252   -130601.11    5960.8536    7.0584944 
   25130    298.06708   -4953.3803   -4936.7746   -130931.58    5960.5071    7.0683539 
   25140    304.91403   -4953.8143   -4936.8272   -130013.44    5959.4232    7.0851647 
   25150    304.29049   -4953.8424     -4936.89   -128663.66    5958.0218    7.1056348 
   25160    299.75481   -4953.6642   -4936.9645   -127529.02    5956.6263    7.1245227 
   25170    289.49797   -4953.1731   -4937.0449   -126356.35    5955.4962    7.1373594 
   25180    284.34433   -4952.9645   -4937.1234   -125536.86    5955.0052    7.1423477 
   25190    293.34271   -4953.5453   -4937.2029    -126069.2    5955.5638    7.1407417 
   25200     296.0336    -4953.783   -4937.2907   -126860.93    5957.1876    7.1350478 
   25210    284.32135   -4953.2202   -4937.3804   -127904.45    5959.5752    7.1252825 
   25220    294.12122   -4953.8509   -4937.4651   -130148.29    5962.2157    7.1101069 
   25230    304.85743   -4954.5397   -4937.5558   -131584.65    5964.3145    7.0910474 
   25240    296.92164    -4954.205   -4937.6631   -131706.54      5965.24    7.0712794 
   25250    302.87814   -4954.6668   -4937.7931   -131230.92     5964.742    7.0540155 
   25260    293.72834   -4954.3077   -4937.9438    -129070.2    5962.8905    7.0422765 
   25270    269.16708   -4953.0812   -4938.0856   -125521.24    5960.1275    7.0357092 
   25280     275.0155   -4953.5194    -4938.198   -122664.38    5957.2643    7.0308541 
   25290    293.04712   -4954.6226   -4938.2966   -120726.27    5955.1917    7.0262672 
   25300    284.65155   -4954.2502    -4938.392   -119894.08      5954.47    7.0230548 
   25310    285.58371   -4954.3944   -4938.4842   -121059.17    5955.1062    7.0212976 
   25320    278.05353    -4954.054   -4938.5634   -123079.53    5956.6438    7.0199633 
   25330    274.95076   -4953.9379   -4938.6201   -125089.36    5958.6821    7.0166433 
   25340    291.94088   -4954.9234   -4938.6591    -127508.1    5960.9472    7.0107559 
   25350    277.27822   -4954.1298   -4938.6823   -128318.57    5963.1464    7.0055281 
   25360    269.67949   -4953.7078   -4938.6837   -128949.08     5965.154    7.0034318 
   25370    286.46613   -4954.6155   -4938.6562   -130061.64    5966.6703    7.0057018 
   25380     283.4172   -4954.3961   -4938.6066   -130171.49    5966.9859    7.0138687 
   25390    282.24265    -4954.271   -4938.5469   -128844.39    5965.4786    7.0286006 
   25400    287.67308   -4954.4952   -4938.4686   -126882.01    5962.0843    7.0499892 
   25410    285.11955   -4954.2402   -4938.3559   -124433.38    5957.4116    7.0776313 
   25420    289.21821   -4954.3088   -4938.1962   -121677.43    5952.6718    7.1081791 
   25430    293.60794   -4954.3565   -4937.9993   -119458.56    5949.1804    7.1358277 
   25440    289.25057   -4953.9075   -4937.7931   -118349.14    5947.7427    7.1552041 
   25450    302.90595    -4954.464   -4937.5888   -119562.87    5948.4013    7.1636214 
   25460    297.76677   -4953.9747   -4937.3858   -121641.84    5950.4477    7.1629142 
   25470    280.88512   -4952.8467   -4937.1983   -123800.02    5953.0869    7.1554537 
   25480    305.44528   -4954.0341   -4937.0174   -126302.12    5955.9799    7.1409537 
   25490    312.50925   -4954.2626   -4936.8524   -127562.02    5959.1446    7.1176139 
   25500     290.3588   -4952.9046   -4936.7284   -128415.08    5962.7695    7.0849546 
   25510    282.11087   -4952.3328   -4936.6161   -130995.85    5966.5809    7.0491819 
   25520    288.80923   -4952.5847   -4936.4948   -133566.79    5969.3261    7.0232964 
   25530    295.19494   -4952.8353   -4936.3896   -134261.59    5969.6349    7.0171282 
   25540    304.33394   -4953.2741   -4936.3193   -132469.86    5967.0461    7.0304811 
   25550    308.68114    -4953.465    -4936.268   -129222.54    5962.1636     7.054875 
   25560    308.28022   -4953.3892   -4936.2146   -125712.26    5956.3101    7.0798267 
   25570    304.36051   -4953.1105   -4936.1542   -122270.54    5950.8869    7.0998649 
   25580    309.95667   -4953.3685   -4936.1004   -120407.96     5946.894    7.1145238 
   25590    317.90798   -4953.7806   -4936.0696   -119442.24    5944.7261    7.1236808 
   25600    302.92421   -4952.9429   -4936.0666    -118824.4    5944.5326    7.1245268 
   25610     296.4447   -4952.5955   -4936.0802   -119277.99    5946.3073    7.1147471 
   25620    306.92643   -4953.1927   -4936.0935   -121801.83    5949.5528    7.0973105 
   25630    303.04384   -4952.9841   -4936.1012   -124468.08    5953.3147    7.0783976 
   25640    303.51132   -4953.0146   -4936.1056   -127380.45    5956.7856    7.0606855 
   25650    318.32309   -4953.8528   -4936.1186   -129241.95    5959.5277    7.0432783 
   25660     304.9812   -4953.1385   -4936.1477   -129396.55    5961.4059    7.0256622 
   25670    295.37222    -4952.641   -4936.1855   -129662.48    5962.4069    7.0094276 
   25680    300.18419   -4952.9483   -4936.2247   -130540.87     5962.459    6.9985692 
   25690    297.55439   -4952.8415   -4936.2644   -131014.32    5961.6339    6.9966986 
   25700    303.94772   -4953.2373    -4936.304   -131234.78    5960.3538    7.0034004 
   25710    315.65074   -4953.9375   -4936.3522   -130344.47     5958.987     7.015098 
   25720    310.20318   -4953.6994   -4936.4176    -128139.3    5957.8134    7.0272482 
   25730    297.40459   -4953.0644   -4936.4957   -125865.63    5957.2565    7.0364551 
   25740    292.94647   -4952.8983   -4936.5779   -125545.86    5957.7283    7.0420174 
   25750    298.73276   -4953.3036   -4936.6609   -127816.17    5959.1758    7.0459667 
   25760    304.07777    -4953.688   -4936.7475   -130536.59    5961.0098    7.0514642 
   25770    298.28449   -4953.4573   -4936.8396    -132090.7    5962.5722    7.0601251 
   25780    296.32219   -4953.4459   -4936.9375   -132357.04    5963.3925    7.0718984 
   25790    296.44062   -4953.5568   -4937.0418   -131996.88    5963.2917    7.0862806 
   25800    294.34626   -4953.5506   -4937.1523    -131720.9    5962.2427    7.1032431 
   25810    292.43647   -4953.5605   -4937.2686   -131454.08    5960.1533    7.1230124 
   25820    286.67213   -4953.3547   -4937.3839   -129541.63    5957.0337    7.1448072 
   25830    285.07352   -4953.3646   -4937.4829   -126789.07    5953.4377    7.1661761 
   25840    295.34877   -4954.0219   -4937.5677   -124283.17    5950.3614    7.1847358 
   25850    301.48251   -4954.4537   -4937.6577   -122265.47    5948.7362    7.1974925 
   25860     297.6776   -4954.3536   -4937.7697   -121517.76    5949.1058    7.1993368 
   25870    283.69003   -4953.6961   -4937.8914   -122784.99    5951.3614    7.1860951 
   25880    281.29743   -4953.6698   -4937.9984   -125777.85    5954.6926    7.1591112 
   25890    288.71523   -4954.1715   -4938.0869   -129179.23    5958.0017     7.125841 
   25900    292.87681   -4954.4864   -4938.1699   -131739.33    5960.4598    7.0952136 
   25910    289.32852   -4954.3771   -4938.2583   -133045.54    5961.5913    7.0720992 
   25920    275.49576   -4953.6952    -4938.347   -132483.08    5961.1466    7.0565296 
   25930    279.43748   -4953.9935   -4938.4257   -131303.07    5959.2724      7.04612 
   25940      297.269   -4955.0561   -4938.4949   -129463.93    5956.5482    7.0395179 
   25950    290.03156   -4954.7161   -4938.5581   -126463.22    5953.9076    7.0364954 
   25960    277.42637   -4954.0712   -4938.6155   -124117.28    5952.3614    7.0359115 
   25970    280.85947    -4954.316    -4938.669   -124935.76    5952.3535    7.0368386 
   25980    277.73229   -4954.1832   -4938.7105   -126513.29    5953.3451    7.0395078 
   25990    273.44431   -4953.9669    -4938.733    -127613.1    5954.6126    7.0425233 
   26000    277.18809   -4954.1736   -4938.7312    -127711.5    5955.8971     7.043633 
   26010    284.71441   -4954.5658   -4938.7041   -126518.43    5957.2677    7.0417507 
   26020     284.4976   -4954.5015   -4938.6519   -125082.11      5958.88    7.0365902 
   26030    284.65036   -4954.4293   -4938.5711   -125305.07    5960.6312    7.0293454 
   26040    283.95813   -4954.2764   -4938.4568   -126778.79    5962.0182    7.0230753 
   26050    287.83386   -4954.3465   -4938.3109   -127965.58     5962.537    7.0200512 
   26060    293.28925   -4954.4765    -4938.137   -127480.45    5962.0647    7.0212364 
   26070    288.33964   -4954.0057   -4937.9419   -125159.58    5961.0466    7.0265107 
   26080    286.28983   -4953.6832   -4937.7336   -123061.75    5960.3942    7.0337492 
   26090    294.72469   -4953.9392   -4937.5197   -122726.98    5960.9437     7.038992 
   26100    297.93565   -4953.9121   -4937.3138   -124016.15    5962.9129    7.0388949 
   26110    295.23645   -4953.5701   -4937.1221   -126369.96    5965.7781    7.0334962 
   26120    298.78825   -4953.5885   -4936.9427   -128891.53    5968.6288    7.0256037 
   26130    292.05235   -4953.0498   -4936.7793   -130366.43     5970.674    7.0181146 
   26140    286.66859   -4952.6062   -4936.6356   -130816.62    5971.2701    7.0140823 
   26150    304.26491   -4953.4637   -4936.5128   -131318.75    5969.7865    7.0179796 
   26160    308.88173   -4953.6289   -4936.4208    -131408.4    5965.8406    7.0337126 
   26170    302.01488   -4953.1828   -4936.3572   -130109.42    5959.6761    7.0610154 
   26180     300.7852   -4953.0408   -4936.2837   -126499.02    5952.2568    7.0955636 
   26190    304.71332   -4953.1536   -4936.1777   -122201.16    5945.2338    7.1301959 
   26200    309.73002   -4953.3202   -4936.0648   -119081.72    5940.4812    7.1563676 
   26210    303.74127    -4952.919   -4935.9973   -118278.89    5939.4685      7.16739 
   26220    298.17189   -4952.5992   -4935.9877   -120445.74    5942.6221    7.1614715 
   26230    313.40836    -4953.452   -4935.9917   -125118.98    5949.0204    7.1413289 
   26240     315.6566   -4953.5601   -4935.9745   -129102.84      5956.92    7.1123405 
   26250    295.41815   -4952.3921    -4935.934   -132146.44    5964.6246    7.0806764 
   26260     303.7568   -4952.8019   -4935.8793   -134632.25    5970.7841    7.0514353 
   26270    305.92013   -4952.8789   -4935.8357   -134770.25    5974.5938    7.0273907 
   26280    297.39788   -4952.3841   -4935.8157   -133552.46    5976.0881    7.0089967 
   26290     303.0785   -4952.6936   -4935.8088   -132835.78    5975.6484    6.9972001 
   26300    307.60332   -4952.9512   -4935.8143   -131924.77    5973.4155    6.9948317 
   26310    300.71313   -4952.5859   -4935.8329    -129962.4    5969.4662    7.0044595 
   26320    302.26018   -4952.6903    -4935.851    -127243.9    5964.1871    7.0253942 
   26330    316.49497   -4953.4944   -4935.8621   -123669.85    5958.2741    7.0532063 
   26340    313.25003   -4953.3206   -4935.8691   -119631.59    5952.7581    7.0808435 
   26350    292.25157   -4952.1619   -4935.8802    -116701.8    5948.8899    7.0987446 
   26360    294.46039   -4952.3067    -4935.902    -117312.7     5947.511    7.0997691 
   26370    330.14532   -4954.3411   -4935.9483    -121092.5    5948.5467    7.0861996 
   26380    335.28256   -4954.7176   -4936.0387   -124932.89    5951.2678    7.0670767 
   26390    306.33566   -4953.2325   -4936.1662   -127289.66    5954.9044    7.0491652 
   26400    295.96616   -4952.7881   -4936.2995   -129188.72    5958.7121    7.0353981 
   26410    299.63302   -4953.1261   -4936.4332   -131588.98    5961.8402     7.027936 
   26420    289.27693   -4952.6886   -4936.5726   -133315.88    5963.4297    7.0290908 
   26430    282.91686   -4952.4756    -4936.714   -134585.66     5963.086    7.0391676 
   26440    289.33756   -4952.9707   -4936.8514   -134676.71    5961.0242    7.0553036 
   26450      299.264   -4953.6555   -4936.9832   -133008.89    5957.8105    7.0733106 
   26460    300.49089   -4953.8502   -4937.1095   -129668.55    5954.1428    7.0904116 
   26470    297.53435   -4953.8001   -4937.2241   -126855.58    5950.9779    7.1047784 
   26480     303.0055   -4954.2214   -4937.3407   -126856.36    5949.2683    7.1155324 
   26490    294.84848   -4953.8912   -4937.4648   -127540.57    5949.2701     7.124089 
   26500    285.43613   -4953.4819   -4937.5799   -128645.64    5950.5562    7.1305525 
   26510     291.1919   -4953.8984   -4937.6758   -130050.73    5952.2596     7.133175 
   26520    291.74593   -4954.0103   -4937.7568   -130298.72    5953.5483     7.131493 
   26530      288.199   -4953.8823   -4937.8264   -129190.62    5954.1002    7.1272357 
   26540      290.574   -4954.0719   -4937.8837   -127698.55     5954.102    7.1227433 
   26550    293.51514   -4954.2822   -4937.9301   -126931.96    5954.0864    7.1188642 
   26560    290.66951   -4954.1619   -4937.9684   -126858.92     5954.636    7.1143433 
   26570    292.99682   -4954.3227   -4937.9995   -127959.94    5956.0504    7.1067114 
   26580    292.18294      -4954.3   -4938.0222   -129094.74     5958.145    7.0943321 
   26590    284.89367   -4953.9043   -4938.0326   -130187.73    5960.5987    7.0770358 
   26600    285.46501   -4953.9298   -4938.0262   -131693.52     5963.085     7.057773 
   26610    285.00113   -4953.8774   -4937.9996   -132821.21    5965.1234    7.0421666 
   26620    287.18527   -4953.9578   -4937.9584   -132566.71    5966.2295     7.034294 
   26630    283.07888   -4953.6733   -4937.9027   -131665.22    5966.2437    7.0341744 
   26640     286.3025   -4953.7818   -4937.8316   -130619.35    5965.1664     7.040436 
   26650    283.60757   -4953.5391    -4937.739   -129094.05    5963.0203    7.0530775 
   26660    286.76997   -4953.5945   -4937.6182   -127193.46    5960.0787     7.070868 
   26670     302.8294   -4954.3303   -4937.4593   -125535.75    5956.9287    7.0893846 
   26680    313.54133   -4954.7404   -4937.2726   -123979.09    5954.0467    7.1041481 
   26690    304.16419   -4954.0227   -4937.0774   -123445.24     5951.717    7.1133183 
   26700    293.53982   -4953.2307   -4936.8772   -123342.34    5950.0876    7.1176959 
   26710    302.66581   -4953.5227   -4936.6608   -123592.67    5949.3054    7.1184963 
   26720     287.7148   -4952.4628   -4936.4339   -123475.19    5949.5133    7.1159714 
   26730    291.67369   -4952.4613   -4936.2118   -123468.21     5950.947     7.108425 
   26740    313.01739   -4953.4276   -4935.9891   -123571.37    5953.6796    7.0948705 
   26750    311.01083   -4953.1247    -4935.798   -123221.29    5957.4767    7.0764228 
   26760    303.10655   -4952.5382   -4935.6518   -123462.71    5961.9068    7.0549015 
   26770    314.11341   -4953.0351   -4935.5354   -124909.83    5966.2361    7.0326517 
   26780    315.52646     -4953.03   -4935.4517      -126875     5969.595    7.0119065 
   26790    295.05421   -4951.8411   -4935.4033   -128466.25    5971.5282    6.9942099 
   26800    301.04356    -4952.144   -4935.3725   -130593.51    5972.0521    6.9815915 
   26810    320.99762   -4953.2395   -4935.3564   -130919.18    5971.1266    6.9772671 
   26820    326.78578   -4953.5747   -4935.3691   -129363.29    5968.8213    6.9819343 
   26830    313.89673   -4952.8931   -4935.4056    -126783.3    5965.5699     6.993334 
   26840    301.99912   -4952.2688   -4935.4441   -124812.64    5962.0888    7.0082988 
   26850    317.79405   -4953.1891   -4935.4844   -124128.95    5958.9239    7.0249404 
   26860    318.84832   -4953.3007   -4935.5373   -123075.31    5956.5012    7.0421643 
   26870    308.25035   -4952.7809    -4935.608   -123191.98    5955.3358    7.0565616 
   26880     308.7177   -4952.8928   -4935.6938   -124124.85    5955.5929    7.0646313 
   26890    298.32159   -4952.4077   -4935.7879   -124641.52    5957.0552    7.0644129 
   26900     285.2368   -4951.7633   -4935.8725   -125080.78     5959.423    7.0554133 
   26910    304.84078   -4952.9254   -4935.9423   -127328.84    5962.1767    7.0412609 
   26920    316.16788   -4953.6276   -4936.0136   -129764.51    5964.5049    7.0299751 
   26930    312.12682    -4953.491   -4936.1021   -131079.61    5965.9118    7.0266241 
   26940    306.01858   -4953.2563   -4936.2077   -131076.52    5966.1966    7.0315164 
   26950    294.54744   -4952.7291   -4936.3196   -129784.72    5965.1167    7.0428294 
   26960     298.0805   -4953.0386   -4936.4322    -127457.3    5962.5909    7.0574913 
   26970    306.84027   -4953.6382   -4936.5438   -124550.63    5958.9123    7.0730535 
   26980      310.022   -4953.9265   -4936.6548   -121342.39    5954.7452    7.0891584 
   26990    293.27186   -4953.0919   -4936.7534   -119280.16    5951.2647    7.1046571 
   27000    289.50683   -4952.9734   -4936.8447   -120264.83    5949.8683    7.1150304 
Loop time of 3140.6 on 16 procs for 10000 steps with 432 atoms

Performance: 0.275 ns/day, 87.239 hours/ns, 3.184 timesteps/s
94.8% CPU use with 16 MPI tasks x 1 OpenMP threads

MPI task timing breakdown:
Section |  min time  |  avg time  |  max time  |%varavg| %total
---------------------------------------------------------------
Pair    | 2058.4     | 2566.7     | 3051.5     | 552.0 | 81.73
Bond    | 0.00068402 | 0.0016183  | 0.0042579  |   2.7 |  0.00
Neigh   | 0.059287   | 0.067528   | 0.078553   |   2.2 |  0.00
Comm    | 66.039     | 550.83     | 1059.1     |1191.6 | 17.54
Output  | 22.183     | 22.196     | 22.391     |   1.1 |  0.71
Modify  | 0.517      | 0.72945    | 0.75426    |   6.5 |  0.02
Other   |            | 0.05711    |            |       |  0.00

Nlocal:        27.0000 ave          34 max          23 min
Histogram: 3 1 5 2 1 2 0 0 1 1
Nghost:        562.438 ave         569 max         557 min
Histogram: 2 3 3 0 1 2 0 0 2 3
Neighs:         0.00000 ave           0 max           0 min
Histogram: 16 0 0 0 0 0 0 0 0 0
FullNghs:      1808.62 ave        2302 max        1528 min
Histogram: 1 2 6 2 2 1 0 0 1 1

Total # of neighbors = 28938
Ave neighs/atom = 66.986111
Ave special neighs/atom = 0.0000000
Neighbor list builds = 655
Dangerous builds = 0
System init for write_data ...
Total wall time: 2:18:33
