LAMMPS (29 Sep 2021 - Update 3)
OMP_NUM_THREADS environment is not set. Defaulting to 1 thread. (src/comm.cpp:98)
  using 1 OpenMP thread(s) per MPI task
Reading data file ...
  orthogonal box = (0.0000000 0.0000000 0.0000000) to (18.851228 18.851228 37.702456)
  2 by 1 by 4 MPI processor grid
  reading atoms ...
  432 atoms
Finding 1-2 1-3 1-4 neighbors ...
  special bond factors lj:    0        0        0       
  special bond factors coul:  0        0        0       
     0 = max # of 1-2 neighbors
     0 = max # of 1-3 neighbors
     0 = max # of 1-4 neighbors
     1 = max # of special neighbors
  special bonds CPU = 0.075 seconds
  read_data CPU = 0.341 seconds
Neighbor list info ...
  update every 1 steps, delay 10 steps, check yes
  max neighbors/atom: 2000, page size: 100000
  master list distance cutoff = 6.22
  ghost atom cutoff = 6.22
  binsize = 3.11, bins = 7 7 13
  1 neighbor lists, perpetual/occasional/extra = 1 0 0
  (1) pair quip, perpetual
      attributes: full, newton on
      pair build: full/bin
      stencil: full/bin/3d
      bin: standard
Setting up Verlet run ...
  Unit style    : metal
  Current step  : 0
  Time step     : 0.001
Per MPI rank memory allocation (min/avg/max) = 8.885 | 8.885 | 8.885 Mbytes
Step Temp PotEng TotEng Press Volume c_msd[4] 
       0          300   -4473.9766   -4457.2632   -35658.446    13398.276            0 
      10    295.09168   -4474.8894   -4458.4495   -35591.327    13344.906 0.0022826021 
      20    279.45815   -4477.4971   -4461.9282   -35246.224    13187.325  0.012614864 
      30    251.06337   -4481.3353   -4467.3483   -34375.382    12936.741  0.040604075 
      40    211.86378   -4485.7566   -4473.9534    -33167.31    12620.122  0.097260734 
      50    175.43259    -4490.545   -4480.7715   -32187.931     12279.27   0.18622787 
      60    164.29554   -4496.2597   -4487.1066   -32075.971    11953.781   0.29967773 
      70    188.39519   -4503.2534   -4492.7577   -32596.703    11661.384   0.42648731 
      80     231.5439    -4510.803   -4497.9035   -33254.046     11397.29   0.56236277 
      90    265.40488   -4517.6294   -4502.8434   -33682.093    11148.292   0.71023263 
     100    273.37772   -4523.0243   -4507.7942   -34185.047    10904.363   0.87472354 
     110    260.47589   -4527.3784    -4512.867   -35263.395    10661.621    1.0582944 
     120    249.49605   -4532.0765   -4518.1768   -37812.845    10420.375    1.2607473 
     130    263.55419   -4538.6378   -4523.9549   -42711.929    10181.646    1.4812935 
     140    304.27334    -4547.528   -4530.5766   -50135.779    9944.6384    1.7213055 
     150    349.68213   -4557.9711   -4538.4899   -59625.741    9706.5397    1.9852124 
     160    378.45279   -4569.2462   -4548.1621   -70282.654    9463.9062    2.2791938 
     170    394.99327   -4581.8498   -4559.8443   -80426.564    9214.6187    2.6084036 
     180    434.97161   -4597.7005   -4573.4677   -89102.639    8959.4426     2.973752 
     190    518.83773   -4617.4869   -4588.5819   -93680.105    8701.9549    3.3709798 
     200    612.03592   -4638.1692    -4604.072   -90000.707    8448.9423    3.7892975 
     210    678.84829   -4655.7134    -4617.894   -74584.237     8210.895    4.2092436 
     220    745.45113    -4669.466   -4627.9361   -50004.094     8000.536    4.6035057 
     230    838.90267   -4680.7175   -4633.9813   -22806.864    7828.2772    4.9438309 
     240    913.96718    -4688.382   -4637.4638     1702.697    7699.4696    5.2081245 
     250    919.34015   -4691.2105    -4639.993     19751.04    7614.9174     5.384408 
     260    853.91083   -4690.0575   -4642.4852    28430.471    7571.7017     5.473943 
     270    792.50661   -4689.4118   -4645.2603    27726.409    7563.1701    5.4914047 
     280    741.29112    -4689.567   -4648.2689     21785.14    7579.5286    5.4600779 
     290    643.58243   -4686.9237    -4651.069    14801.519    7610.5155    5.4026277 
     300    603.79932    -4687.031   -4653.3927    6267.3212    7647.3487    5.3352368 
     310    637.33103   -4691.0037   -4655.4973     -1995.93    7681.9442    5.2726709 
     320    641.02443   -4693.3212    -4657.609   -6853.6082    7708.0534    5.2260314 
     330    631.54042   -4694.9098    -4659.726    -9160.948    7723.1352    5.1977765 
     340    645.45227   -4697.8942   -4661.9353   -10811.306    7727.1342    5.1864447 
     350     620.2473   -4698.7908   -4664.2361   -10156.332    7720.7873    5.1916255 
     360    565.19329   -4697.8747   -4666.3871   -6761.7762    7706.6297    5.2101996 
     370    535.21292   -4698.1173   -4668.2999   -3273.1916    7688.8367    5.2360435 
     380     519.9667   -4699.0235   -4670.0556   -482.49013    7671.0579    5.2640875 
     390    503.29944   -4699.7344    -4671.695    1865.3842    7655.7513    5.2911625 
     400    491.16248   -4700.6039   -4673.2407    3972.5325    7644.5908    5.3142684 
     410    492.08801   -4702.1625   -4674.7477    4898.8579    7638.6596    5.3294278 
     420    495.03198   -4703.8559   -4676.2771    4836.9633    7637.9718    5.3338667 
     430    469.77756   -4703.9578   -4677.7859    4308.0787    7641.7174    5.3275145 
     440    439.25907   -4703.6403   -4679.1686    3516.5965     7648.824    5.3125764 
     450    452.97409   -4705.7134   -4680.4777    1250.8772    7658.0042    5.2924822 
     460    480.46603   -4708.6129   -4681.8456    -1673.609    7666.9884    5.2730311 
     470    462.51966   -4709.0187   -4683.2512   -3608.1116    7673.2777    5.2599491 
     480    420.59944   -4707.9802   -4684.5482   -4126.3018    7675.5305    5.2543121 
     490    405.49503   -4708.3116    -4685.721    -3933.056    7673.7592    5.2540991 
     500    403.88423   -4709.3422   -4686.8414    -3248.992     7668.634    5.2581831 
     510    396.81152   -4710.0283   -4687.9214    -1860.865    7661.2477    5.2664662 
     520    389.39017   -4710.6452   -4688.9519   -316.86827    7653.1027    5.2788005 
     530    385.82002   -4711.4319   -4689.9374    1127.8505    7645.6733    5.2945698 
     540    380.53776   -4712.0947   -4690.8945    2097.8933    7640.1599    5.3121435 
     550    351.16856   -4711.3554   -4691.7915     2471.642    7637.1879    5.3289091 
     560    310.68535   -4709.8646    -4692.556    2651.5884    7636.8356     5.341358 
     570    304.07596   -4710.1421   -4693.2017    1816.3244    7638.8766    5.3465524 
     580    330.52888   -4712.2395   -4693.8254    202.51673    7642.2762    5.3456668 
     590    337.90693   -4713.2895   -4694.4644   -811.43172    7645.5233    5.3428032 
     600    327.03724   -4713.3077   -4695.0881   -1105.3375    7647.7226    5.3403653 
     610    318.68345   -4713.4367   -4695.6825   -1150.1893    7648.6813       5.3383 
     620    312.22694   -4713.6366   -4696.2421    -835.6279    7648.5116    5.3355377 
     630      320.266   -4714.6228   -4696.7804   -613.55386    7647.5788    5.3313194 
     640    333.45656   -4715.9088   -4697.3316   -448.17402    7646.1776     5.327276 
     650    332.59832   -4716.4269   -4697.8975   -142.12703    7644.5228    5.3257633 
     660    320.26483    -4716.297   -4698.4546    271.33755    7642.9281    5.3272297 
     670    299.93447   -4715.6807    -4698.971    607.39551    7641.7489    5.3302635 
     680    287.94456   -4715.4728    -4699.431    441.72991    7641.2169    5.3333149 
     690    285.28437   -4715.7419   -4699.8484   -273.06748    7641.0991    5.3359558 
     700    272.93278   -4715.4268   -4700.2214   -549.43703    7640.7748    5.3385206 
     710     261.0402   -4715.0798    -4700.537   -389.50396    7640.0104    5.3406725 
     720    263.32475   -4715.4728   -4700.8027   -194.51028    7638.9686    5.3419545 
     730    266.16916   -4715.8599   -4701.0313    188.39706    7637.8605    5.3419633 
     740    262.29398   -4715.8334   -4701.2207    968.49089    7637.0744     5.339258 
     750    271.29964   -4716.4886   -4701.3742     1197.731    7637.2195    5.3321577 
     760    297.59635   -4718.0904    -4701.511    509.47733    7638.3909    5.3221372 
     770    315.55938   -4719.2347   -4701.6546    -212.2088    7639.9329    5.3137988 
     780    305.55621   -4718.8368   -4701.8139   -223.58665    7641.2014     5.310067 
     790    275.16144   -4717.2943   -4701.9648    52.315693    7642.1799    5.3096119 
     800    253.01264   -4716.1731   -4702.0775   -389.56724    7643.0649    5.3098098 
     810    251.36947   -4716.1481    -4702.144    -1282.891    7643.4722    5.3109364 
     820    253.33581   -4716.2795   -4702.1659   -1601.3401    7642.6864    5.3157551 
     830    253.42064   -4716.2625   -4702.1442   -750.71101    7640.5778     5.325909 
     840    262.49345    -4716.701   -4702.0771    409.32326    7637.9755    5.3401178 
     850    281.50029   -4717.6511   -4701.9684    1247.0921    7635.9512    5.3553468 
     860     293.9395   -4718.2086   -4701.8329    1609.8913    7635.2352    5.3672719 
     870     292.8974   -4718.0061   -4701.6884    1426.9323     7636.046    5.3713873 
     880    288.46704   -4717.6102   -4701.5394    800.45018    7638.0978    5.3654265 
     890    282.02881   -4717.0923   -4701.3802   -140.63637    7640.7058    5.3507844 
     900    270.43725   -4716.2728   -4701.2064   -877.79694    7642.9906    5.3327269 
     910     255.7784   -4715.2626   -4701.0129   -1454.3475    7644.2742    5.3185876 
     920    246.98053   -4714.5515   -4700.7919   -1450.1077    7644.1428    5.3138271 
     930    251.81643     -4714.56    -4700.531   -881.80714    7642.7123    5.3183904 
     940    270.86591   -4715.3098   -4700.2196   -173.07157    7640.5818    5.3278345 
     950    293.07406   -4716.1902   -4699.8627     571.2199    7638.4606    5.3371445 
     960    305.76945   -4716.5212   -4699.4865    1434.7237    7637.0514    5.3420825 
     970    313.41837   -4716.5797   -4699.1188    2055.6705    7637.0847    5.3396498 
     980     318.5191   -4716.5183   -4698.7732    1922.2481     7638.981    5.3306797 
     990    318.00433   -4716.1723   -4698.4559    1281.2156    7642.5222    5.3193889 
    1000    319.14041   -4715.9446   -4698.1649   -390.16573    7646.9209    5.3093545 
    1010    319.91429   -4715.7186   -4697.8958   -2069.6068    7650.6276    5.3029329 
    1020    310.62529   -4714.9609   -4697.6556   -2794.6185    7652.1876    5.3007503 
    1030    296.06465   -4713.9375   -4697.4434   -2428.2052    7651.0831    5.3019261 
    1040    282.99526   -4713.0069   -4697.2409   -1216.9671    7647.8359    5.3054682 
    1050     281.6061    -4712.716   -4697.0274      279.262    7643.7022     5.311058 
    1060    297.11095    -4713.343   -4696.7906    1330.2326    7640.0935    5.3188464 
    1070    316.03159   -4714.1454   -4696.5389     1703.939    7637.9394    5.3284415 
    1080    327.86846   -4714.5636   -4696.2977    1842.7563     7637.536    5.3376132 
    1090    332.52004   -4714.6133   -4696.0882    1809.1494    7638.8902    5.3434769 
    1100    332.59457   -4714.4492   -4695.9199    1335.0773    7641.8334    5.3447039 
    1110    332.10989   -4714.2943   -4695.7921    250.04789    7645.7945    5.3419398 
    1120    330.42144   -4714.1094   -4695.7012   -889.28303    7649.7243    5.3376461 
    1130    324.01853   -4713.6972   -4695.6458   -1479.5055    7652.6071    5.3348321 
    1140    322.25919   -4713.5748   -4695.6213   -1744.7832    7653.9202    5.3344631 
    1150    329.68698    -4713.995   -4695.6278   -1854.0704    7653.5067    5.3349077 
    1160    327.22216   -4713.9003   -4695.6704   -1310.5225    7651.4223    5.3341941 
    1170    318.29077   -4713.4745   -4695.7422    20.649738    7648.3135    5.3312039 
    1180    324.27851    -4713.902   -4695.8361    512.84187     7645.353    5.3258715 
    1190     337.2031   -4714.7513   -4695.9654    389.06034    7643.0173    5.3210076 
    1200    328.39402   -4714.4337   -4696.1385    639.27193     7641.225    5.3201979 
    1210    301.59042   -4713.1313   -4696.3294    1237.2818    7640.1925    5.3236071 
    1220    290.89707   -4712.7176   -4696.5114    1024.0463    7640.3312    5.3277256 
    1230    300.97627   -4713.4544   -4696.6867    229.34723    7641.3848    5.3296353 
    1240    308.50468    -4714.054   -4696.8668    100.85767    7642.6604    5.3288539 
    1250    306.36896   -4714.1231   -4697.0549    477.89762    7644.0039    5.3251789 
    1260    310.37516    -4714.541   -4697.2497    352.48733    7645.6798    5.3182989 
    1270    325.81606   -4715.6158   -4697.4643   -500.23767     7647.539    5.3090737 
    1280    324.59892   -4715.7949   -4697.7111   -1372.3959    7648.8133    5.2998147 
    1290    296.62948   -4714.4927   -4697.9672   -1416.9891    7648.7844    5.2929511 
    1300    276.06786   -4713.5758   -4698.1957   -992.01048    7647.4487     5.290129 
    1310    283.48887   -4714.1892   -4698.3957   -575.56646     7645.243    5.2926145 
    1320    299.26379   -4715.2578   -4698.5854     12.11963     7642.628    5.3005399 
    1330    310.05131   -4716.0524   -4698.7791    886.66245    7640.2073     5.311874 
    1340    320.97445   -4716.8711   -4698.9893    1348.5811    7638.7312    5.3232582 
    1350    331.40834   -4717.6953   -4699.2321    1295.7712    7638.5779    5.3320522 
    1360    325.67714   -4717.6552   -4699.5114     884.5216    7639.6379     5.337572 
    1370    295.93926   -4716.2837   -4699.7966    433.60034    7641.4924    5.3414947 
    1380    263.04553   -4714.6946     -4700.04   -344.41941    7643.6387    5.3453457 
    1390    253.95705   -4714.3767   -4700.2285    -1385.239    7645.3201    5.3489052 
    1400    255.69021   -4714.6173   -4700.3726   -1764.3587    7645.6528    5.3514884 
    1410    257.14552   -4714.8005   -4700.4746   -1272.8476    7644.3618    5.3525858 
    1420    267.91356   -4715.4635   -4700.5377   -494.47602    7641.9503      5.35109 
    1430    285.15656   -4716.4575   -4700.5711     313.1948    7639.1997    5.3461141 
    1440    295.92916   -4717.0749   -4700.5883    1147.1754     7636.897    5.3392885 
    1450    298.51836   -4717.2318    -4700.601    1884.5225    7635.8105    5.3341005 
    1460    303.85955   -4717.5434    -4700.615    1911.3102    7636.5221    5.3318495 
    1470    309.35599   -4717.8689   -4700.6343    1061.1571    7638.9362    5.3305418 
    1480    305.66462   -4717.6912   -4700.6623    230.94243    7642.2527     5.327826 
    1490     292.0667   -4716.9647   -4700.6933   -573.72816    7645.6328     5.322801 
    1500     278.1625   -4716.2099   -4700.7132   -1611.3693    7648.2813    5.3164262 
    1510    272.18962   -4715.8759   -4700.7119   -2552.9967    7649.2634    5.3118101 
    1520    263.94521   -4715.3905   -4700.6859   -2358.6668    7647.8595    5.3128815 
    1530    249.93029   -4714.5507   -4700.6268   -1237.2862    7644.3493    5.3206623 
    1540    253.36619   -4714.6386   -4700.5233  -0.81557807    7639.8433    5.3322458 
    1550    275.31194   -4715.7058   -4700.3679    970.49511    7635.5336    5.3428557 
    1560     290.4866   -4716.3558   -4700.1725    1971.1044    7632.3642    5.3481401 
    1570    292.46229   -4716.2561   -4699.9627    2707.1847    7631.2029    5.3458523 
    1580    296.30822   -4716.2588   -4699.7511    2649.5055    7632.6077    5.3374212 
    1590    306.39246   -4716.6068   -4699.5374    1854.1649    7636.4211    5.3271082 
    1600    310.05715   -4716.5995   -4699.3259    579.46802    7641.7924    5.3187751 
    1610    301.05684   -4715.8956   -4699.1233   -897.07921    7647.4463    5.3144833 
    1620    291.06048   -4715.1422   -4698.9269   -2047.8247    7652.0215    5.3146527 
    1630     286.7771   -4714.7044   -4698.7277   -2810.5269     7654.464    5.3181594 
    1640    294.00205   -4714.9009   -4698.5217   -2759.1268    7654.1761    5.3234865 
    1650    304.70954   -4715.2851   -4698.3094   -1818.9386    7651.3313    5.3301456 
    1660    302.52422   -4714.9515   -4698.0975   -216.37696    7646.9432    5.3381204 
    1670    310.93857   -4715.2111   -4697.8883    992.25796    7642.5134    5.3463093 
    1680    334.86629   -4716.3402   -4697.6844    1422.1827    7639.1679    5.3530993 
    1690    328.74449   -4715.8267    -4697.512    2083.6854    7637.3644    5.3568814 
    1700    302.17485   -4714.2176   -4697.3831    2505.4303    7637.6201    5.3546473 
    1710    298.35422   -4713.8934   -4697.2718    1183.7757    7640.0973    5.3440787 
    1720    306.97712   -4714.2585   -4697.1565   -619.00238    7643.5584    5.3276788 
    1730    298.60338    -4713.678   -4697.0425   -1053.2235    7646.4148    5.3114275 
    1740    286.50478   -4712.8919   -4696.9304   -977.81134    7648.1765    5.3004407 
    1750    299.93713   -4713.5196   -4696.8098   -1052.8135    7648.9126    5.2974036 
    1760    323.82982   -4714.7245   -4696.6836   -802.28036    7648.6406    5.3022706 
    1770    327.05618   -4714.7963   -4696.5756   -7.0320758    7647.6638    5.3113606 
    1780    323.96338   -4714.5479   -4696.4995    714.48171    7646.7321    5.3186289 
    1790    335.54663   -4715.1497    -4696.456      574.173    7646.4516    5.3193711 
    1800    337.07506   -4715.2334   -4696.4546    269.35314    7646.7291    5.3127715 
    1810    320.24693   -4714.3353   -4696.4939    134.86576    7647.2805    5.3014673 
    1820    319.80606   -4714.3764   -4696.5597   -716.84489    7647.8778    5.2906049 
    1830    322.73082   -4714.6311   -4696.6514    -1327.321      7647.79    5.2864519 
    1840    304.70936   -4713.7386   -4696.7629   -774.19565    7646.5353    5.2916481 
    1850    298.83271   -4713.5254   -4696.8771   -195.25705    7644.5829    5.3036924 
    1860    305.43412   -4714.0093   -4696.9932    286.48065    7642.5119     5.319232 
    1870    302.15922   -4713.9468   -4697.1131    1003.4009    7640.8221    5.3347426 
    1880    302.55608   -4714.0903   -4697.2346    1275.3351     7640.114    5.3456782 
    1890    304.81395   -4714.3422   -4697.3607    942.68388    7640.6087    5.3500072 
    1900    296.76876   -4714.0219   -4697.4886    594.22939     7641.999     5.349993 
    1910    291.50608   -4713.8502   -4697.6101    469.66543    7643.9427    5.3483165 
    1920       299.83   -4714.4299    -4697.726   -96.006822    7646.2324    5.3451893 
    1930    313.47566   -4715.3092   -4697.8452    -921.3587    7648.3276    5.3403965 
    1940    321.57149   -4715.8963   -4697.9812   -1254.2928    7649.5077    5.3345469 
    1950    324.19698   -4716.2066   -4698.1452   -1040.5763    7649.4851    5.3281494 
    1960     325.7529   -4716.4889   -4698.3409   -721.71478    7648.4629    5.3221223 
    1970    318.21474    -4716.291   -4698.5629   -163.14215    7646.8082    5.3185652 
    1980     300.5834   -4715.5366   -4698.7908     349.6691    7645.0597    5.3191175 
    1990    288.21387   -4715.0622   -4699.0055    293.59384    7643.6609    5.3233938 
    2000    281.09408   -4714.8594   -4699.1994    11.461155    7642.5779     5.329624 
    2010    276.49006   -4714.7711   -4699.3675    -56.19889    7641.5635    5.3357627 
    2020    278.88162   -4715.0471   -4699.5103    174.23289    7640.5616     5.339487 
    2030     282.9276   -4715.3944   -4699.6322    435.28506    7639.7604    5.3387893 
    2040    284.85583   -4715.6055   -4699.7359    817.76239    7639.4171    5.3337687 
    2050    295.85424   -4716.3098   -4699.8275    871.22998    7639.8446    5.3266284 
    2060    308.42269   -4717.1027   -4699.9202    716.28084    7641.0859    5.3197242 
    2070    304.19379    -4716.968    -4700.021    417.56215    7642.9671    5.3132639 
    2080    295.17132   -4716.5672   -4700.1229   -93.389794    7645.1857    5.3061956 
    2090    292.82581   -4716.5316    -4700.218   -932.69664    7647.2234    5.2985299 
    2100    281.79618   -4716.0009   -4700.3017   -1458.3441     7648.332    5.2921785 
    2110    261.39687   -4714.9243   -4700.3616   -1271.4105    7648.0688    5.2897905 
    2120    258.25955    -4714.773    -4700.385   -1093.4711    7646.5871    5.2939701 
    2130    277.20022    -4715.815   -4700.3718   -978.52582    7644.0901    5.3067892 
    2140    288.63186   -4716.4106   -4700.3306   -140.85568    7640.7924    5.3269473 
    2150    289.35938   -4716.3926   -4700.2721    1262.6322     7637.506    5.3488188 
    2160    300.80079   -4716.9603   -4700.2023     2192.157    7635.4944    5.3650201 
    2170    310.68178   -4717.4414   -4700.1329    2172.2301    7635.5735     5.370124 
    2180    302.30303   -4716.9163   -4700.0746    1651.5088    7637.7122    5.3628959 
    2190    293.93716   -4716.3963   -4700.0207    332.73189    7641.3112    5.3470293 
    2200    287.96876   -4716.0017   -4699.9587   -1026.8071    7645.1378    5.3303648 
    2210    274.48912   -4715.1753   -4699.8832   -1735.9383    7647.9352    5.3196805 
    2220    262.84251   -4714.4308   -4699.7875   -2030.4455    7649.0105    5.3168316 
    2230    256.32508   -4713.9422    -4699.662   -1707.9444    7648.1486    5.3201189 
    2240    258.90866   -4713.9227   -4699.4986   -879.27389    7645.6966    5.3263645 
    2250    281.88806   -4714.9943     -4699.29    136.35396    7642.4789    5.3324116 
    2260    316.86898   -4716.6951    -4699.042    927.53966    7639.4535     5.336041 
    2270    333.53734   -4717.3742   -4698.7925    1814.3839    7637.4237    5.3365651 
    2280    331.89928   -4717.0728   -4698.5823    2096.7841    7637.1419    5.3340307 
    2290    329.91449   -4716.7982   -4698.4183    1599.6242    7638.8317    5.3294659 
    2300    322.70068   -4716.2712   -4698.2932    749.58637    7641.9968    5.3237702 
    2310    299.45153   -4714.8795   -4698.1967     85.23479    7645.8349    5.3164364 
    2320    275.90273   -4713.4761   -4698.1052   -766.39944    7649.6524    5.3063753 
    2330    283.22043   -4713.7736    -4697.995   -2078.9317    7652.6039    5.2942435 
    2340    303.18355   -4714.7538   -4697.8631   -2735.0735    7653.5341    5.2836551 
    2350    297.89776   -4714.3257   -4697.7295   -1970.5228    7651.9163    5.2791314 
    2360    292.33863   -4713.8848   -4697.5983   -639.86672    7648.4835     5.282876 
    2370    315.77183   -4715.0513   -4697.4593    167.44088    7644.4546    5.2946728 
    2380      330.393   -4715.7324   -4697.3259    1137.3438    7640.6986    5.3128646 
    2390    317.04348   -4714.8855   -4697.2227    2211.5566    7638.1581    5.3325673 
    2400    310.14994    -4714.426   -4697.1472    2231.2414    7637.7283    5.3469779 
    2410    314.24164   -4714.5938   -4697.0871    1431.8165    7639.3924    5.3523815 
    2420    312.77359   -4714.4663   -4697.0414    610.91708    7642.4141    5.3496799 
    2430    306.56893   -4714.0893     -4697.01   -169.15614    7645.9823    5.3429221 
    2440    300.18285   -4713.7079   -4696.9844   -893.54269    7649.3252    5.3368161 
    2450    306.51521   -4714.0366   -4696.9603   -1523.0201     7651.744    5.3336401 
    2460    322.15488   -4714.8937   -4696.9461   -1900.6475    7652.6578    5.3324628 
    2470    321.90618   -4714.8904   -4696.9567   -1571.2885    7651.7706    5.3313143 
    2480    310.30724   -4714.2783   -4696.9907   -529.94714    7649.4512     5.328533 
    2490    313.12018   -4714.4826   -4697.0383   -16.223128    7646.5998    5.3239586 
    2500    322.78841   -4715.0862   -4697.1033    479.45132    7643.8068    5.3206578 
    2510    320.43612   -4715.0459    -4697.194    840.61492    7641.5212    5.3222044 
    2520    311.90425   -4714.6832   -4697.3067    1106.6182    7640.0901    5.3294203 
    2530    305.84324     -4714.47   -4697.4311    903.52023    7639.7181    5.3392657 
    2540    297.43844   -4714.1292   -4697.5586    536.09665    7640.2114    5.3467113 
    2550    287.10419   -4713.6727   -4697.6778    549.14802    7641.2536        5.347 
    2560    287.70203   -4713.8105   -4697.7823    620.92748     7642.828    5.3379504 
    2570    301.14231   -4714.6554   -4697.8784    212.36712     7644.937    5.3218295 
    2580    314.19089   -4715.4843   -4697.9804   -347.69181    7647.2162    5.3043413 
    2590     314.4433   -4715.6163   -4698.0983   -875.06492    7649.1266    5.2910113 
    2600    307.89588   -4715.3826   -4698.2293    -1069.028    7650.1913    5.2844153 
    2610    309.18344   -4715.5951   -4698.3701   -1169.3251    7650.2062    5.2837075 
    2620    308.27597   -4715.6963   -4698.5219   -884.50003     7649.126     5.286943 
    2630    301.05375   -4715.4501   -4698.6781   -315.10739    7647.2274    5.2925766 
    2640       304.61   -4715.8056   -4698.8355    84.237611    7645.0383    5.2999118 
    2650    305.14643   -4715.9985   -4698.9985    685.45467    7642.9952     5.309484 
    2660    291.06149   -4715.3719   -4699.1566    1355.7622    7641.6679    5.3208621 
    2670    298.84966   -4715.9552    -4699.306    927.70146    7641.5758     5.332117 
    2680    318.37695    -4717.203   -4699.4658    20.633826    7642.3407    5.3428035 
    2690    301.88707   -4716.4582   -4699.6398   -217.26461    7643.1832    5.3520882 
    2700    270.36008   -4714.8584   -4699.7963   -353.41207    7643.8194    5.3567372 
    2710    263.92568   -4714.6205   -4699.9169   -866.28476    7644.0664    5.3554883 
    2720    264.36639   -4714.7302   -4700.0021   -945.14752    7643.5044    5.3513535 
    2730    253.60595   -4714.1771   -4700.0484   0.96282596      7642.13      5.34691 
    2740    256.96712   -4714.3672   -4700.0512    941.84931    7640.7733    5.3413243 
    2750    294.51262   -4716.4231   -4700.0155    943.49976    7640.2666    5.3341977 
    2760    332.57836   -4718.4958   -4699.9675    535.55744    7640.6565    5.3282972 
    2770    330.37389   -4718.3555     -4699.95    636.48805    7641.6234    5.3257216 
    2780     306.7505   -4717.0564    -4699.967    612.49123    7643.1987    5.3243422 
    2790    298.47803    -4716.623   -4699.9945   -402.96823    7645.2633     5.321146 
    2800    291.61961   -4716.2657   -4700.0192   -1441.3644    7646.9205    5.3166178 
    2810    271.12623   -4715.1368   -4700.0321   -1607.9922    7647.2427    5.3135105 
    2820    257.41943    -4714.359   -4700.0179   -1232.2006    7646.0364    5.3136959 
    2830    262.18171   -4714.5709   -4699.9645   -430.34906    7643.6862      5.31754 
    2840    277.33158   -4715.3213   -4699.8709    477.52217    7640.9468    5.3236192 
    2850    290.09813   -4715.9087    -4699.747    1360.6679    7638.6987    5.3289956 
    2860    295.94006   -4716.0949   -4699.6078    1748.2577    7637.7547     5.330196 
    2870    303.16741   -4716.3537   -4699.4639    1544.3813      7638.47    5.3251294 
    2880    312.62055   -4716.7388   -4699.3224    871.28126    7640.6426    5.3146991 
    2890    310.86194   -4716.5102   -4699.1917    42.625013    7643.6466    5.3034474 
    2900    292.69393   -4715.3805   -4699.0742   -603.81375    7646.6979    5.2973492 
    2910    275.00336   -4714.2766   -4698.9559     -1060.74    7649.1616       5.2995 
    2920    279.14355     -4714.37   -4698.8186   -1440.2988    7650.5747    5.3086234 
    2930    302.85482    -4715.529   -4698.6566   -1625.4517    7650.5899    5.3209903 
    2940    317.03499   -4716.1495   -4698.4871    -1047.678    7649.0955    5.3329512 
    2950    313.63153   -4715.8053   -4698.3325    177.39041    7646.6498    5.3414591 
    2960    316.10911   -4715.8068    -4698.196    1091.6389    7644.3723    5.3450042 
    2970    321.33917   -4715.9806   -4698.0784    1049.0629    7643.0791    5.3453319 
    2980    307.79146   -4715.1315    -4697.984    1053.9761    7642.8336    5.3456256 
    2990    294.88063   -4714.3323   -4697.9042     860.1596    7643.6095    5.3456556 
    3000    301.15917    -4714.601   -4697.8231    35.893418    7645.1694    5.3425724 
    3010     311.8193   -4715.1112   -4697.7394   -738.62772    7646.7695    5.3349849 
    3020    308.53726   -4714.8541   -4697.6651   -802.76592    7647.7136    5.3243356 
    3030    294.05167   -4713.9831   -4697.6012   -455.81551    7647.9112    5.3143198 
    3040    291.55727   -4713.7791   -4697.5361   -375.95881    7647.6439    5.3096387 
    3050    300.43247   -4714.2002   -4697.4628    -476.0275    7646.9904    5.3132211 
    3060     299.7198   -4714.0834   -4697.3857   -28.996583    7645.9249    5.3230613 
    3070    295.58292   -4713.7751   -4697.3079    468.76084    7644.8403    5.3321705 
    3080     307.7172   -4714.3709   -4697.2277    612.35041     7644.198    5.3340113 
    3090    323.83032    -4715.194    -4697.153    782.80858    7644.1689    5.3266106 
    3100    326.35974   -4715.2829    -4697.101    907.43578    7644.9056    5.3124489 
    3110     331.3432   -4715.5413   -4697.0818    345.65959    7646.4768    5.2968318 
    3120    341.23838   -4716.1141   -4697.1033   -527.70329    7648.3721    5.2862643 
    3130    336.93343   -4715.9458   -4697.1749   -1016.9128    7649.7941    5.2854317 
    3140    312.82676   -4714.7132   -4697.2853   -1155.0006    7650.2453     5.294317 
    3150    285.08384   -4713.2832   -4697.4009   -1033.7679    7649.5938    5.3086568 
    3160    273.16373   -4712.7124   -4697.4941    -957.4215    7647.9243    5.3233599 
    3170    283.97943   -4713.3835   -4697.5627   -640.49308    7645.3371    5.3361273 
    3180    293.49047   -4713.9666   -4697.6159    450.97499    7642.1953    5.3478363 
    3190    293.34003   -4714.0015   -4697.6592    1997.7274    7639.5433    5.3582912 
    3200    310.35414   -4714.9924   -4697.7023    2407.2596    7638.7465    5.3638068 
    3210    336.17777    -4716.495   -4697.7662    1544.8913    7640.2017    5.3616995 
    3220      330.939   -4716.3045   -4697.8675    777.35944    7643.1934    5.3540286 
    3230    311.01575   -4715.3242   -4697.9971   -39.321887     7646.947    5.3437332 
    3240     311.2096   -4715.4772   -4698.1393   -1343.5611    7650.6374    5.3319524 
    3250     309.7858   -4715.5523   -4698.2937   -2155.8056    7653.0805     5.320845 
    3260    290.02522   -4714.6075   -4698.4499   -1754.7481    7653.5354    5.3134112 
    3270    282.08384    -4714.304   -4698.5888   -1106.5044    7652.2946    5.3104279 
    3280    300.29346   -4715.4451   -4698.7155   -906.53909     7649.928    5.3114711 
    3290    314.35329   -4716.3618   -4698.8488   -380.23408    7646.6999    5.3169735 
    3300    308.66613   -4716.1901    -4698.994    560.92383    7643.1398    5.3264663 
    3310    300.73609   -4715.8973    -4699.143    957.06466    7640.0685    5.3374406 
    3320     293.2646   -4715.6276   -4699.2895    1111.0501    7637.8947    5.3469278 
    3330    274.72767   -4714.7256   -4699.4202    1751.3601    7636.8621    5.3516578 
    3340    263.46901   -4714.1978   -4699.5197    2071.6904      7637.52    5.3479626 
    3350    282.13788   -4715.3076   -4699.5894     1184.461     7640.107    5.3352417 
    3360     306.8439    -4716.739   -4699.6444    -101.5353    7643.8447    5.3180379 
    3370    303.18656   -4716.5925   -4699.7016   -773.69604    7647.5723    5.3020498 
    3380    292.92024    -4716.079     -4699.76    -1400.179    7650.5701    5.2900854 
    3390    294.36979   -4716.2131   -4699.8134   -2061.4547    7652.2142    5.2837557 
    3400     281.9758    -4715.568   -4699.8588   -2107.8181    7651.9097    5.2842977 
    3410    271.32229   -4715.0018   -4699.8861   -1760.2156    7649.5609     5.291027 
    3420    283.36534   -4715.6757   -4699.8891   -1029.7514    7645.4987    5.3032913 
    3430    290.12293   -4716.0327   -4699.8696    390.13716    7640.4641    5.3220601 
    3440    291.93011   -4716.0978    -4699.834    2075.8451    7635.8016    5.3461207 
    3450    300.11257   -4716.5093   -4699.7896    3100.3005    7633.0768    5.3692454 
    3460    302.95866   -4716.6262   -4699.7481    3193.1587    7633.2902    5.3833597 
    3470    298.87098   -4716.3641   -4699.7137    2474.5764    7636.5783    5.3829757 
    3480    297.12459   -4716.2324   -4699.6793    922.97594    7642.2636    5.3675417 
    3490    296.04365   -4716.1295   -4699.6366   -1357.6106    7648.8435    5.3424744 
    3500    285.80046   -4715.5049   -4699.5826   -3058.5269     7654.212    5.3178644 
    3510    271.70419    -4714.652   -4699.5151   -3631.8772    7656.7196     5.302948 
    3520    271.06154   -4714.5292   -4699.4281   -3302.7362    7655.7394    5.3014328 
    3530    283.36468   -4715.1044   -4699.3178   -2166.7543    7651.5559    5.3110411 
    3540    296.83872   -4715.7229   -4699.1857   -415.83619     7645.252    5.3257463 
    3550    302.28971   -4715.8778   -4699.0369    1544.0868    7638.4872    5.3390234 
    3560    304.59573   -4715.8502   -4698.8808    3468.6888    7633.1754    5.3464734 
    3570    315.69542     -4716.32   -4698.7323    4238.8198    7631.1136    5.3467565 
    3580    323.80242   -4716.6478   -4698.6084    3651.6528    7633.0828     5.341844 
    3590    312.88631    -4715.949   -4698.5177    2274.3329    7638.6011    5.3342718 
    3600    297.17111   -4715.0007    -4698.445    451.23983     7646.391    5.3234811 
    3610    294.89938   -4714.7922    -4698.363   -1999.9753    7654.6644    5.3073226 
    3620     305.1157   -4715.2625   -4698.2642   -4353.7678    7661.0792     5.287748 
    3630    305.59051   -4715.1956   -4698.1708   -5053.9473     7663.417    5.2721575 
    3640    287.18527   -4714.0953   -4698.0959   -3764.6087    7660.9536    5.2676776 
    3650    283.55812   -4713.8164    -4698.019   -1778.3473     7654.804    5.2757972 
    3660    304.18311   -4714.8704    -4697.924    1.1648085    7646.8113    5.2940008 
    3670    312.83306   -4715.2461   -4697.8178    1934.2582    7638.7414    5.3189507 
    3680    305.73521    -4714.747   -4697.7142    3836.6709    7632.4855    5.3449104 
    3690    307.41048   -4714.7457   -4697.6195    4417.3734    7629.8021    5.3637155 
    3700    319.26348   -4715.3281   -4697.5416    3622.5421    7631.3078    5.3699004 
    3710    317.70529   -4715.1911   -4697.4913     2165.354      7636.34    5.3642594 
    3720    299.08829   -4714.1243   -4697.4618    632.44658    7643.5793    5.3517654 
    3730    293.13087   -4713.7583   -4697.4277   -1117.6568    7651.5318    5.3370077 
    3740    304.79903   -4714.3603   -4697.3796   -2933.9458    7658.4933    5.3228926 
    3750    312.63207   -4714.7488   -4697.3317   -4115.4072    7662.7162    5.3117572 
    3760    312.33638   -4714.7036    -4697.303   -3982.6066    7663.0582      5.30581 
    3770    313.03957   -4714.7359   -4697.2961   -2793.7055    7659.5536     5.306525 
    3780     317.9237   -4715.0196   -4697.3077   -1270.7074    7653.2549    5.3135879 
    3790    319.16867   -4715.1187   -4697.3375    520.51977     7645.634    5.3244393 
    3800    314.89529    -4714.924   -4697.3809    2352.7404    7638.4343    5.3354796 
    3810    312.84436   -4714.8671   -4697.4382     3358.558    7633.3798    5.3441504 
    3820    309.21349   -4714.7392   -4697.5126    3690.3477    7631.5059    5.3493365 
    3830    305.19625   -4714.6062   -4697.6034    3344.0772    7633.1878    5.3490283 
    3840    304.73724    -4714.682   -4697.7048    2160.8583    7638.1243    5.3408514 
    3850    308.14306   -4714.9784   -4697.8114    315.20065    7645.2165    5.3252964 
    3860    309.94719   -4715.1889   -4697.9214   -1684.2778    7652.7412    5.3063231 
    3870    304.10634   -4714.9767   -4698.0346   -3302.0944    7658.7764    5.2892676 
    3880    296.40415   -4714.6652   -4698.1522   -4127.7457     7661.717    5.2789723 
    3890    290.19447   -4714.4372   -4698.2701   -3657.9996    7660.7382    5.2785855 
    3900    287.93731   -4714.4179   -4698.3766   -2237.2247    7656.1987    5.2878154 
    3910    301.72335   -4715.2832   -4698.4739   -637.39181    7649.3739    5.3030368 
    3920    316.32466   -4716.1978    -4698.575    1075.9103    7641.8201    5.3196137 
    3930    310.02471   -4715.9557   -4698.6839    2976.6374    7635.2336    5.3334276 
    3940    310.64587   -4716.1111   -4698.8047    3808.6761    7631.3668    5.3413363 
    3950    319.97581   -4716.7767   -4698.9505    3330.8059    7631.0643    5.3436324 
    3960    300.64954   -4715.8635    -4699.114    2737.5829    7634.0405    5.3434752 
    3970    274.27964   -4714.5429   -4699.2625    1518.5429    7639.7177     5.342493 
    3980    285.48368    -4715.285   -4699.3803   -807.28859    7646.9053    5.3410749 
    3990     301.6073   -4716.2849    -4699.482   -2740.5621    7653.4761    5.3398136 
    4000    278.35567   -4715.0855    -4699.578   -3020.3185    7657.6095    5.3380498 
    4010    257.62038   -4714.0012   -4699.6489   -2771.7087     7658.877    5.3339036 
    4020    276.31006   -4715.0808   -4699.6873   -2941.0899    7657.3835    5.3283373 
    4030    298.18261   -4716.3191   -4699.7071   -2433.4371     7653.014    5.3259639 
    4040    296.56516   -4716.2412   -4699.7193   -657.28305    7646.2647    5.3302988 
    4050    290.25622   -4715.8894   -4699.7189    1560.6624    7638.7763    5.3403326 
    4060    298.37893   -4716.3297   -4699.7067    3095.3631     7632.626    5.3512565 
    4070      301.139   -4716.4715   -4699.6947    4139.6543    7629.3765    5.3573611 
    4080    289.32191   -4715.8065   -4699.6881    4191.4444    7630.0537    5.3537581 
    4090     294.6363   -4716.0939   -4699.6794    2775.7548    7634.7598    5.3393889 
    4100    306.66225   -4716.7462   -4699.6617     538.2494    7642.2403    5.3189246 
    4110    301.63656   -4716.4435    -4699.639   -1510.3456    7650.4373    5.2998911 
    4120    293.57215   -4715.9689   -4699.6136   -3347.8686     7657.341    5.2882995 
    4130    284.92201   -4715.4578   -4699.5845   -4397.2494    7661.1498    5.2867775 
    4140    272.38105   -4714.7214   -4699.5467     -3897.63    7660.8201    5.2939355 
    4150    272.70492   -4714.6811   -4699.4884   -2829.0471     7656.649    5.3054119 
    4160    290.32192   -4715.5768   -4699.4026     -1373.92    7649.6093    5.3177014 
    4170    310.61237   -4716.5972   -4699.2927    847.83537    7641.1213    5.3291263 
    4180    314.31623   -4716.6883   -4699.1774    3135.6607    7633.2945    5.3379796 
    4190    301.79735   -4715.8926   -4699.0792    4753.0391    7628.3382    5.3420605 
    4200    294.40671   -4715.3992   -4698.9975    4796.6372    7627.8128    5.3399042 
    4210    292.94435    -4715.238   -4698.9177    3428.8612    7631.8995    5.3327278 
    4220    289.75347   -4714.9727   -4698.8302    1341.3006    7639.4168    5.3230601 
    4230    292.69311   -4715.0333   -4698.7271   -922.86325      7648.43    5.3129878 
    4240    293.97658   -4714.9827    -4698.605   -2825.6961    7656.7876    5.3050345 
    4250    291.93963   -4714.7371   -4698.4729   -4108.9442    7662.6035    5.3020306 
    4260    300.99081   -4715.1076   -4698.3391   -4493.2429    7664.5571    5.3058112 
    4270    317.71121   -4715.9142   -4698.2141   -3773.2195    7662.1858    5.3159847 
    4280    327.28947   -4716.3452   -4698.1115     -2109.39    7656.1042    5.3302672 
    4290    328.67099    -4716.344   -4698.0334   -102.16837    7647.8189    5.3452328 
    4300    324.83157    -4716.074   -4697.9772    1866.9754    7639.2419    5.3567793 
    4310    304.25916   -4714.8936   -4697.9429    3453.1524     7632.278    5.3615012 
    4320    271.05911    -4713.018    -4697.917    4437.6418     7628.522    5.3577447 
    4330    261.23214   -4712.4338   -4697.8803    3983.9276    7628.9266    5.3459994 
    4340    277.42939   -4713.2718   -4697.8159    2476.0752    7633.1823    5.3295689 
    4350    294.20411   -4714.1065   -4697.7161    943.23245    7640.0074    5.3132434 
    4360    311.06481   -4714.9241   -4697.5943   -487.07439    7647.9554    5.3003017 
    4370    326.98323    -4715.689   -4697.4724   -1889.5074    7655.6287    5.2908956 
    4380    328.98898   -4715.7019   -4697.3736   -2928.8525    7661.6583    5.2833176 
    4390     325.3502   -4715.4411   -4697.3155   -3674.9509     7664.961    5.2771761 
    4400    332.40671   -4715.8241   -4697.3053   -4239.6723    7664.7081    5.2752346 
    4410    331.06032   -4715.7893   -4697.3455   -3499.2239    7660.3488    5.2811471 
    4420    307.57541   -4714.5486   -4697.4132   -1321.9973    7652.5203    5.2951609 
    4430    289.69738   -4713.6072   -4697.4678     1258.496     7643.227     5.314127 
    4440    297.75745   -4714.0893   -4697.5009    3073.7209    7634.8719    5.3329997 
    4450    305.45909    -4714.552   -4697.5345    4458.5115    7629.3159    5.3459422 
    4460    300.09083   -4714.3035   -4697.5851    5211.4746     7627.975    5.3479619 
    4470    312.74638   -4715.0849   -4697.6614    4079.8828    7631.5784    5.3378051 
    4480    330.53262     -4716.18   -4697.7657    1603.7857       7639.2    5.3213257 
    4490    315.35191   -4715.4539   -4697.8853   -581.01349     7648.661    5.3076743 
    4500    287.96512   -4714.0318    -4697.989   -2490.5444    7657.8332    5.3018395 
    4510    281.10031    -4713.724   -4698.0636   -4375.2247    7664.7797    5.3038016 
    4520    292.30208   -4714.4178   -4698.1334   -5505.6503    7667.6203    5.3113551 
    4530    301.93407   -4715.0473   -4698.2262   -4975.1484     7665.193    5.3219021 
    4540     310.4564   -4715.6372   -4698.3414   -2870.0035    7657.8813    5.3327216 
    4550    315.87486   -4716.0554   -4698.4577    56.739598    7647.6013    5.3412474 
    4560     310.6326    -4715.865   -4698.5593    2806.2615    7637.0954    5.3462155 
    4570    306.38358   -4715.7213   -4698.6523    4782.1183    7629.0349    5.3480424 
    4580    307.79255    -4715.908   -4698.7605    5417.3669    7625.3726    5.3469494 
    4590    302.00005   -4715.7243   -4698.8996    4854.7883    7626.8568    5.3418018 
    4600    288.69163    -4715.139   -4699.0556    3279.8508    7633.0942    5.3307004 
    4610    279.54748    -4714.767   -4699.1931    657.20234     7642.662    5.3136779 
    4620    285.06653   -4715.1724    -4699.291   -2123.6989    7653.1498    5.2952357 
    4630    289.68465   -4715.4899   -4699.3512   -4262.0603    7661.8765    5.2827643 
    4640    286.62421   -4715.3563   -4699.3882      -5303.9    7666.6866    5.2815157 
    4650    288.96782   -4715.5227    -4699.424   -5169.9533    7666.4411    5.2915758 
    4660    295.57787   -4715.9446   -4699.4776   -3962.0164    7661.1337    5.3094153 
    4670     295.9067   -4716.0305   -4699.5452   -1684.8165    7651.8468     5.329772 
    4680    290.78201   -4715.7992   -4699.5994    1157.1189     7640.707    5.3465319 
    4690    289.94282   -4715.7689   -4699.6158    3615.9198    7630.3924    5.3556767 
    4700    292.56408   -4715.8948   -4699.5957     5276.429    7623.3246    5.3568971 
    4710    293.12921   -4715.8978   -4699.5672    5892.1449    7621.1955      5.35145 
    4720    291.31138   -4715.7881   -4699.5588    5316.0355     7624.723    5.3406448 
    4730    289.30246   -4715.6938   -4699.5765    3185.6657    7633.4584    5.3259088 
    4740    293.78697   -4715.9572     -4699.59    230.19861    7645.5299    5.3096707 
    4750    299.64015   -4716.2575   -4699.5642   -3016.3168    7658.1406    5.2957005 
    4760     304.5389   -4716.4663   -4699.5001   -5741.5564    7668.1366    5.2885683 
    4770    304.70299    -4716.405   -4699.4296   -7025.7989    7672.8026    5.2918568 
    4780    296.77717   -4715.9217   -4699.3879   -6416.9165    7670.7493    5.3063216 
    4790    283.28838   -4715.1601   -4699.3777   -4011.0489    7662.4107    5.3291008 
    4800    277.36582   -4714.8158   -4699.3634   -1006.9661    7649.9378    5.3546351 
    4810    291.47917   -4715.5546    -4699.316    1886.5133    7636.1691    5.3773627 
    4820    298.21711   -4715.8408   -4699.2268    4933.2085    7623.9692    5.3924989 
    4830     286.8858   -4715.0889   -4699.1062    7458.8773    7616.3087    5.3945162 
    4840    285.45792   -4714.8817   -4698.9785    7985.5888    7615.6247     5.378716 
    4850    296.70668   -4715.3964   -4698.8665    6097.2272    7622.5606    5.3456116 
    4860    304.41549   -4715.7313   -4698.7719    2720.7314    7635.5469    5.3026841 
    4870    305.26439   -4715.6873   -4698.6807   -1029.1203    7651.5297    5.2612082 
    4880    308.83495   -4715.7767   -4698.5712   -4930.9374    7666.8646    5.2316233 
    4890    317.05455   -4716.1045    -4698.441   -8047.0772    7677.7207    5.2216719 
    4900    313.51926    -4715.793   -4698.3264   -9040.1869    7680.9742    5.2348649 
    4910    295.03913   -4714.6881   -4698.2512   -7034.7332    7675.5526    5.2676197 
    4920    280.99456   -4713.8464   -4698.1918   -3438.2422    7663.1589    5.3092731 
    4930    286.99865   -4714.1107   -4698.1217    287.74442    7647.1332    5.3480255 
    4940    300.84546   -4714.7894   -4698.0289    3683.3464     7631.073    5.3767376 
    4950    305.22201   -4714.9186   -4697.9143    6825.8354    7618.3438      5.39228 
    4960    305.29538   -4714.8038   -4697.7954    8704.8794    7611.9802    5.3922068 
    4970    303.60999    -4714.605   -4697.6906    8717.8457    7613.8829    5.3753063 
    4980    307.29466   -4714.7278   -4697.6081     6420.309    7624.1759    5.3427792 
    4990    318.86779   -4715.3063   -4697.5418    2048.4787    7640.8041    5.2995369 
    5000    321.62338   -4715.3961   -4697.4781   -3074.2224    7659.6975    5.2551812 
Loop time of 3974.36 on 8 procs for 5000 steps with 432 atoms

Performance: 0.109 ns/day, 220.798 hours/ns, 1.258 timesteps/s
94.9% CPU use with 8 MPI tasks x 1 OpenMP threads

MPI task timing breakdown:
Section |  min time  |  avg time  |  max time  |%varavg| %total
---------------------------------------------------------------
Pair    | 3577.5     | 3645.9     | 3698.7     |  71.0 | 91.73
Bond    | 0.00089383 | 0.0014276  | 0.0022388  |   1.1 |  0.00
Neigh   | 0.05472    | 0.055684   | 0.056753   |   0.2 |  0.00
Comm    | 269.57     | 320.1      | 384.7      | 234.8 |  8.05
Output  | 0.25548    | 0.26677    | 0.3449     |   5.7 |  0.01
Modify  | 5.7492     | 8.0334     | 11.791     |  81.9 |  0.20
Other   |            | 0.04908    |            |       |  0.00

Nlocal:        54.0000 ave          57 max          48 min
Histogram: 1 0 0 0 1 1 0 2 2 1
Nghost:        650.000 ave         656 max         647 min
Histogram: 1 2 2 0 1 1 0 0 0 1
Neighs:         0.00000 ave           0 max           0 min
Histogram: 8 0 0 0 0 0 0 0 0 0
FullNghs:      3048.75 ave        3217 max        2701 min
Histogram: 1 0 0 0 1 1 0 1 3 1

Total # of neighbors = 24390
Ave neighs/atom = 56.458333
Ave special neighs/atom = 0.0000000
Neighbor list builds = 347
Dangerous builds = 37
System init for write_data ...
Total wall time: 1:06:20
