LAMMPS data file via write_data, version 29 Sep 2021, timestep = 5000

432 atoms
2 atom types

1.6189138943305057 17.23231390568275 xlo xhi
1.6002802889321561 17.25094751108091 ylo yhi
3.178258628775467 34.52419697125101 zlo zhi

Masses

1 35.45
2 39.0983

Atoms # full

6 0 1 0 4.224939651699582 4.166560917069076 5.784489905598671 0 0 0
3 0 2 0 4.325667815969055 17.23485705818519 5.771832094306367 0 -1 0
62 0 1 0 4.229365529271412 9.36372752493158 10.993419037118723 0 0 0
195 0 2 0 9.36310186802149 6.778491925874148 5.702396144104088 0 0 0
2 0 2 0 1.6332728938582666 4.2238373965361475 5.8339605132991075 0 0 0
146 0 2 0 6.8094900657113415 4.15069264769473 5.7648856748282995 0 0 0
151 0 1 0 6.908340000600223 17.16382649663882 5.784651595173074 0 -1 0
112 0 1 0 1.6741548923994733 14.615449287229952 8.416307168106847 0 0 0
51 0 2 0 4.1752291244767 6.8293344096029145 5.7979577129222735 0 0 0
256 0 1 0 6.900443979851616 14.624882066972644 8.443453998130014 0 0 0
249 0 2 0 6.767597068267348 12.035747721862636 8.435658093158338 0 0 0
1 0 2 0 1.623997289529331 1.649737178000875 3.2184416504351323 0 0 0
199 0 1 0 6.785793714612016 6.662520218958187 5.831332586461929 0 0 0
205 0 1 0 9.357798785373895 6.754699720050067 8.372425345156156 0 0 0
54 0 1 0 4.210966218304831 9.35480593838947 5.747448610955098 0 0 0
194 0 2 0 6.877637527601606 9.350846257102912 5.832722026285987 0 0 0
10 0 2 0 1.6676466465815127 4.134622711168212 11.012779982482893 0 0 0
4 0 2 0 4.145404161070644 4.158609374025937 3.1801425844180025 0 0 0
99 0 2 0 4.271136795198325 12.007340322807488 5.846757710154126 0 0 0
247 0 1 0 6.8935990640722 11.998976592655616 5.812404734350457 0 0 0
208 0 1 0 6.815679235240398 9.461166086816892 8.424950657047955 0 0 0
102 0 1 0 4.352790758256077 14.630493760777359 5.782645239129656 0 0 0
242 0 2 0 6.884703766144081 14.621162866104942 5.750253174890448 0 0 0
13 0 1 0 4.315940666740202 17.22143004668579 8.324150056247241 0 -1 0
106 0 2 0 1.6630902262355058 14.608210936640596 10.99825079809295 0 0 0
12 0 2 0 4.2136898842508295 4.200072926078568 8.413826004842827 0 0 0
109 0 1 0 4.188916820204556 11.933987978852857 8.413055526589345 0 0 0
7 0 1 0 1.6989666109472916 17.248495482982516 5.886238898360684 0 -1 0
160 0 1 0 6.802483681271654 4.151501915423344 8.404446801037082 0 0 0
153 0 2 0 6.92756673656191 17.206904384734848 8.45089464582163 0 -1 0
156 0 2 0 9.367811044916643 4.191077820631293 8.323564506272131 0 0 0
107 0 2 0 4.1865362983984 11.904677964784979 11.001992836361374 0 0 0
61 0 1 0 4.133597200324514 6.765470715778958 8.40562295087189 0 0 0
201 0 2 0 6.820718874175654 6.748336844931593 8.379847820492092 0 0 0
15 0 1 0 1.736801251878441 17.117252115356887 10.982972660321536 0 -1 0
60 0 2 0 4.159148107944347 9.451955193289873 8.388473426531341 0 0 0
200 0 1 0 6.782305253645736 9.421355155330833 3.199285443167061 0 0 0
108 0 2 0 4.267826824631747 14.546270090903013 8.405694538056597 0 0 0
150 0 1 0 9.423892792769308 4.236441739745302 5.715913596111477 0 0 0
9 0 2 0 1.7756980654353862 17.221770871853494 8.431963830734073 0 -1 0
159 0 1 0 6.912488205818819 1.6319344849378783 10.963467959268382 0 0 0
98 0 2 0 1.682653420900823 14.716148240893217 5.798138151727822 0 0 0
193 0 2 0 6.687760505874863 6.755352859626347 3.205323526438567 0 0 0
103 0 1 0 1.69383823259714 12.191023484201212 5.836902627257977 0 0 0
59 0 2 0 4.15565817452081 6.7941922603014335 11.010867994305244 0 0 0
14 0 1 0 4.286607494397782 4.130153468783297 10.9850621432806 0 0 0
253 0 1 0 9.41807426992448 11.970923416544577 8.332985617725164 0 0 0
16 0 1 0 1.6643617851127752 4.231375089635003 8.355729298876184 0 0 0
203 0 2 0 9.402267560775286 6.786102807508889 11.008599482904257 0 0 0
252 0 2 0 9.420233377062175 14.596088977498097 8.345974299200495 0 0 0
11 0 2 0 4.361136365587332 17.21441286890625 11.014300338416163 0 -1 0
101 0 1 0 4.273876134179602 11.925903412330046 3.1796435712080537 0 0 0
21 0 1 0 4.333296079375488 1.6347089490101971 13.565540803266249 0 0 0
20 0 2 0 4.239670688467285 4.252571984113663 13.63495844095925 0 0 0
173 0 1 0 9.409647188148316 17.250247404978058 18.753881793153532 0 -1 0
72 0 1 0 1.6429111684661506 9.46794885289762 13.695739124179577 0 0 0
118 0 1 0 4.261711381651552 14.624395642874227 16.378290357820653 0 0 0
120 0 1 0 1.655028496470103 14.693870793361105 13.581018058679115 0 0 0
168 0 1 0 6.833041880099345 4.220386852348129 13.631061140855097 0 0 0
161 0 2 0 6.902465808716889 1.6064775270578804 13.586496321449106 0 0 0
19 0 2 0 4.267458511548162 17.16075900988151 16.27795565798081 0 -1 0
154 0 2 0 6.884077584148266 4.184346333879121 11.023405204306268 0 0 0
69 0 1 0 4.148478502511622 6.806077693125391 13.661993456175773 0 0 0
213 0 1 0 9.387803290650886 6.8263914785958715 13.6956124539701 0 0 0
209 0 2 0 6.78146860283706 6.829627807211234 13.720448353994575 0 0 0
255 0 1 0 6.788745967156331 12.014797919954406 11.015230291679075 0 0 0
269 0 1 0 9.368903376199512 12.002108108145984 18.74415643379546 0 0 0
77 0 1 0 4.265504129142217 6.760210599032588 18.847951110602114 0 0 0
68 0 2 0 4.2489095578855185 9.443218754511719 13.646889777998055 0 0 0
207 0 1 0 6.784426043475437 6.766421387629227 11.031675202571973 0 0 0
216 0 1 0 6.823084816220442 9.471698458804234 13.675211849493998 0 0 0
117 0 1 0 4.211011535004316 12.064772979593569 13.588950675319392 0 0 0
217 0 2 0 6.887910732496514 6.8052203955523725 18.83501029494067 0 0 0
257 0 2 0 6.818000653690096 12.086675800077884 13.604823508736231 0 0 0
116 0 2 0 4.300960848765211 14.692613987731196 13.612769498277853 0 0 0
250 0 2 0 6.908551521367585 14.622154700230023 11.071639019706442 0 0 0
172 0 2 0 9.402249233813933 4.212346585884893 18.819773286645184 0 0 0
264 0 1 0 6.830372971093356 14.637006068107217 13.653873150703502 0 0 0
272 0 1 0 6.906084832354024 14.649486710601822 18.786473699689815 0 0 0
22 0 1 0 4.165053257109772 4.150700421980164 16.26275988680065 0 0 0
265 0 2 0 6.82959483186953 12.033861218683965 18.79733784826155 0 0 0
125 0 1 0 4.232929193747761 12.048448784622298 18.803651047297862 0 0 0
115 0 2 0 4.232395995331234 11.999901023399607 16.27240359954544 0 0 0
162 0 2 0 6.9273440958884285 4.123278265863061 16.204320392380577 0 0 0
167 0 1 0 6.854342760186088 17.20506368807027 16.192193669846702 0 -1 0
67 0 2 0 4.193674161456016 6.7766569311691205 16.293680584882622 0 0 0
215 0 1 0 6.885773226236934 6.796312763782574 16.283323388885478 0 0 0
258 0 2 0 6.822928248598005 14.579246988373884 16.20775715566227 0 0 0
261 0 1 0 9.39015527001552 12.13817789644894 13.49674144856565 0 0 0
70 0 1 0 4.210791530533685 9.320546862684534 16.218026920070997 0 0 0
263 0 1 0 6.8583934978353485 12.040715226465 16.124343452242734 0 0 0
110 0 1 0 4.292450255948431 14.604066400199764 11.02708873132929 0 0 0
210 0 2 0 6.840472074490363 9.387649111029765 16.250100471704535 0 0 0
23 0 1 0 1.638871539963987 17.232266796398214 16.2573982557171 0 -1 0
114 0 2 0 1.6811720915752695 14.691287590900748 16.337444495580307 0 0 0
169 0 2 0 6.832958855710491 17.214179688029887 18.79795707381195 0 -1 0
259 0 2 0 9.405844007537247 12.017948186935953 16.13915462513743 0 0 0
17 0 2 0 1.6827396564635082 17.239517550395988 13.646653018700558 0 -1 0
58 0 2 0 1.6623421567024774 9.42997887630931 11.038066982280668 0 0 0
176 0 1 0 6.882138413620564 4.128289279911959 18.74488180316295 0 0 0
111 0 1 0 1.6323719683583295 12.066518470595534 11.069214400683077 0 0 0
164 0 2 0 9.410793600344416 4.1524454950364476 13.596300239526085 0 0 0
113 0 2 0 1.6765086547108483 12.07551678376572 13.62191940950662 0 0 0
268 0 2 0 9.41801477564128 14.5189984252963 18.788523683233677 0 0 0
66 0 2 0 1.6480254565906862 9.459680108193762 16.282040862404884 0 0 0
224 0 1 0 6.929587478497212 9.417107463461402 18.791722287706058 0 0 0
73 0 2 0 1.6832315682460322 6.872252335650954 18.823662735246515 0 0 0
202 0 2 0 6.79131697407378 9.418516965777972 11.048603791787214 0 0 0
260 0 2 0 9.41392060125835 14.722752620666125 13.57703749507559 0 0 0
65 0 2 0 1.619628130670483 6.774846406467821 13.73011925818749 0 0 0
30 0 1 0 4.26810893450797 4.266229535636803 21.51920261545889 0 0 0
181 0 1 0 9.418012535218637 1.6018742182929617 24.02533451828097 0 0 0
276 0 2 0 9.356409245013218 14.634786741650528 24.00233102744544 0 0 0
32 0 1 0 1.7145021400420575 4.262496344676061 18.884152999067908 0 0 0
170 0 2 0 6.855475429850057 4.245988001038924 21.42664156411208 0 0 0
230 0 1 0 9.365184002810526 9.4745619099251 26.679735744318226 0 0 0
75 0 2 0 4.309548602637506 6.91393668237615 21.457215423208304 0 0 0
28 0 2 0 4.298753733261244 4.133424786019737 18.890130516076603 0 0 0
223 0 1 0 6.89552382033963 6.835220121244255 21.43035840354004 0 0 0
29 0 1 0 4.260993583901082 1.6165062644684831 18.917533588800087 0 0 0
80 0 1 0 1.6892052287961654 9.51357273496502 18.872457638699835 0 0 0
78 0 1 0 4.1771996221364 9.467485029434275 21.48393348854757 0 0 0
132 0 2 0 4.246259398971411 14.70124769229873 24.22752532774472 0 0 0
218 0 2 0 6.824953336487101 9.463767337222567 21.40030814000662 0 0 0
178 0 2 0 6.775883949219487 4.169628712626378 26.59043586521021 0 0 0
278 0 1 0 9.357580790553165 14.69333648951565 26.644687401700487 0 0 0
123 0 2 0 4.253478319858358 12.058588506350116 21.472554540780134 0 0 0
229 0 1 0 9.347284395126408 6.756331984694457 24.070024727681314 0 0 0
273 0 2 0 6.804892701815795 12.055230263859896 23.987616845831234 0 0 0
271 0 1 0 6.770064213410306 12.037804423598441 21.30474162828589 0 0 0
27 0 2 0 4.318683671043518 1.6444649986179498 21.482331259995302 0 0 0
267 0 2 0 9.40926424060834 12.021544628615628 21.41200762482415 0 0 0
126 0 1 0 4.247919161232726 14.750651240487084 21.607926759893527 0 0 0
171 0 2 0 9.38465353242066 17.232366692875907 21.46310216346994 0 -1 0
37 0 1 0 4.176068138853021 1.6507639082863133 24.09834715870308 0 0 0
275 0 2 0 9.327293239971423 12.083967750009553 26.61234945889546 0 0 0
177 0 2 0 6.781538482372659 17.21594414611151 23.994487404838345 0 -1 0
175 0 1 0 6.811392282905954 1.6391313668052652 21.39272983470422 0 0 0
266 0 2 0 6.7933793238971925 14.585317631098077 21.351347360064917 0 0 0
36 0 2 0 4.201237406026834 4.24710516962087 24.172535235665414 0 0 0
228 0 2 0 9.349488292353819 9.389773198538045 24.0938872972896 0 0 0
127 0 1 0 1.6417481268682845 12.1311105427946 21.51396642543583 0 0 0
280 0 1 0 6.846353333183315 14.567548919078225 23.967886190625904 0 0 0
184 0 1 0 6.774781150620337 4.168178212758285 24.053165317700813 0 0 0
232 0 1 0 6.800037052480818 9.379283792142548 23.99526421623882 0 0 0
85 0 1 0 4.198931448909773 6.836074799584106 24.107184779785705 0 0 0
128 0 1 0 1.7549789334422419 14.762968758324378 19.02118072362943 0 0 0
133 0 1 0 4.153806299565037 12.12567402266213 24.11699479863814 0 0 0
225 0 2 0 6.769561717765543 6.778607652784785 24.02298531568251 0 0 0
84 0 2 0 4.169749752554738 9.434508485442354 24.07953696407403 0 0 0
180 0 2 0 9.408951843032018 4.167853975888411 24.00694929873408 0 0 0
124 0 2 0 4.308987735034902 14.689831950623036 18.89980804424512 0 0 0
25 0 2 0 1.6436244275452991 1.6640371065602357 18.911859346186887 0 0 0
274 0 2 0 6.764846631091186 14.585888028827668 26.630982381706698 0 0 0
40 0 1 0 1.7208742818619105 4.242282029019429 24.14199886926411 0 0 0
226 0 2 0 6.708224568200091 9.319509085439655 26.6087393189683 0 0 0
26 0 2 0 1.6538587062564127 4.247821486833786 21.500135448580842 0 0 0
231 0 1 0 6.679163485449139 6.753390115045372 26.63323503513168 0 0 0
121 0 2 0 1.6254395743847865 12.131837692856339 18.971985810466954 0 0 0
279 0 1 0 6.749097233554859 11.850697537344283 26.487435850416496 0 0 0
83 0 2 0 4.121996918649933 6.896038211192692 26.676536671131153 0 0 0
183 0 1 0 6.82625405339192 17.144426982354858 26.614570043293586 0 -1 0
86 0 1 0 4.161852573991882 9.409027539262274 26.66442170454757 0 0 0
39 0 1 0 1.678477261233445 1.7087726329843884 26.644146217050558 0 0 0
76 0 2 0 4.273862811176958 9.45462261513676 18.879015128894792 0 0 0
277 0 1 0 9.422382541511542 12.097907120589108 24.083785217173766 0 0 0
270 0 1 0 9.41907636234831 14.58578405911242 21.43827703676169 0 0 0
44 0 2 0 4.166034250972769 4.2294796905404874 29.33411521796442 0 0 0
45 0 1 0 4.278119185176415 1.6026794840363254 29.33564197888732 0 0 0
179 0 2 0 9.378793174330113 1.6744690995860232 26.70958767279756 0 0 0
235 0 2 0 9.337035162501417 6.7714233623558115 31.95824075734805 0 0 0
152 0 1 0 6.746608509742739 4.146891484683819 34.51610890881021 0 0 -1
192 0 1 0 6.789729256458176 4.207713862810259 29.23281020348883 0 0 0
93 0 1 0 4.190681246943228 6.923752004388292 29.3208329865687 0 0 0
237 0 1 0 9.283968474678339 6.867867597653852 29.386711125031507 0 0 0
233 0 2 0 6.699890749649351 6.813161463504198 29.224201089890137 0 0 0
92 0 2 0 4.170631948743439 9.438174500609072 29.25394851389469 0 0 0
190 0 1 0 9.329403012491683 4.091230663431011 31.94496966194886 0 0 0
240 0 1 0 6.799055199619309 9.41732096151916 29.248136237264514 0 0 0
284 0 2 0 9.362090130907635 14.63124949448464 29.185502020171196 0 0 0
227 0 2 0 9.31889049834669 6.790269412480219 26.795251128799062 0 0 0
141 0 1 0 4.131571126272089 12.004832654032917 29.334157605968866 0 0 0
281 0 2 0 6.744035702562049 11.98021422098061 29.10162620849293 0 0 0
188 0 2 0 9.406069675962378 4.274870082703225 29.29021166214597 0 0 0
41 0 2 0 1.6598549369903148 1.6078763864465007 29.328947714599654 0 0 0
140 0 2 0 4.256418610421253 14.656481415022197 29.399137587514648 0 0 0
131 0 2 0 4.185666368481348 12.099364362989762 26.694782033649847 0 0 0
185 0 2 0 6.812333514671996 1.6123094849490103 29.295006412408082 0 0 0
288 0 1 0 6.784488677010414 14.697881812665669 29.266079945677664 0 0 0
145 0 2 0 6.883857202682101 17.16131980797823 34.50121106334055 0 -1 -1
46 0 1 0 4.184846570275792 4.218642698358216 31.911931852304644 0 0 0
241 0 2 0 6.861563742911276 11.995338288893022 34.51815758894683 0 0 -1
186 0 2 0 6.774905997677729 4.1405996849595965 31.908184204105186 0 0 0
5 0 1 0 4.240797233342487 17.18791637951327 34.50945205712815 0 -1 -1
91 0 2 0 4.152584562825952 6.86875328963382 31.859925162972075 0 0 0
144 0 1 0 1.6312336162974548 14.659607234583042 29.381354356018676 0 0 0
286 0 1 0 9.384138642958431 14.566358585044574 31.884419339059832 0 0 0
239 0 1 0 6.75703441732283 6.81611147791056 31.90651164995224 0 0 0
43 0 2 0 4.2005509235335445 1.63669356398429 31.874935269315895 0 0 0
94 0 1 0 4.16195084390553 9.362761550425562 31.837471637293586 0 0 0
52 0 2 0 4.261549743740014 9.4121631157664 34.47568401520684 0 0 -1
234 0 2 0 6.812290346702091 9.374623411143013 31.84666945767805 0 0 0
35 0 2 0 4.193269620915016 1.6556497213167247 26.72474433023528 0 0 0
197 0 1 0 9.30337998202064 6.749908573016799 34.47233375951491 0 0 -1
142 0 1 0 4.23333451183369 14.627159529432891 31.97472304050726 0 0 0
139 0 2 0 4.156056730975082 12.004403899565498 31.905535455323346 0 0 0
282 0 2 0 6.7505384489023825 14.622639461778428 31.836369366734182 0 0 0
191 0 1 0 6.783577011693134 17.177417365594287 31.93828378296758 0 -1 0
287 0 1 0 6.829848730019913 11.930306367426487 31.90270418324536 0 0 0
130 0 2 0 1.6510086047216803 14.669367145305625 26.829321036645013 0 0 0
53 0 1 0 4.079782559301092 6.798517446453693 34.51665743306717 0 0 -1
236 0 2 0 9.369870618406122 9.434805213966621 29.268708400277326 0 0 0
248 0 1 0 6.925597456758689 14.529703704489343 34.48041668861614 0 0 -1
238 0 1 0 9.387741690099222 9.403207014363213 31.87381242609845 0 0 0
143 0 1 0 1.666376515537781 12.055272605397203 31.995297006778895 0 0 0
283 0 2 0 9.420840174987934 11.997153272098002 31.771086095523803 0 0 0
38 0 1 0 4.189931006922597 4.295187121685156 26.740364894527758 0 0 0
134 0 1 0 4.152259436766496 14.716607375182445 26.813337414632713 0 0 0
285 0 1 0 9.407459103744195 12.058361640864696 29.202931800613754 0 0 0
100 0 2 0 4.2500889768241965 14.580276682938775 34.50060809102672 0 0 -1
8 0 1 0 1.633676162601906 4.28810884380348 34.497039091914154 0 0 -1
196 0 2 0 9.420373298019577 9.395730441013537 34.478771103928636 0 0 -1
290 0 2 0 12.029341455706806 4.146591546217749 5.835595817914747 0 0 0
295 0 1 0 12.131113742660744 17.177763620531394 5.854373353985219 0 -1 0
396 0 2 0 14.694955041903908 14.670636421062051 8.421369407438576 0 0 0
294 0 1 0 14.629222192495401 4.150165985362495 5.721524709094564 0 0 0
296 0 1 0 12.109068611314758 4.168910501658404 3.294847172380662 0 0 0
291 0 2 0 14.635228782434835 1.6036014805434406 5.864484510893423 0 0 0
340 0 2 0 14.57586602979653 9.45606258861381 3.2012899816439453 0 0 0
348 0 2 0 14.650453373767224 9.471469998252989 8.475349595316032 0 0 0
246 0 1 0 9.510826582822087 14.572974072210794 5.687862121167666 0 0 0
389 0 1 0 14.708199985014263 12.05507686746994 3.2640819409156485 0 0 0
343 0 1 0 11.878173411730707 6.689629540940656 5.796055734838312 0 0 0
55 0 1 0 17.094399847328425 6.79129818372762 5.821692171054753 -1 0 0
400 0 1 0 12.10552737699265 14.571750311357517 8.3374800559332 0 0 0
206 0 1 0 9.507180769726101 9.463193629111071 10.999548690091743 0 0 0
339 0 2 0 14.513179336825226 6.722073956811374 5.743273548362701 0 0 0
298 0 2 0 12.080366791958687 4.160501773041425 10.99537410212097 0 0 0
338 0 2 0 12.065395027410997 9.356690555087834 5.757693334703278 0 0 0
155 0 2 0 9.43427954202798 17.197323406839914 10.93361661338004 0 -1 0
342 0 1 0 14.654505258835947 9.376476543670268 5.800487876501382 0 0 0
56 0 1 0 17.20587938073504 9.39948368970282 3.189787729121562 -1 0 0
349 0 1 0 14.634334397827747 6.845061884671811 8.38200290251033 0 0 0
391 0 1 0 12.087936684962552 11.90041435969677 5.712053653991285 0 0 0
157 0 1 0 9.456596624668036 17.116136525287537 8.310108058304934 0 -1 0
64 0 1 0 17.166777264858126 9.401896511839517 8.319501666189623 -1 0 0
387 0 2 0 14.636880223364289 12.082384629040458 5.868860912434733 0 0 0
397 0 1 0 14.54060211208025 12.133770699698697 8.531333413128078 0 0 0
289 0 2 0 12.121322032201931 17.17789178842041 3.2206145122165872 0 -1 0
386 0 2 0 12.119507265044398 14.486015380976811 5.740585125920135 0 0 0
243 0 2 0 9.451719255754508 11.98307884214373 5.761239606160055 0 0 0
352 0 1 0 12.09949632014582 9.347096584986478 8.397589122420761 0 0 0
390 0 1 0 14.678530571738394 14.708683710890458 5.854161205704461 0 0 0
393 0 2 0 11.96974163803875 11.9561260641632 8.371015316177782 0 0 0
297 0 2 0 12.084439159221462 17.220254468876224 8.387727611522088 0 -1 0
304 0 1 0 12.03128126264055 4.153624063787779 8.415972790141407 0 0 0
392 0 1 0 12.11746349662113 14.651757473627201 3.218504670215488 0 0 0
345 0 2 0 11.99549392106728 6.75538548436984 8.380079730846385 0 0 0
57 0 2 0 17.195889951016223 6.793098120947438 8.459586628058839 -1 0 0
301 0 1 0 14.70434933815819 1.679745234514023 8.49337159993761 0 0 0
300 0 2 0 14.669314734823299 4.26594130768069 8.415386084750136 0 0 0
198 0 1 0 9.537532110325028 9.409759032656144 5.809773845420118 0 0 0
97 0 2 0 17.225328611416757 12.06447247880049 3.241000943804469 -1 0 0
388 0 2 0 14.708237650913421 14.701591492152733 3.221114074966238 0 0 0
147 0 2 0 9.529725045164085 17.20458694083611 5.736198913188753 0 -1 0
204 0 2 0 9.492619097856574 9.3209411989264 8.400299877775431 0 0 0
346 0 2 0 12.115740486723567 9.42043261207359 10.977718903102593 0 0 0
49 0 2 0 17.112620050683297 6.852659474650885 3.2628490682073794 -1 0 0
399 0 1 0 11.995021775034568 12.034277103729005 10.958088203952617 0 0 0
394 0 2 0 12.028473844038484 14.61175989830331 11.002291343808505 0 0 0
254 0 1 0 9.520613471493924 14.568734153208984 10.91709642268069 0 0 0
293 0 1 0 14.702339672197288 1.6293482244604733 3.2413968756120606 0 0 0
50 0 2 0 17.203096958752894 9.464486718434856 5.726657216596445 -1 0 0
158 0 1 0 9.486912193902558 4.175992776019399 10.987352514308245 0 0 0
148 0 2 0 9.427310385685871 4.19912762369385 3.206976246029953 0 0 0
385 0 2 0 12.142220169610122 12.004014135822276 3.1855581236193933 0 0 0
105 0 2 0 17.227986100877224 12.002374105224126 8.49307387089538 -1 0 0
104 0 1 0 17.222203166661988 14.661632893108953 3.3306942472883825 -1 0 0
251 0 2 0 9.429273671496759 11.964975635145715 10.944233539111874 0 0 0
351 0 1 0 12.006266403082009 6.769147773976736 11.013686055564616 0 0 0
312 0 1 0 12.000232987291836 4.221725767931723 13.701598177295534 0 0 0
305 0 2 0 12.096555588624058 1.6118141526306335 13.555594359251923 0 0 0
71 0 1 0 17.220069857470264 6.8887338188126455 16.313779267279806 -1 0 0
309 0 1 0 14.72282599749429 1.6749584167432938 13.642196932701351 0 0 0
308 0 2 0 14.611153041005702 4.252884952128863 13.625705707062021 0 0 0
347 0 2 0 14.573545350438042 6.815378566996288 11.066213732159067 0 0 0
350 0 1 0 14.725302553852336 9.388025486420446 11.055501561588347 0 0 0
299 0 2 0 14.687389485638706 17.212765464097167 11.054253026687118 0 -1 0
353 0 2 0 11.970479595243704 6.7922755905026735 13.641847169777826 0 0 0
398 0 1 0 14.620342178451786 14.559435066483891 11.064382151478965 0 0 0
357 0 1 0 14.535720973870944 6.794271589821776 13.761199005246311 0 0 0
165 0 1 0 9.534806139000075 1.6246907929381305 13.57133646605101 0 0 0
302 0 1 0 14.703912235775096 4.161807233894562 11.05990359878713 0 0 0
214 0 1 0 9.454519615126138 9.41200817993687 16.113800853613938 0 0 0
360 0 1 0 12.107923819522536 9.458912028370023 13.459386740053057 0 0 0
262 0 1 0 9.483791117544449 14.601364943977961 16.196280246528573 0 0 0
356 0 2 0 14.64767400849488 9.465409242510095 13.654198730820976 0 0 0
24 0 1 0 17.202092569650407 4.131436669017992 13.618918935749424 -1 0 0
368 0 1 0 11.96897532193981 9.35986679295656 18.805293486127148 0 0 0
401 0 2 0 11.9891089455528 12.083193068630528 13.621369865726987 0 0 0
365 0 1 0 14.608383055348586 6.849827148408447 18.806562915012883 0 0 0
405 0 1 0 14.65126041868423 12.08145754740794 13.654796032538332 0 0 0
402 0 2 0 12.06996208457644 14.588497988629197 16.27499273881309 0 0 0
408 0 1 0 12.058498900120558 14.656456161860415 13.680414170196297 0 0 0
395 0 2 0 14.646974304647621 11.961686471631166 11.092904105550879 0 0 0
163 0 2 0 9.516303773361603 17.14405229444471 16.21885830359561 0 -1 0
403 0 2 0 14.630893836223407 12.088165454081329 16.227738259101432 0 0 0
404 0 2 0 14.676627260840064 14.704557749930663 13.704564323067991 0 0 0
306 0 2 0 12.022802184517777 4.195036273773696 16.24554595444002 0 0 0
311 0 1 0 12.150135849457978 1.6027816624658868 16.178167031824017 0 0 0
409 0 2 0 12.063288923594975 11.96273641745651 18.815024252463008 0 0 0
119 0 1 0 17.21435393867421 12.105354834713125 16.269371043804476 -1 0 0
310 0 1 0 14.652458057154263 4.314477588609148 16.276576730756908 0 0 0
307 0 2 0 14.703790842767924 17.248475678528674 16.24626652424001 0 -1 0
359 0 1 0 12.018507150112056 6.817261764650259 16.288317174549345 0 0 0
320 0 1 0 12.05249652637617 4.1363044390887245 18.815860270222146 0 0 0
355 0 2 0 14.671229075189734 6.885471835810473 16.31570514141354 0 0 0
354 0 2 0 12.052766805087368 9.427116918815877 16.143461687629447 0 0 0
166 0 1 0 9.50478224929503 4.118284904649338 16.21781229108213 0 0 0
358 0 1 0 14.61323452666557 9.495159859600854 16.221864118063245 0 0 0
406 0 1 0 14.570084860577678 14.681953414774679 16.24230271365768 0 0 0
407 0 1 0 12.03898242734993 12.02345242108772 16.198542037358756 0 0 0
313 0 2 0 12.039858163918 17.19920285703615 18.794304470037275 0 -1 0
63 0 1 0 17.192331057186983 6.802567664972655 11.096058839577564 -1 0 0
211 0 2 0 9.458032583932699 6.743761916852456 16.21933251819865 0 0 0
18 0 2 0 17.20042728792192 4.214319317623573 16.322419569776358 -1 0 0
303 0 1 0 12.049942635779516 17.224041715758926 11.031438094419665 0 -1 0
364 0 2 0 14.620704899118516 9.48542702785844 18.82012048108747 0 0 0
413 0 1 0 14.61442328549595 12.020132766690768 18.83407379277669 0 0 0
316 0 2 0 14.645753604813544 4.268562073298959 18.832497602486356 0 0 0
212 0 2 0 9.468122963064616 9.404948225994609 13.52176143639457 0 0 0
314 0 2 0 12.020495002348571 4.187006754195715 21.425440464054294 0 0 0
221 0 1 0 9.461752978102652 6.794297561249637 18.93138329627822 0 0 0
318 0 1 0 14.61282836146489 4.3505059765811325 21.396985299422365 0 0 0
367 0 1 0 12.065956411454286 6.799740357278539 21.545598366023665 0 0 0
122 0 2 0 17.211492429965354 14.73339013944115 21.54317522201476 -1 0 0
419 0 2 0 14.626244072055991 12.02784762823986 26.608536623626108 0 0 0
363 0 2 0 14.62276320377433 6.840117443103956 21.43182108410362 0 0 0
361 0 2 0 12.066126322379327 6.802441747078323 18.87195583062907 0 0 0
136 0 1 0 17.20400478283525 14.70186198210982 24.157448826603137 -1 0 0
362 0 2 0 12.062644769559327 9.383616280004485 21.454816824011786 0 0 0
220 0 2 0 9.43752725197402 9.454513884481335 18.859615415951666 0 0 0
325 0 1 0 14.662734199243888 1.677089664996327 24.069108688540332 0 0 0
423 0 1 0 12.003171392921322 12.078368722918182 26.63805786219709 0 0 0
366 0 1 0 14.630098743747851 9.469972094173361 21.417569986898897 0 0 0
424 0 1 0 11.942156362769959 14.692959056033361 24.04196950546511 0 0 0
415 0 1 0 12.015883709157587 11.955413694819542 21.48057582176677 0 0 0
418 0 2 0 11.957646244802142 14.747042929976374 26.664333756230935 0 0 0
411 0 2 0 14.59078489951691 12.049814659610652 21.4348246229983 0 0 0
319 0 1 0 12.034318512188166 17.240941844712307 21.51350372202193 0 -1 0
222 0 1 0 9.45045195122011 9.454005515982526 21.460958138233675 0 0 0
410 0 2 0 12.018633414275616 14.655303679602707 21.493918877254927 0 0 0
219 0 2 0 9.502392024845893 6.827457946314742 21.539397691683018 0 0 0
31 0 1 0 17.222335341256635 1.6661701299756906 21.524639183477138 -1 0 0
315 0 2 0 14.657068720602414 1.6456768646354696 21.400034279311637 0 0 0
79 0 1 0 17.219295481723464 6.854506258714515 21.51928191283749 -1 0 0
414 0 1 0 14.59123901716781 14.630293579883876 21.56156093388198 0 0 0
374 0 1 0 14.556709536453607 9.470232922273546 26.60350023967765 0 0 0
328 0 1 0 11.99217161316733 4.193845485078567 24.093194102046958 0 0 0
81 0 2 0 17.19116850839942 6.920715297816404 24.157376783283777 -1 0 0
88 0 1 0 17.154781605683304 9.562167396193814 24.08108704248653 -1 0 0
421 0 1 0 14.64070252251813 12.03950431272354 23.971962119275428 0 0 0
412 0 2 0 14.613709803544507 14.602051482499014 18.950805087588613 0 0 0
324 0 2 0 14.726648966304955 4.300202240190832 24.045890607441596 0 0 0
369 0 2 0 11.95663342301152 6.84806067238639 24.160834473731406 0 0 0
420 0 2 0 14.574947018476783 14.716638847793728 24.096203636146473 0 0 0
373 0 1 0 14.567371981237834 6.8527820799148325 24.086414306322443 0 0 0
417 0 2 0 11.990880764237502 12.09253357952695 24.031762982684164 0 0 0
321 0 2 0 12.007483011591626 1.6386154130146287 24.085415833726753 0 0 0
33 0 2 0 17.188876292921545 1.6588778917261928 24.168182863948054 -1 0 0
129 0 2 0 17.20036400156392 12.135770110626881 24.060562902157415 -1 0 0
376 0 1 0 11.921122551344066 9.433129742068068 24.066903421601328 0 0 0
372 0 2 0 14.556476840169847 9.469945784336016 23.958953020027675 0 0 0
416 0 1 0 12.029535921170151 14.595870901967857 18.94082975106094 0 0 0
74 0 2 0 17.216075569242026 9.460873560279303 21.458604995217335 -1 0 0
182 0 1 0 9.474335869268495 4.282236632296731 26.653892501472612 0 0 0
174 0 1 0 9.500983620341975 4.18372076830969 21.386463916681674 0 0 0
317 0 1 0 14.695020794590311 1.662002774202376 18.855973898631056 0 0 0
336 0 1 0 11.982195974831372 4.258486298236086 29.34587311833668 0 0 0
371 0 2 0 14.463161396874346 6.951894425303991 26.707779082188928 0 0 0
329 0 2 0 12.038723443553843 1.6963307876451588 29.336386500907928 0 0 0
332 0 2 0 14.569943799047916 4.293592965543722 29.260589820189953 0 0 0
135 0 1 0 17.184940776218745 12.077210645441804 26.72223253443415 -1 0 0
377 0 2 0 11.910461275024463 6.939127884517052 29.35436220302825 0 0 0
422 0 1 0 14.549090756954106 14.726623901780249 26.6883936124854 0 0 0
381 0 1 0 14.505184333122072 6.865244429022709 29.38193382979226 0 0 0
48 0 1 0 17.138826037509602 4.248849690849519 29.32897241329021 -1 0 0
431 0 1 0 11.962171502463187 12.076426632782448 31.85246562217561 0 0 0
384 0 1 0 12.024520880799415 9.522139780734324 29.352506868862857 0 0 0
380 0 2 0 14.629181978186631 9.465014363681703 29.33044436644678 0 0 0
89 0 2 0 17.146288334045853 6.8838840946687085 29.326182628944444 -1 0 0
95 0 1 0 17.154588262659814 6.898429148706679 31.955547769355405 -1 0 0
245 0 1 0 9.583343723372778 11.952187002410284 34.381097784925714 0 0 -1
425 0 2 0 12.05413236862535 12.128470550121111 29.27304806020634 0 0 0
430 0 1 0 14.681409719302472 14.610735006022201 31.948532706816987 0 0 0
429 0 1 0 14.637695629072134 12.075601674861362 29.309451703699235 0 0 0
382 0 1 0 14.575547008342005 9.381640226682942 31.891807837821684 0 0 0
323 0 2 0 14.629255652645716 1.675504193684913 26.739754925769322 0 0 0
322 0 2 0 12.056566621379574 4.318943253416254 26.78007634841208 0 0 0
378 0 2 0 11.975241384784745 9.427953797335181 31.878289007095894 0 0 0
370 0 2 0 11.987099298320473 9.499865014557727 26.72399956465208 0 0 0
189 0 1 0 9.433864509658957 1.6471370116882906 29.240062143520543 0 0 0
432 0 1 0 12.00874297024046 14.730672092140622 29.340134699567834 0 0 0
383 0 1 0 11.891375054403955 6.7957099130122804 31.942355205662643 0 0 0
427 0 2 0 14.62126560248808 12.006462119353115 31.943700634803495 0 0 0
333 0 1 0 14.668563312944 1.6250286624532146 29.371778754975217 0 0 0
428 0 2 0 14.63835516387366 14.599105427365224 29.310894851952224 0 0 0
187 0 2 0 9.456630319636144 17.20174735588699 31.847818705806365 0 -1 0
334 0 1 0 14.665701037747276 4.186593448135364 31.888926362675303 0 0 0
327 0 1 0 12.01934762689573 1.736841423888329 26.70279103093147 0 0 0
335 0 1 0 12.096092860862669 17.240654972456714 31.94223792462447 0 -1 0
330 0 2 0 12.04177068962474 4.17999723915714 31.978846825736365 0 0 0
426 0 2 0 12.07109295254711 14.609782203641586 31.992017041995993 0 0 0
379 0 2 0 14.541381409617346 6.81452008266443 31.921017870637485 0 0 0
331 0 2 0 14.655884557982318 1.6064673547756971 31.980332065933823 0 0 0
96 0 1 0 17.177118363384643 9.492465396194598 29.280006993613604 -1 0 0
34 0 2 0 17.192502720560583 4.251355893278088 26.791633425396196 -1 0 0
137 0 2 0 17.185335349669927 12.031576551011202 29.36119598541951 -1 0 0