LiKCl-chgnet/0.80x-LiKCl-chgnet/initial-solid.data (written by ASE) 

1536 	 atoms 
3  atom types
0.0      24.432000000000002  xlo xhi
0.0      24.432000000000002  ylo yhi
0.0      73.296000000000006  zlo zhi


Masses

1 35.45
2 39.0983
3 6.94


Atoms 

     1   0   2   1.0                       0                       0                       0
     2   0   2   1.0  2.3827493073357323e-32      3.0540000000000007      3.0539999999999998
     3   0   2   1.0      3.0540000000000007                       0      3.0539999999999998
     4   0   2   1.0      3.0540000000000007      3.0540000000000007 -4.3344366853422065e-32
     5   0   1  -1.0      3.0540000000000007                       0 -2.1672183426711032e-32
     6   0   1  -1.0      3.0540000000000007      3.0540000000000007      3.0539999999999998
     7   0   1  -1.0                       0                       0      3.0539999999999998
     8   0   1  -1.0  2.3827493073357323e-32      3.0540000000000007  7.8520960407518398e-33
     9   0   2   1.0                       0                       0      6.1079999999999997
    10   0   2   1.0  2.3827493073357323e-32      3.0540000000000007      9.1620000000000008
    11   0   2   1.0      3.0540000000000007                       0      9.1620000000000008
    12   0   3   1.0      3.0540000000000007      3.0540000000000007      6.1079999999999997
    13   0   1  -1.0      3.0540000000000007                       0      6.1079999999999997
    14   0   1  -1.0      3.0540000000000007      3.0540000000000007      9.1620000000000008
    15   0   1  -1.0                       0                       0      9.1620000000000008
    16   0   1  -1.0  2.3827493073357323e-32      3.0540000000000007      6.1079999999999997
    17   0   2   1.0                       0                       0      12.215999999999999
    18   0   2   1.0  2.3827493073357323e-32      3.0540000000000007      15.270000000000001
    19   0   2   1.0      3.0540000000000007                       0      15.270000000000001
    20   0   2   1.0      3.0540000000000007      3.0540000000000007      12.215999999999999
    21   0   1  -1.0      3.0540000000000007                       0      12.215999999999999
    22   0   1  -1.0      3.0540000000000007      3.0540000000000007      15.270000000000001
    23   0   1  -1.0                       0                       0      15.270000000000001
    24   0   1  -1.0  2.3827493073357323e-32      3.0540000000000007      12.215999999999999
    25   0   3   1.0                       0                       0      18.324000000000002
    26   0   2   1.0  2.3827493073357323e-32      3.0540000000000007                  21.378
    27   0   3   1.0      3.0540000000000007                       0                  21.378
    28   0   2   1.0      3.0540000000000007      3.0540000000000007      18.324000000000002
    29   0   1  -1.0      3.0540000000000007                       0      18.324000000000002
    30   0   1  -1.0      3.0540000000000007      3.0540000000000007                  21.378
    31   0   1  -1.0                       0                       0                  21.378
    32   0   1  -1.0  2.3827493073357323e-32      3.0540000000000007      18.324000000000002
    33   0   2   1.0                       0                       0      24.431999999999999
    34   0   2   1.0  2.3827493073357323e-32      3.0540000000000007      27.486000000000001
    35   0   2   1.0      3.0540000000000007                       0      27.486000000000001
    36   0   2   1.0      3.0540000000000007      3.0540000000000007      24.431999999999999
    37   0   1  -1.0      3.0540000000000007                       0      24.431999999999999
    38   0   1  -1.0      3.0540000000000007      3.0540000000000007      27.486000000000001
    39   0   1  -1.0                       0                       0      27.486000000000001
    40   0   1  -1.0  2.3827493073357323e-32      3.0540000000000007      24.431999999999999
    41   0   2   1.0                       0                       0      30.540000000000003
    42   0   2   1.0  2.3827493073357323e-32      3.0540000000000007      33.594000000000001
    43   0   2   1.0      3.0540000000000007                       0      33.594000000000001
    44   0   2   1.0      3.0540000000000007      3.0540000000000007      30.540000000000003
    45   0   1  -1.0      3.0540000000000007                       0      30.540000000000003
    46   0   1  -1.0      3.0540000000000007      3.0540000000000007      33.594000000000001
    47   0   1  -1.0                       0                       0      33.594000000000001
    48   0   1  -1.0  2.3827493073357323e-32      3.0540000000000007      30.540000000000003
    49   0   3   1.0                       0                       0      36.648000000000003
    50   0   2   1.0  2.3827493073357323e-32      3.0540000000000007      39.701999999999998
    51   0   2   1.0      3.0540000000000007                       0      39.701999999999998
    52   0   2   1.0      3.0540000000000007      3.0540000000000007      36.648000000000003
    53   0   1  -1.0      3.0540000000000007                       0      36.648000000000003
    54   0   1  -1.0      3.0540000000000007      3.0540000000000007      39.701999999999998
    55   0   1  -1.0                       0                       0      39.701999999999998
    56   0   1  -1.0  2.3827493073357323e-32      3.0540000000000007      36.648000000000003
    57   0   2   1.0                       0                       0                  42.756
    58   0   2   1.0  2.3827493073357323e-32      3.0540000000000007      45.809999999999995
    59   0   2   1.0      3.0540000000000007                       0      45.809999999999995
    60   0   3   1.0      3.0540000000000007      3.0540000000000007                  42.756
    61   0   1  -1.0      3.0540000000000007                       0                  42.756
    62   0   1  -1.0      3.0540000000000007      3.0540000000000007      45.809999999999995
    63   0   1  -1.0                       0                       0      45.809999999999995
    64   0   1  -1.0  2.3827493073357323e-32      3.0540000000000007                  42.756
    65   0   2   1.0                       0                       0      48.863999999999997
    66   0   2   1.0  2.3827493073357323e-32      3.0540000000000007      51.917999999999999
    67   0   2   1.0      3.0540000000000007                       0      51.917999999999999
    68   0   2   1.0      3.0540000000000007      3.0540000000000007      48.863999999999997
    69   0   1  -1.0      3.0540000000000007                       0      48.863999999999997
    70   0   1  -1.0      3.0540000000000007      3.0540000000000007      51.917999999999999
    71   0   1  -1.0                       0                       0      51.917999999999999
    72   0   1  -1.0  2.3827493073357323e-32      3.0540000000000007      48.863999999999997
    73   0   2   1.0                       0                       0      54.972000000000001
    74   0   2   1.0  2.3827493073357323e-32      3.0540000000000007      58.025999999999996
    75   0   2   1.0      3.0540000000000007                       0      58.025999999999996
    76   0   2   1.0      3.0540000000000007      3.0540000000000007      54.972000000000001
    77   0   1  -1.0      3.0540000000000007                       0      54.972000000000001
    78   0   1  -1.0      3.0540000000000007      3.0540000000000007      58.025999999999996
    79   0   1  -1.0                       0                       0      58.025999999999996
    80   0   1  -1.0  2.3827493073357323e-32      3.0540000000000007      54.972000000000001
    81   0   2   1.0                       0                       0      61.080000000000005
    82   0   2   1.0  2.3827493073357323e-32      3.0540000000000007                  64.134
    83   0   2   1.0      3.0540000000000007                       0                  64.134
    84   0   2   1.0      3.0540000000000007      3.0540000000000007      61.080000000000005
    85   0   1  -1.0      3.0540000000000007                       0      61.080000000000005
    86   0   1  -1.0      3.0540000000000007      3.0540000000000007                  64.134
    87   0   1  -1.0                       0                       0                  64.134
    88   0   1  -1.0  2.3827493073357323e-32      3.0540000000000007      61.080000000000005
    89   0   2   1.0                       0                       0      67.188000000000002
    90   0   3   1.0  2.3827493073357323e-32      3.0540000000000007       70.24199999999999
    91   0   2   1.0      3.0540000000000007                       0       70.24199999999999
    92   0   2   1.0      3.0540000000000007      3.0540000000000007      67.188000000000002
    93   0   1  -1.0      3.0540000000000007                       0      67.188000000000002
    94   0   1  -1.0      3.0540000000000007      3.0540000000000007       70.24199999999999
    95   0   1  -1.0                       0                       0       70.24199999999999
    96   0   1  -1.0  2.3827493073357323e-32      3.0540000000000007      67.188000000000002
    97   0   2   1.0                       0      6.1080000000000014                       0
    98   0   2   1.0  2.3827493073357323e-32      9.1620000000000026      3.0539999999999998
    99   0   3   1.0      3.0540000000000007      6.1080000000000014      3.0539999999999998
   100   0   2   1.0      3.0540000000000007      9.1620000000000026 -4.3344366853422065e-32
   101   0   1  -1.0      3.0540000000000007      6.1080000000000014 -2.1672183426711032e-32
   102   0   1  -1.0      3.0540000000000007      9.1620000000000026      3.0539999999999998
   103   0   1  -1.0                       0      6.1080000000000014      3.0539999999999998
   104   0   1  -1.0  2.3827493073357323e-32      9.1620000000000026  7.8520960407518398e-33
   105   0   2   1.0                       0      6.1080000000000014      6.1079999999999997
   106   0   2   1.0  2.3827493073357323e-32      9.1620000000000026      9.1620000000000008
   107   0   2   1.0      3.0540000000000007      6.1080000000000014      9.1620000000000008
   108   0   2   1.0      3.0540000000000007      9.1620000000000026      6.1079999999999997
   109   0   1  -1.0      3.0540000000000007      6.1080000000000014      6.1079999999999997
   110   0   1  -1.0      3.0540000000000007      9.1620000000000026      9.1620000000000008
   111   0   1  -1.0                       0      6.1080000000000014      9.1620000000000008
   112   0   1  -1.0  2.3827493073357323e-32      9.1620000000000026      6.1079999999999997
   113   0   3   1.0                       0      6.1080000000000014      12.215999999999999
   114   0   2   1.0  2.3827493073357323e-32      9.1620000000000026      15.270000000000001
   115   0   3   1.0      3.0540000000000007      6.1080000000000014      15.270000000000001
   116   0   2   1.0      3.0540000000000007      9.1620000000000026      12.215999999999999
   117   0   1  -1.0      3.0540000000000007      6.1080000000000014      12.215999999999999
   118   0   1  -1.0      3.0540000000000007      9.1620000000000026      15.270000000000001
   119   0   1  -1.0                       0      6.1080000000000014      15.270000000000001
   120   0   1  -1.0  2.3827493073357323e-32      9.1620000000000026      12.215999999999999
   121   0   2   1.0                       0      6.1080000000000014      18.324000000000002
   122   0   2   1.0  2.3827493073357323e-32      9.1620000000000026                  21.378
   123   0   2   1.0      3.0540000000000007      6.1080000000000014                  21.378
   124   0   3   1.0      3.0540000000000007      9.1620000000000026      18.324000000000002
   125   0   1  -1.0      3.0540000000000007      6.1080000000000014      18.324000000000002
   126   0   1  -1.0      3.0540000000000007      9.1620000000000026                  21.378
   127   0   1  -1.0                       0      6.1080000000000014                  21.378
   128   0   1  -1.0  2.3827493073357323e-32      9.1620000000000026      18.324000000000002
   129   0   2   1.0                       0      6.1080000000000014      24.431999999999999
   130   0   2   1.0  2.3827493073357323e-32      9.1620000000000026      27.486000000000001
   131   0   2   1.0      3.0540000000000007      6.1080000000000014      27.486000000000001
   132   0   2   1.0      3.0540000000000007      9.1620000000000026      24.431999999999999
   133   0   1  -1.0      3.0540000000000007      6.1080000000000014      24.431999999999999
   134   0   1  -1.0      3.0540000000000007      9.1620000000000026      27.486000000000001
   135   0   1  -1.0                       0      6.1080000000000014      27.486000000000001
   136   0   1  -1.0  2.3827493073357323e-32      9.1620000000000026      24.431999999999999
   137   0   2   1.0                       0      6.1080000000000014      30.540000000000003
   138   0   2   1.0  2.3827493073357323e-32      9.1620000000000026      33.594000000000001
   139   0   2   1.0      3.0540000000000007      6.1080000000000014      33.594000000000001
   140   0   2   1.0      3.0540000000000007      9.1620000000000026      30.540000000000003
   141   0   1  -1.0      3.0540000000000007      6.1080000000000014      30.540000000000003
   142   0   1  -1.0      3.0540000000000007      9.1620000000000026      33.594000000000001
   143   0   1  -1.0                       0      6.1080000000000014      33.594000000000001
   144   0   1  -1.0  2.3827493073357323e-32      9.1620000000000026      30.540000000000003
   145   0   2   1.0                       0      6.1080000000000014      36.648000000000003
   146   0   2   1.0  2.3827493073357323e-32      9.1620000000000026      39.701999999999998
   147   0   2   1.0      3.0540000000000007      6.1080000000000014      39.701999999999998
   148   0   2   1.0      3.0540000000000007      9.1620000000000026      36.648000000000003
   149   0   1  -1.0      3.0540000000000007      6.1080000000000014      36.648000000000003
   150   0   1  -1.0      3.0540000000000007      9.1620000000000026      39.701999999999998
   151   0   1  -1.0                       0      6.1080000000000014      39.701999999999998
   152   0   1  -1.0  2.3827493073357323e-32      9.1620000000000026      36.648000000000003
   153   0   2   1.0                       0      6.1080000000000014                  42.756
   154   0   2   1.0  2.3827493073357323e-32      9.1620000000000026      45.809999999999995
   155   0   2   1.0      3.0540000000000007      6.1080000000000014      45.809999999999995
   156   0   2   1.0      3.0540000000000007      9.1620000000000026                  42.756
   157   0   1  -1.0      3.0540000000000007      6.1080000000000014                  42.756
   158   0   1  -1.0      3.0540000000000007      9.1620000000000026      45.809999999999995
   159   0   1  -1.0                       0      6.1080000000000014      45.809999999999995
   160   0   1  -1.0  2.3827493073357323e-32      9.1620000000000026                  42.756
   161   0   3   1.0                       0      6.1080000000000014      48.863999999999997
   162   0   2   1.0  2.3827493073357323e-32      9.1620000000000026      51.917999999999999
   163   0   2   1.0      3.0540000000000007      6.1080000000000014      51.917999999999999
   164   0   3   1.0      3.0540000000000007      9.1620000000000026      48.863999999999997
   165   0   1  -1.0      3.0540000000000007      6.1080000000000014      48.863999999999997
   166   0   1  -1.0      3.0540000000000007      9.1620000000000026      51.917999999999999
   167   0   1  -1.0                       0      6.1080000000000014      51.917999999999999
   168   0   1  -1.0  2.3827493073357323e-32      9.1620000000000026      48.863999999999997
   169   0   2   1.0                       0      6.1080000000000014      54.972000000000001
   170   0   2   1.0  2.3827493073357323e-32      9.1620000000000026      58.025999999999996
   171   0   3   1.0      3.0540000000000007      6.1080000000000014      58.025999999999996
   172   0   2   1.0      3.0540000000000007      9.1620000000000026      54.972000000000001
   173   0   1  -1.0      3.0540000000000007      6.1080000000000014      54.972000000000001
   174   0   1  -1.0      3.0540000000000007      9.1620000000000026      58.025999999999996
   175   0   1  -1.0                       0      6.1080000000000014      58.025999999999996
   176   0   1  -1.0  2.3827493073357323e-32      9.1620000000000026      54.972000000000001
   177   0   3   1.0                       0      6.1080000000000014      61.080000000000005
   178   0   2   1.0  2.3827493073357323e-32      9.1620000000000026                  64.134
   179   0   3   1.0      3.0540000000000007      6.1080000000000014                  64.134
   180   0   2   1.0      3.0540000000000007      9.1620000000000026      61.080000000000005
   181   0   1  -1.0      3.0540000000000007      6.1080000000000014      61.080000000000005
   182   0   1  -1.0      3.0540000000000007      9.1620000000000026                  64.134
   183   0   1  -1.0                       0      6.1080000000000014                  64.134
   184   0   1  -1.0  2.3827493073357323e-32      9.1620000000000026      61.080000000000005
   185   0   2   1.0                       0      6.1080000000000014      67.188000000000002
   186   0   2   1.0  2.3827493073357323e-32      9.1620000000000026       70.24199999999999
   187   0   2   1.0      3.0540000000000007      6.1080000000000014       70.24199999999999
   188   0   2   1.0      3.0540000000000007      9.1620000000000026      67.188000000000002
   189   0   1  -1.0      3.0540000000000007      6.1080000000000014      67.188000000000002
   190   0   1  -1.0      3.0540000000000007      9.1620000000000026       70.24199999999999
   191   0   1  -1.0                       0      6.1080000000000014       70.24199999999999
   192   0   1  -1.0  2.3827493073357323e-32      9.1620000000000026      67.188000000000002
   193   0   2   1.0                       0      12.216000000000003                       0
   194   0   3   1.0  2.3827493073357323e-32      15.270000000000005      3.0539999999999998
   195   0   2   1.0      3.0540000000000007      12.216000000000003      3.0539999999999998
   196   0   3   1.0      3.0540000000000007      15.270000000000005 -4.3344366853422065e-32
   197   0   1  -1.0      3.0540000000000007      12.216000000000003 -2.1672183426711032e-32
   198   0   1  -1.0      3.0540000000000007      15.270000000000005      3.0539999999999998
   199   0   1  -1.0                       0      12.216000000000003      3.0539999999999998
   200   0   1  -1.0  2.3827493073357323e-32      15.270000000000005  7.8520960407518398e-33
   201   0   2   1.0                       0      12.216000000000003      6.1079999999999997
   202   0   2   1.0  2.3827493073357323e-32      15.270000000000005      9.1620000000000008
   203   0   2   1.0      3.0540000000000007      12.216000000000003      9.1620000000000008
   204   0   2   1.0      3.0540000000000007      15.270000000000005      6.1079999999999997
   205   0   1  -1.0      3.0540000000000007      12.216000000000003      6.1079999999999997
   206   0   1  -1.0      3.0540000000000007      15.270000000000005      9.1620000000000008
   207   0   1  -1.0                       0      12.216000000000003      9.1620000000000008
   208   0   1  -1.0  2.3827493073357323e-32      15.270000000000005      6.1079999999999997
   209   0   2   1.0                       0      12.216000000000003      12.215999999999999
   210   0   2   1.0  2.3827493073357323e-32      15.270000000000005      15.270000000000001
   211   0   2   1.0      3.0540000000000007      12.216000000000003      15.270000000000001
   212   0   2   1.0      3.0540000000000007      15.270000000000005      12.215999999999999
   213   0   1  -1.0      3.0540000000000007      12.216000000000003      12.215999999999999
   214   0   1  -1.0      3.0540000000000007      15.270000000000005      15.270000000000001
   215   0   1  -1.0                       0      12.216000000000003      15.270000000000001
   216   0   1  -1.0  2.3827493073357323e-32      15.270000000000005      12.215999999999999
   217   0   2   1.0                       0      12.216000000000003      18.324000000000002
   218   0   2   1.0  2.3827493073357323e-32      15.270000000000005                  21.378
   219   0   2   1.0      3.0540000000000007      12.216000000000003                  21.378
   220   0   2   1.0      3.0540000000000007      15.270000000000005      18.324000000000002
   221   0   1  -1.0      3.0540000000000007      12.216000000000003      18.324000000000002
   222   0   1  -1.0      3.0540000000000007      15.270000000000005                  21.378
   223   0   1  -1.0                       0      12.216000000000003                  21.378
   224   0   1  -1.0  2.3827493073357323e-32      15.270000000000005      18.324000000000002
   225   0   2   1.0                       0      12.216000000000003      24.431999999999999
   226   0   2   1.0  2.3827493073357323e-32      15.270000000000005      27.486000000000001
   227   0   2   1.0      3.0540000000000007      12.216000000000003      27.486000000000001
   228   0   2   1.0      3.0540000000000007      15.270000000000005      24.431999999999999
   229   0   1  -1.0      3.0540000000000007      12.216000000000003      24.431999999999999
   230   0   1  -1.0      3.0540000000000007      15.270000000000005      27.486000000000001
   231   0   1  -1.0                       0      12.216000000000003      27.486000000000001
   232   0   1  -1.0  2.3827493073357323e-32      15.270000000000005      24.431999999999999
   233   0   2   1.0                       0      12.216000000000003      30.540000000000003
   234   0   2   1.0  2.3827493073357323e-32      15.270000000000005      33.594000000000001
   235   0   3   1.0      3.0540000000000007      12.216000000000003      33.594000000000001
   236   0   2   1.0      3.0540000000000007      15.270000000000005      30.540000000000003
   237   0   1  -1.0      3.0540000000000007      12.216000000000003      30.540000000000003
   238   0   1  -1.0      3.0540000000000007      15.270000000000005      33.594000000000001
   239   0   1  -1.0                       0      12.216000000000003      33.594000000000001
   240   0   1  -1.0  2.3827493073357323e-32      15.270000000000005      30.540000000000003
   241   0   2   1.0                       0      12.216000000000003      36.648000000000003
   242   0   2   1.0  2.3827493073357323e-32      15.270000000000005      39.701999999999998
   243   0   2   1.0      3.0540000000000007      12.216000000000003      39.701999999999998
   244   0   3   1.0      3.0540000000000007      15.270000000000005      36.648000000000003
   245   0   1  -1.0      3.0540000000000007      12.216000000000003      36.648000000000003
   246   0   1  -1.0      3.0540000000000007      15.270000000000005      39.701999999999998
   247   0   1  -1.0                       0      12.216000000000003      39.701999999999998
   248   0   1  -1.0  2.3827493073357323e-32      15.270000000000005      36.648000000000003
   249   0   2   1.0                       0      12.216000000000003                  42.756
   250   0   2   1.0  2.3827493073357323e-32      15.270000000000005      45.809999999999995
   251   0   3   1.0      3.0540000000000007      12.216000000000003      45.809999999999995
   252   0   2   1.0      3.0540000000000007      15.270000000000005                  42.756
   253   0   1  -1.0      3.0540000000000007      12.216000000000003                  42.756
   254   0   1  -1.0      3.0540000000000007      15.270000000000005      45.809999999999995
   255   0   1  -1.0                       0      12.216000000000003      45.809999999999995
   256   0   1  -1.0  2.3827493073357323e-32      15.270000000000005                  42.756
   257   0   2   1.0                       0      12.216000000000003      48.863999999999997
   258   0   3   1.0  2.3827493073357323e-32      15.270000000000005      51.917999999999999
   259   0   2   1.0      3.0540000000000007      12.216000000000003      51.917999999999999
   260   0   3   1.0      3.0540000000000007      15.270000000000005      48.863999999999997
   261   0   1  -1.0      3.0540000000000007      12.216000000000003      48.863999999999997
   262   0   1  -1.0      3.0540000000000007      15.270000000000005      51.917999999999999
   263   0   1  -1.0                       0      12.216000000000003      51.917999999999999
   264   0   1  -1.0  2.3827493073357323e-32      15.270000000000005      48.863999999999997
   265   0   3   1.0                       0      12.216000000000003      54.972000000000001
   266   0   2   1.0  2.3827493073357323e-32      15.270000000000005      58.025999999999996
   267   0   2   1.0      3.0540000000000007      12.216000000000003      58.025999999999996
   268   0   3   1.0      3.0540000000000007      15.270000000000005      54.972000000000001
   269   0   1  -1.0      3.0540000000000007      12.216000000000003      54.972000000000001
   270   0   1  -1.0      3.0540000000000007      15.270000000000005      58.025999999999996
   271   0   1  -1.0                       0      12.216000000000003      58.025999999999996
   272   0   1  -1.0  2.3827493073357323e-32      15.270000000000005      54.972000000000001
   273   0   2   1.0                       0      12.216000000000003      61.080000000000005
   274   0   2   1.0  2.3827493073357323e-32      15.270000000000005                  64.134
   275   0   2   1.0      3.0540000000000007      12.216000000000003                  64.134
   276   0   2   1.0      3.0540000000000007      15.270000000000005      61.080000000000005
   277   0   1  -1.0      3.0540000000000007      12.216000000000003      61.080000000000005
   278   0   1  -1.0      3.0540000000000007      15.270000000000005                  64.134
   279   0   1  -1.0                       0      12.216000000000003                  64.134
   280   0   1  -1.0  2.3827493073357323e-32      15.270000000000005      61.080000000000005
   281   0   2   1.0                       0      12.216000000000003      67.188000000000002
   282   0   2   1.0  2.3827493073357323e-32      15.270000000000005       70.24199999999999
   283   0   2   1.0      3.0540000000000007      12.216000000000003       70.24199999999999
   284   0   2   1.0      3.0540000000000007      15.270000000000005      67.188000000000002
   285   0   1  -1.0      3.0540000000000007      12.216000000000003      67.188000000000002
   286   0   1  -1.0      3.0540000000000007      15.270000000000005       70.24199999999999
   287   0   1  -1.0                       0      12.216000000000003       70.24199999999999
   288   0   1  -1.0  2.3827493073357323e-32      15.270000000000005      67.188000000000002
   289   0   2   1.0                       0      18.324000000000005                       0
   290   0   2   1.0  2.3827493073357323e-32      21.378000000000004      3.0539999999999998
   291   0   2   1.0      3.0540000000000007      18.324000000000005      3.0539999999999998
   292   0   2   1.0      3.0540000000000007      21.378000000000004 -4.3344366853422065e-32
   293   0   1  -1.0      3.0540000000000007      18.324000000000005 -2.1672183426711032e-32
   294   0   1  -1.0      3.0540000000000007      21.378000000000004      3.0539999999999998
   295   0   1  -1.0                       0      18.324000000000005      3.0539999999999998
   296   0   1  -1.0  2.3827493073357323e-32      21.378000000000004  7.8520960407518398e-33
   297   0   2   1.0                       0      18.324000000000005      6.1079999999999997
   298   0   2   1.0  2.3827493073357323e-32      21.378000000000004      9.1620000000000008
   299   0   2   1.0      3.0540000000000007      18.324000000000005      9.1620000000000008
   300   0   2   1.0      3.0540000000000007      21.378000000000004      6.1079999999999997
   301   0   1  -1.0      3.0540000000000007      18.324000000000005      6.1079999999999997
   302   0   1  -1.0      3.0540000000000007      21.378000000000004      9.1620000000000008
   303   0   1  -1.0                       0      18.324000000000005      9.1620000000000008
   304   0   1  -1.0  2.3827493073357323e-32      21.378000000000004      6.1079999999999997
   305   0   2   1.0                       0      18.324000000000005      12.215999999999999
   306   0   2   1.0  2.3827493073357323e-32      21.378000000000004      15.270000000000001
   307   0   2   1.0      3.0540000000000007      18.324000000000005      15.270000000000001
   308   0   3   1.0      3.0540000000000007      21.378000000000004      12.215999999999999
   309   0   1  -1.0      3.0540000000000007      18.324000000000005      12.215999999999999
   310   0   1  -1.0      3.0540000000000007      21.378000000000004      15.270000000000001
   311   0   1  -1.0                       0      18.324000000000005      15.270000000000001
   312   0   1  -1.0  2.3827493073357323e-32      21.378000000000004      12.215999999999999
   313   0   2   1.0                       0      18.324000000000005      18.324000000000002
   314   0   2   1.0  2.3827493073357323e-32      21.378000000000004                  21.378
   315   0   3   1.0      3.0540000000000007      18.324000000000005                  21.378
   316   0   2   1.0      3.0540000000000007      21.378000000000004      18.324000000000002
   317   0   1  -1.0      3.0540000000000007      18.324000000000005      18.324000000000002
   318   0   1  -1.0      3.0540000000000007      21.378000000000004                  21.378
   319   0   1  -1.0                       0      18.324000000000005                  21.378