LAMMPS data file via write_data, version 2 Aug 2023, timestep = 50000, units = metal

1536 atoms
2 atom types

-0.6003024034862783 25.73527280350389 xlo xhi
-0.6525257878120883 25.787496187829873 ylo yhi
-5.042835715316599 80.44774691537009 zlo zhi

Masses

1 35.45
2 39.0983

Atoms # full

960 0 1 -1 1.6440738986927959 -0.1423618137774032 -4.855884310360017 0 0 1
481 0 2 1 4.9054809470921885 2.4398749114842357 -2.6505942993753586 0 0 0
485 0 1 -1 8.252975397524034 2.3773450379665806 -2.276151511311514 0 0 0
388 0 2 1 9.101636393418591 -0.30540960198130207 -2.683780928165144 0 0 0
865 0 2 1 12.122021335987842 2.381173319005855 -1.9256710168020414 0 0 0
776 0 1 -1 12.090355632819923 -0.3564563819023444 -3.0321758185554595 0 0 0
772 0 2 1 15.242921856985376 0.46083583252368365 -3.6431017544411244 0 0 0
1152 0 1 -1 17.548326921037162 2.300883739923031 -4.95756030411743 0 1 1
1156 0 2 1 22.038066604103953 -0.557614657925898 -2.489884692253689 0 0 0
1253 0 1 -1 21.776358770531655 2.5117924630637543 -2.2532125424682086 0 0 0
101 0 1 -1 1.403652875937765 2.664394757826166 -2.3951558257072714 0 0 0
100 0 2 1 1.9400711446957803 5.953088564324612 -1.922202511593519 0 0 0
484 0 2 1 8.595105671073716 5.509973803084503 -2.234430437844188 0 0 0
872 0 1 -1 11.83362424215765 5.878819759465407 -2.2958767950766035 0 0 0
869 0 1 -1 15.233759166900292 2.7767004772995674 -1.8947268758156706 0 0 0
1256 0 1 -1 18.397278201410177 5.893109999159896 -1.8819746126727437 0 0 0
104 0 1 -1 24.1460242206363 5.9394328404962025 -1.9790985673184518 -1 0 0
274 0 2 1 24.682669809593044 5.458694784895917 -4.801773360869738 -1 0 1
488 0 1 -1 5.273995020506054 6.066170847916178 -2.124117023728934 0 0 0
581 0 1 -1 8.720041876211612 9.239361409105577 -2.6200976413847306 0 0 0
961 0 2 1 12.21377134005307 8.827402496037775 -2.150831840838782 0 0 0
868 0 2 1 15.608220062543488 6.018074350529903 -2.5314652645008375 0 0 0
1252 0 2 1 21.405744883854574 6.397613912142469 -1.950095738114388 0 0 0
1349 0 1 -1 21.379307955073745 9.175901251941047 -1.9137305948782064 0 0 0
193 0 2 1 25.511147964062864 9.210084744947425 -2.704187741835758 -1 0 0
196 0 2 1 2.1048784079271017 12.422959128641772 -2.295624814139857 0 0 0
577 0 2 1 5.473106961179462 9.783249879176772 -2.551467980158424 0 0 0
580 0 2 1 8.416940459367236 12.460578383588727 -2.32324518762869 0 0 0
965 0 1 -1 15.30968845234119 9.277054036581552 -2.989736454835112 0 0 0
1345 0 2 1 18.29964167024044 9.771887790114626 -2.2187998644312676 0 0 0
1348 0 2 1 22.00735121749416 12.302173017691324 -2.5037732057195528 0 0 0
200 0 1 -1 25.32359654413086 12.132300596426996 -2.510296048861737 -1 0 0
293 0 1 -1 1.6899361604694563 15.703485920534643 -2.4382722071257974 0 0 0
584 0 1 -1 4.879471089852528 12.95295391259833 -2.410401502697951 0 0 0
677 0 1 -1 9.095035384326733 15.818160444499018 -2.5270915684091033 0 0 0
1057 0 2 1 12.391678843395315 15.348411265429512 -2.2673530677090166 0 0 0
964 0 2 1 14.466269406432819 12.57818251383689 -2.485602193055727 0 0 0
1441 0 2 1 18.930254734506317 15.83771075698218 -2.5967789436846624 0 0 0
1061 0 1 -1 15.94670680362768 14.973170095935751 -2.7067824695467015 0 0 0
1352 0 1 -1 19.2414218608872 12.744913199266945 -2.8175601232179854 0 0 0
292 0 2 1 1.7159726607097507 19.161566259520555 -2.7540687758492757 0 0 0
673 0 2 1 4.9164891933552335 15.97567686911719 -2.1966658706268563 0 0 0
676 0 2 1 8.311403968743214 18.96247732998485 -2.394762472782572 0 0 0
1064 0 1 -1 12.391383229968044 18.2131279493988 -2.101679117472248 0 0 0
860 0 2 1 11.994519480947215 19.16101588492928 -4.774389548295784 0 -1 1
1060 0 2 1 15.508215632973453 17.94290164753722 -2.781894803049343 0 0 0
1448 0 1 -1 18.649323066884953 18.926327574444898 -3.212732308195731 0 0 0
1445 0 1 -1 21.826623694082134 15.90751343237023 -2.3805706583072586 0 0 0
289 0 2 1 25.221960775586712 16.167831747367895 -3.0082700879574085 -1 0 0
296 0 1 -1 24.9950816413972 19.108324846667152 -3.0920360840551844 -1 0 0
5 0 1 -1 1.9920917934990774 22.301590974116728 -3.228923796279453 0 -1 0
680 0 1 -1 5.005939351325661 19.28635169079818 -2.6618340819650275 0 0 0
773 0 1 -1 15.124580302893659 21.94257676147725 -2.594468229735743 0 -1 0
1444 0 2 1 21.733981586783166 19.45740510491541 -3.0632099441619802 0 0 0
1157 0 1 -1 22.08448410478166 22.442065978761878 -2.852756521397281 0 -1 0
1 0 2 1 25.0743325700505 22.173193727430803 -3.2332225806992336 -1 -1 0
4 0 2 1 1.617764782684826 25.21040346133242 -2.1941672064658455 0 -1 0
392 0 1 -1 5.221441110995682 25.306350302207008 -1.9658824407836257 0 -1 0
385 0 2 1 4.868993437655224 22.564760451898106 -2.481245659110231 0 -1 0
389 0 1 -1 9.080568316849115 22.841786660899277 -3.0404960065320674 0 -1 0
769 0 2 1 12.297184338579113 23.2636854442797 -2.3037932245887363 0 -1 0
1160 0 1 -1 18.171509540407655 25.746616730570196 -2.2849788751027797 0 -1 0
1153 0 2 1 17.880646925993588 23.163689910585898 -2.636644931400231 0 -1 0
8 0 1 -1 24.862344561450364 25.570587289245374 -2.229673792817794 -1 -1 0
483 0 2 1 8.875282761649972 2.52402064768919 0.7626251296882209 0 0 0
871 0 1 -1 11.935621164864585 2.467837302739499 1.2122725405333652 0 0 0
867 0 2 1 15.676699679863102 2.5012218491483456 1.162939195060054 0 0 0
1249 0 2 1 18.305340023418687 2.600813087849585 -1.8120254337556734 0 0 0
1255 0 1 -1 18.890698128176897 2.1915387355376517 0.7922272926972305 0 0 0
1158 0 1 -1 21.491482525707262 -0.3632163418028686 1.17658038060718 0 0 0
1251 0 2 1 21.93917546330871 2.591318264466009 1.0104517494140746 0 0 0
97 0 2 1 25.028526092861814 2.3468556727537604 -1.668225322524382 -1 0 0
99 0 2 1 1.645592338069524 2.7364211121711803 0.8645021082714148 0 0 0
102 0 1 -1 1.8730570363429022 5.795642095653815 0.8618567702629552 0 0 0
487 0 1 -1 5.263290444243104 3.000958273919996 0.8411152443741461 0 0 0
482 0 2 1 5.716342571548783 5.824947852851982 0.7860730716851068 0 0 0
866 0 2 1 12.052589387013882 5.787507860161374 1.137678567762129 0 0 0
870 0 1 -1 15.807474036425745 5.542786436750614 0.5752508425442882 0 0 0
98 0 2 1 25.108441310548695 5.750336987985577 1.2684679701418915 -1 0 0
486 0 1 -1 8.898868850527668 5.981768450337455 0.853948920815613 0 0 0
967 0 1 -1 12.511744218070287 8.812169944914048 0.7471163561321479 0 0 0
579 0 2 1 9.332516466939069 9.013149005062347 0.7400919629093039 0 0 0
1250 0 2 1 19.20911338883966 6.295349342376907 0.9073252832273733 0 0 0
197 0 1 -1 2.2565920943819524 9.304039298846702 -1.756304219815211 0 0 0
195 0 2 1 2.366396730243488 9.560462334247823 0.9855981377828176 0 0 0
583 0 1 -1 6.187499930143188 9.463344826474692 0.6587081188097663 0 0 0
968 0 1 -1 11.27436666530096 12.288843236974166 -1.8543464436548178 0 0 0
962 0 2 1 11.820138439344262 12.265894315496094 1.0833467381516906 0 0 0
966 0 1 -1 15.409633352295913 12.512114552119497 1.0730151331338513 0 0 0
1347 0 2 1 22.13721405470366 9.388942434762665 0.8480493240699198 0 0 0
199 0 1 -1 25.591250024322363 9.445606542045965 0.886722768554904 -1 0 0
194 0 2 1 25.455674399312862 12.50147690906451 0.3426171521909964 -1 0 0
198 0 1 -1 2.261770168909463 12.693634246163157 0.7661171779262901 0 0 0
291 0 2 1 2.1721753943796807 15.72045911532122 0.8099116290238486 0 0 0
578 0 2 1 4.996496575713043 12.777307201047837 0.9980243783836134 0 0 0
1059 0 2 1 15.909149859268641 15.751608867063375 0.8028062420303277 0 0 0
1447 0 1 -1 18.948852649338654 15.52407190270986 1.2863980023277541 0 0 0
1443 0 2 1 21.91419957746796 15.85680611757974 1.0801766987499528 0 0 0
295 0 1 -1 25.231784368137852 15.527801062657872 0.6234063812502191 -1 0 0
294 0 1 -1 2.200226375141534 18.789881579847176 0.5649813049561612 0 0 0
679 0 1 -1 5.167389318715132 15.93027236669225 0.7663743804334855 0 0 0
675 0 2 1 8.09367460120055 16.05073976075264 1.003929115069858 0 0 0
678 0 1 -1 8.808653512555036 18.99193583134936 0.7981522116620416 0 0 0
1063 0 1 -1 12.156094383952121 16.066371112473483 0.9519786485772173 0 0 0
1062 0 1 -1 15.425082145693917 18.87481342383073 0.47046858175493256 0 0 0
1446 0 1 -1 22.101954243335456 19.041183344151303 0.2278052332426972 0 0 0
290 0 2 1 25.167636039192267 18.822300424836428 0.46749237122753495 -1 0 0
3 0 2 1 2.269886193497339 22.05153279353582 0.70945325023545 0 -1 0
674 0 2 1 5.745412255502471 19.312940982813675 0.540271665325891 0 0 0
391 0 1 -1 5.230559512847296 21.963565951287354 0.8495366195808236 0 -1 0
1058 0 2 1 12.472568478953468 19.57252869305251 0.3909223646108737 0 0 0
771 0 2 1 15.809568258293307 22.253895334992965 1.165007851090878 0 -1 0
1442 0 2 1 18.53036028264411 19.181394465363866 0.3196894344253627 0 0 0
7 0 1 -1 25.288239139349947 22.089352359847705 0.5904785400109933 -1 -1 0
6 0 1 -1 1.6987536475040699 25.288720963393665 0.781836499619744 0 -1 0
387 0 2 1 8.617771976212845 22.553334833841312 0.49515259476412865 0 -1 0
390 0 1 -1 9.57887220264111 25.459774461750648 0.05914655202324948 0 -1 0
775 0 1 -1 12.377105717495605 22.67605501400783 1.1112849991805263 0 -1 0
1155 0 2 1 22.177431281545676 22.52648944012805 0.6382299737932238 0 -1 0
2 0 2 1 25.123196770547036 25.352624291915777 1.1832024665765006 -1 -1 0
12 0 2 1 1.7722071575728195 -0.5983790628828797 4.090876991061624 0 0 0
400 0 1 -1 4.927721492053125 -0.4793987526998872 4.206325904592438 0 0 0
396 0 2 1 8.318378997355476 -0.23812530716504793 4.098729885260601 0 0 0
1154 0 2 1 18.15732315354158 -0.638761870418679 1.4020446865670477 0 0 0
103 0 1 -1 24.817564186916563 2.1874151141151286 1.3906161051550772 -1 0 0
109 0 1 -1 1.8358872077707886 2.949655052222355 4.242375775823575 0 0 0
489 0 2 1 4.872061595436675 2.7073649853642126 4.0592832378187484 0 0 0
493 0 1 -1 8.001923582871939 2.9515236238103237 4.447393776937812 0 0 0
873 0 2 1 11.376819468384335 2.974821035627795 4.302866709565224 0 0 0
880 0 1 -1 12.192709551836128 5.745463792227444 4.389050586740426 0 0 0
1264 0 1 -1 18.290090968497783 5.8219355814106235 4.13487704712594 0 0 0
112 0 1 -1 25.529342328571154 5.934312688431537 4.21217613627331 -1 0 0
205 0 1 -1 2.268998200842081 8.82136740423481 3.588808104062421 0 0 0
496 0 1 -1 5.0791086746368235 6.139517208897017 4.313946223376584 0 0 0
585 0 2 1 5.512430989760614 9.212029831666172 3.675712153421669 0 0 0
963 0 2 1 15.540557308009074 8.77787818259845 1.3708097525207341 0 0 0
876 0 2 1 15.439077879527616 6.011749706679682 4.338848382743814 0 0 0
1351 0 1 -1 18.569516214766665 9.076439541031899 1.3352421374316394 0 0 0
1254 0 1 -1 22.21890102998966 6.007964091650402 1.6191903163300578 0 0 0
1353 0 2 1 19.29130667229176 8.995889781792348 4.405784409076485 0 0 0
1357 0 1 -1 22.375188982788675 8.876522991740023 4.003767213770969 0 0 0
201 0 2 1 25.447348696805683 9.011815676384773 3.9514194812551686 -1 0 0
204 0 2 1 2.00909592114813 12.090814019600046 4.432846902686968 0 0 0
592 0 1 -1 4.900983374410289 12.36818048437305 4.106692225798222 0 0 0
582 0 1 -1 8.331988662797656 12.415283013039977 1.695345548734946 0 0 0
976 0 1 -1 12.149105544576452 12.556626629023613 4.156857169186091 0 0 0
1346 0 2 1 18.267527770663957 12.201297655449151 1.3947114954121256 0 0 0
297 0 2 1 -0.5093233185696942 15.8699706860959 4.2343453547811425 0 0 0
301 0 1 -1 2.606647466152624 15.602562403336254 4.214763559948425 0 0 0
685 0 1 -1 8.568252903731516 15.282217206137146 4.142812091801446 0 0 0
1065 0 2 1 11.397234419728878 15.251941770067722 3.517233992260481 0 0 0
972 0 2 1 15.270139030742257 12.648954464905758 4.301586152429616 0 0 0
1350 0 1 -1 21.28034978701545 12.586786732753424 1.6107837475216131 0 0 0
208 0 1 -1 25.013793870440907 12.739245659834861 4.088278509747914 -1 0 0
300 0 2 1 1.9230778839909966 18.99576799638098 3.7308376922966104 0 0 0
681 0 2 1 5.572960675560464 16.057032308777156 3.9131807844848048 0 0 0
1069 0 1 -1 15.439449556942282 15.952730494786593 3.9732270330919324 0 0 0
1068 0 2 1 14.518861962026099 18.81081796439827 4.041141418865358 0 0 0
1452 0 2 1 21.342519977886273 19.02838591802089 3.737667695190316 0 0 0
1453 0 1 -1 22.144700317638964 16.304796622170652 3.833446031290576 0 0 0
304 0 1 -1 25.118693586342623 18.901759449459387 3.8459707644976113 -1 0 0
13 0 1 -1 1.9864869438702089 22.317332739655832 3.6078346945702737 0 -1 0
688 0 1 -1 5.555534736916627 19.318746656214678 3.5213335996701183 0 0 0
684 0 2 1 8.82502097507332 19.977975586135976 3.942344703800881 0 0 0
1072 0 1 -1 11.440135475084915 20.107358744299702 4.074692737376948 0 0 0
781 0 1 -1 15.278922857313146 21.832779800563106 4.257695720153876 0 -1 0
1456 0 1 -1 17.988510082907172 19.4035128808362 4.276928781494192 0 0 0
1165 0 1 -1 21.997335191824366 22.402216712939694 3.974412702815636 0 -1 0
9 0 2 1 24.93111588199999 22.02862584234312 3.7312068080492367 -1 -1 0
386 0 2 1 4.726098397084822 25.543402950898273 1.3030389179973039 0 -1 0
393 0 2 1 4.863382703276118 22.92057182125833 3.6522471890991888 0 -1 0
397 0 1 -1 8.159528796683993 22.99294304847582 3.7285626445530156 0 -1 0
770 0 2 1 12.508135216187359 25.724757045966243 1.5520255778416665 0 -1 0
777 0 2 1 11.427113736209378 22.984197470567548 3.9912270372634833 0 -1 0
774 0 1 -1 15.407479258982885 25.685732783474275 1.9295700756018537 0 -1 0
1161 0 2 1 18.386791373178145 22.60158238195628 4.332644271010338 0 -1 0
1159 0 1 -1 19.008674658316366 22.537420809267925 1.43110027806254 0 -1 0
1164 0 2 1 21.710350257440787 25.682503142230157 4.302824588859865 0 -1 0
16 0 1 -1 25.23365876966411 25.56598613671763 4.115113867951779 -1 -1 0
778 0 2 1 11.449571586692576 -0.28285673069554645 7.564627199646331 0 0 0
780 0 2 1 15.088996864294685 0.05077838919564959 5.019572217347614 0 0 0
1168 0 1 -1 18.52943256032048 -0.6427244045038059 4.539040483149645 0 0 0
108 0 2 1 1.9005797049240303 5.805508562265749 4.678926861081834 0 0 0
879 0 1 -1 11.82452250921573 2.818351857264816 7.52792196104204 0 0 0
877 0 1 -1 15.288604866360519 2.8921617740780956 5.066402196246928 0 0 0
1257 0 2 1 18.34853132698182 2.8711170081410153 4.556673427360748 0 0 0
1258 0 2 1 18.37694136126335 5.6302851685708895 7.269232026872331 0 0 0
1261 0 1 -1 21.455477290514406 2.9980751574442093 4.5324028759559205 0 0 0
1260 0 2 1 22.23375413794625 5.774479315505112 4.885970771100755 0 0 0
105 0 2 1 24.973704681902646 2.681832346457012 4.710258205921816 -1 0 0
111 0 1 -1 25.072603365046017 3.0402758551894498 7.590662040351569 -1 0 0
203 0 2 1 1.9613354061934842 8.818318593812917 7.05691820049433 0 0 0
492 0 2 1 8.222084175672219 5.9774882102352604 4.523232244711995 0 0 0
589 0 1 -1 8.970759347589922 8.979047709441558 4.629006831238071 0 0 0
969 0 2 1 12.222644522080472 9.260593765482563 4.516229521607713 0 0 0
874 0 2 1 12.069421523287891 6.069185662040759 7.143120047778451 0 0 0
973 0 1 -1 15.220138191007763 8.8790143518951 4.6486444894027485 0 0 0
1359 0 1 -1 18.874053039430336 8.777575209900412 7.338008187229242 0 0 0
106 0 2 1 25.06202403283345 6.3547430856902904 7.235016827608677 -1 0 0
206 0 1 -1 1.7868039217620462 12.49726969556882 7.128440864130836 0 0 0
586 0 2 1 5.076768107408341 12.277081249994682 6.978537973441194 0 0 0
588 0 2 1 8.853535605801579 12.301864259189175 4.736096848127493 0 0 0
971 0 2 1 15.061589946426455 9.273198979594483 7.428479221509985 0 0 0
1360 0 1 -1 18.658520644820637 12.30183407935413 4.630104385475509 0 0 0
1354 0 2 1 18.169373244863422 11.847340765680961 7.278766144181862 0 0 0
1356 0 2 1 22.05203167065705 11.71791880244977 4.5030021014404245 0 0 0
207 0 1 -1 24.9160387243179 9.678924932906934 7.134488763632218 -1 0 0
687 0 1 -1 5.700682942677669 15.342033257854201 7.589606394085413 0 0 0
683 0 2 1 8.752521667357097 15.562046461814582 7.268750512389854 0 0 0
974 0 1 -1 15.205836093566678 12.635050627803833 7.392037769214532 0 0 0
1071 0 1 -1 12.605172484054318 15.540734331652416 6.930629771657129 0 0 0
1449 0 2 1 18.71651685883082 15.548526650910958 4.464413188920167 0 0 0
202 0 2 1 24.3516682501249 12.76008282554173 7.594415854965057 -1 0 0
299 0 2 1 2.527471572912615 15.98577814596954 7.351805153346287 0 0 0
1066 0 2 1 11.467447097145078 19.169980973386167 7.067677854846915 0 0 0
1067 0 2 1 15.560171201321051 15.993635036286253 7.310022473411955 0 0 0
1455 0 1 -1 18.76268881509957 16.244900498315477 7.386176636553158 0 0 0
1451 0 2 1 21.639593976879187 15.876715941732538 6.819016868420823 0 0 0
298 0 2 1 24.792247733380282 19.126589820053585 7.202471848170774 -1 0 0
11 0 2 1 1.3690062744714122 22.082667487622246 7.22291984091032 0 -1 0
682 0 2 1 5.431768876516626 19.355692229500878 7.290482338360016 0 0 0
686 0 1 -1 8.510063801638651 19.725536431754637 6.938912307254167 0 0 0
779 0 2 1 14.821732228852252 22.206660068162883 7.26220795092949 0 -1 0
1450 0 2 1 18.188955253063718 19.70565122617076 7.103654041220251 0 0 0
1454 0 1 -1 21.312757684676626 19.20361354220134 7.371371508679182 0 0 0
14 0 1 -1 1.8321939397445322 25.34151280687162 7.238789050970761 0 -1 0
399 0 1 -1 5.218782535158654 22.605173823676413 6.725804903778801 0 -1 0
394 0 2 1 4.964210800943102 25.438931296884096 7.463240809437302 0 -1 0
395 0 2 1 8.624144519557149 22.681048622780107 6.973136243262495 0 -1 0
784 0 1 -1 12.221089158841293 25.71232837606265 4.500579174374435 0 -1 0
1167 0 1 -1 18.290246091267637 22.542011522905252 7.302128254306812 0 -1 0
1166 0 1 -1 21.532486406612083 25.111962990570706 7.538024399033365 0 -1 0
10 0 2 1 24.700010221608046 25.381391572718883 7.022570858547175 -1 -1 0
117 0 1 -1 2.2910989384213156 2.5647261814116646 10.682378369663489 0 0 0
495 0 1 -1 5.063228147500234 2.0892150904293456 7.851495195112751 0 0 0
398 0 1 -1 8.248265900924393 -0.3419647528517756 8.012260809157228 0 0 0
782 0 1 -1 14.664887520333178 -0.6297324082900725 7.815653056731941 0 0 0
1263 0 1 -1 18.48402447785966 2.407768321608034 7.895939605887893 0 0 0
1259 0 2 1 21.57860418093057 2.2844092383186636 7.862448721943945 0 0 0
113 0 2 1 25.308597233287035 2.206212873037856 10.69478628795162 -1 0 0
107 0 2 1 1.9425092613080057 2.665580548797531 7.7142478601624855 0 0 0
490 0 2 1 5.1353403836345946 5.686823380932945 7.8602331597698285 0 0 0
504 0 1 -1 4.455579335765689 5.60896589742261 10.642729119125276 0 0 0
494 0 1 -1 8.490459765733865 5.893899621676868 7.683295603020893 0 0 0
491 0 2 1 8.036008104426458 2.6985262258707574 8.151828977495969 0 0 0
500 0 2 1 8.166529697604703 5.869709143469336 10.666171387685054 0 0 0
875 0 2 1 14.778430716351682 2.820014149182401 8.325346792771134 0 0 0
878 0 1 -1 14.88399856832359 5.851670777447502 8.124649963848992 0 0 0
1272 0 1 -1 18.350099133063004 5.65289638199356 10.704993829430757 0 0 0
1262 0 1 -1 22.33382761835322 5.68859423018421 7.7546165952615205 0 0 0
110 0 1 -1 1.6247590761834063 6.005441151196379 7.8376670320986825 0 0 0
591 0 1 -1 5.091520766195943 8.967214204078699 7.705538850333625 0 0 0
593 0 2 1 5.111169567617757 9.064774175616336 10.640651702742959 0 0 0
975 0 1 -1 11.87603303625196 9.109034290605686 7.801872271973227 0 0 0
977 0 2 1 11.852747623672975 9.171661059581227 10.775505722471566 0 0 0
1361 0 2 1 18.90625958670809 8.720370227899341 10.539236017202661 0 0 0
1355 0 2 1 21.604160880868452 9.042391590583842 7.9601562760477815 0 0 0
212 0 2 1 1.878324609310786 12.21602836228698 10.73173529940174 0 0 0
587 0 2 1 8.477141327638115 9.339472007132356 7.935497672424235 0 0 0
590 0 1 -1 8.699449030532644 12.340772435916415 7.6374524530637515 0 0 0
596 0 2 1 8.567153734784863 12.359804466212424 10.54805652063655 0 0 0
981 0 1 -1 15.418680823063067 9.315321397378508 10.693206089400704 0 0 0
1368 0 1 -1 18.15489306213252 11.504254269794563 10.564309536505549 0 0 0
1358 0 1 -1 21.357169160245892 11.755379817213935 7.876656952948123 0 0 0
1364 0 2 1 21.344334413341446 11.896716259546473 10.71652802149806 0 0 0
209 0 2 1 24.9567899212293 9.757633692730385 10.568324857935828 -1 0 0
689 0 2 1 5.07773119116615 15.46640024394491 10.647116622471394 0 0 0
970 0 2 1 11.818900658628172 12.674324461206117 7.824805378148197 0 0 0
1073 0 2 1 12.518961504547567 15.581311735235921 10.323840560282111 0 0 0
693 0 1 -1 9.388742097786052 15.831641650678232 10.304032170289718 0 0 0
1457 0 2 1 18.549925166075706 15.865381196685817 10.030932202739166 0 0 0
1461 0 1 -1 21.29158253002155 15.415202166051174 9.808437475109383 0 0 0
303 0 1 -1 25.09543734428194 15.654751466771433 7.6733305873205 -1 0 0
216 0 1 -1 25.065295126919434 12.62634216933985 10.505202535805472 -1 0 0
305 0 2 1 25.12774867719454 15.618475515148702 10.573446919441512 -1 0 0
302 0 1 -1 2.030825643772235 19.153465008129388 7.705226392926846 0 0 0
309 0 1 -1 2.274991988757843 16.07422645293433 10.527776898148666 0 0 0
1080 0 1 -1 11.632106166757046 19.172437741748027 10.2354458698931 0 0 0
1460 0 2 1 21.93899057932547 18.65021523068698 10.68301889197924 0 0 0
312 0 1 -1 24.779424085374643 18.694201891990595 10.265600455268777 -1 0 0
692 0 2 1 8.64159843614301 19.286065088088304 10.349796258383506 0 0 0
405 0 1 -1 8.319069949440436 22.04675123136675 10.544396232948314 0 -1 0
783 0 1 -1 11.871493997430246 22.44685133316821 8.113112067474326 0 -1 0
1070 0 1 -1 14.990741204049053 19.300129406942364 7.743634956953091 0 0 0
1464 0 1 -1 18.695500741016826 19.271561323585008 10.624313606483222 0 0 0
1169 0 2 1 18.213071277444566 22.232731970152543 10.575551617305576 0 -1 0
1163 0 2 1 21.40151659463205 22.07686105886767 7.78037980946903 0 -1 0
15 0 1 -1 24.678540807189908 22.200812029309652 8.134182544297573 -1 -1 0
20 0 2 1 1.9936003326599878 25.285222965912663 10.318520352127967 0 -1 0
408 0 1 -1 5.000632868678285 25.52234080094324 10.761413905088025 0 -1 0
401 0 2 1 4.846177013101415 22.642675504225853 10.714979557663732 0 -1 0
792 0 1 -1 11.694198281932433 25.659931629690487 10.771258694251566 0 -1 0
788 0 2 1 15.346604277059884 25.62861034171025 10.78148274739367 0 -1 0
1162 0 2 1 17.65343722013887 25.47621278448141 7.844118103166611 0 -1 0
1176 0 1 -1 18.319751007180308 25.35610393143692 10.783070665295048 0 -1 0
1172 0 2 1 22.101130451000397 25.504837288275795 10.646376854882401 0 -1 0
24 0 1 -1 25.263644220918163 25.06245356504643 10.386539619445053 -1 -1 0
22 0 1 -1 1.8857654560606245 -0.4625999995185787 13.649380620441693 0 0 0
497 0 2 1 5.521031202130844 2.4117332701684675 11.238722801626075 0 0 0
501 0 1 -1 8.624113336387424 1.9301441324236333 11.357607869467387 0 0 0
881 0 2 1 11.84380486552639 2.396467162628316 10.897355840628933 0 0 0
887 0 1 -1 12.197010466679188 2.5870170275482036 13.919015805256855 0 0 0
885 0 1 -1 15.581329884974245 2.496057873501547 11.24815472438489 0 0 0
1265 0 2 1 18.732045569615213 2.3175594467061837 11.025592477875307 0 0 0
1174 0 1 -1 22.099091011673213 -0.6403285079528017 13.77439699065659 0 0 0
1269 0 1 -1 22.00340656596052 2.090973684132935 11.178786605872112 0 0 0
119 0 1 -1 25.29315176286824 2.6156876034773098 13.911884060600737 -1 0 0
116 0 2 1 1.3501247397755727 5.2957417242532125 11.15440502110636 0 0 0
115 0 2 1 2.016595203855109 2.8673725581734963 13.855438645538992 0 0 0
498 0 2 1 4.811875699458406 5.484119176035034 13.790348204218002 0 0 0
888 0 1 -1 11.525151125790208 5.727961951812209 10.963792968048075 0 0 0
884 0 2 1 14.991566229842848 5.605329858389608 10.956675947801212 0 0 0
1268 0 2 1 21.437140712539 5.468951987212993 11.121531174957866 0 0 0
120 0 1 -1 24.7074676523839 5.694026937485097 11.01722929852837 -1 0 0
114 0 2 1 24.92921865021065 5.537175278960966 13.936850459804969 -1 0 0
213 0 1 -1 1.9368014297160538 9.119060797751457 10.854756075899687 0 0 0
597 0 1 -1 8.291700272685242 9.198462909294554 11.198351159346743 0 0 0
882 0 2 1 11.839034934165698 6.074041597774537 13.803386262512255 0 0 0
979 0 2 1 15.57827963913848 9.113539537337385 13.865133834433667 0 0 0
1367 0 1 -1 18.763529270574466 8.582856811557972 13.848717967155352 0 0 0
1365 0 1 -1 21.730865201768662 8.754226515357209 10.945109659209265 0 0 0
1363 0 2 1 22.037560405116167 8.65056686116193 13.822265720647497 0 0 0
600 0 1 -1 5.058550287953904 12.03729182000909 10.79060749882057 0 0 0
594 0 2 1 5.134019761089651 11.738906431356597 13.954569974577716 0 0 0
978 0 2 1 11.974388708966114 12.324391928603088 13.813364246806337 0 0 0
982 0 1 -1 15.171405813072855 12.538547100890504 13.796179196226454 0 0 0
215 0 1 -1 25.217390918781014 9.530968389832756 13.542059713438743 -1 0 0
214 0 1 -1 1.9810630358812094 12.669965990646629 13.832537388037185 0 0 0
695 0 1 -1 5.940065458475895 15.58427536488518 13.555889807029658 0 0 0
598 0 1 -1 8.837188406576594 12.629337380410048 13.696932307912455 0 0 0
984 0 1 -1 11.749899268740487 12.702298551425862 10.877502542393369 0 0 0
1079 0 1 -1 11.907805545956556 15.614225977342972 13.491323268558194 0 0 0
1077 0 1 -1 15.354812702996375 15.844562814953559 11.2828984682248 0 0 0
980 0 2 1 15.327891381972274 12.6219962640066 10.820070359549868 0 0 0
1463 0 1 -1 18.275267205755263 15.830354547218096 13.854943695771421 0 0 0
1459 0 2 1 21.6389899840978 15.743651356600044 13.708763539752617 0 0 0
311 0 1 -1 25.164021523911572 15.596809882068719 13.796367078168402 -1 0 0
308 0 2 1 1.1865088277630065 19.162812291098017 11.26645531591672 0 0 0
690 0 2 1 5.008584934738206 18.727914305654323 13.75174912854666 0 0 0
691 0 2 1 9.02988793226944 16.04054407321409 13.462373512257873 0 0 0
1074 0 2 1 11.829429422758464 18.654768443662178 13.850613928220291 0 0 0
1458 0 2 1 18.782417898185248 19.02335013752653 13.686790772962368 0 0 0
21 0 1 -1 1.509345465256926 22.101401649390017 10.812601546698579 0 -1 0
696 0 1 -1 4.929939313155332 19.462242130660965 11.096685438231852 0 0 0
403 0 2 1 7.783258923949914 21.815273795272446 13.94414778737432 0 -1 0
785 0 2 1 11.966571505464415 22.10971183006437 11.126358149737165 0 -1 0
1076 0 2 1 15.214738939355795 19.277800125005292 10.942088983567249 0 0 0
787 0 2 1 15.148309030579156 22.12232627897284 13.767854486763703 0 -1 0
1175 0 1 -1 18.49538403469354 22.438967695608596 13.900749058057396 0 -1 0
1173 0 1 -1 21.436747820310558 22.27063390811351 11.267957095540925 0 -1 0
1462 0 1 -1 21.74480371549866 19.279299804803955 13.556591292288143 0 0 0
17 0 2 1 24.911131279653425 22.273199633116057 11.126716031588646 -1 -1 0
19 0 2 1 1.2453773976177998 22.567169557481755 13.793506651849256 0 -1 0
402 0 2 1 5.296982550205357 25.7533329673327 13.823601218140741 0 -1 0
404 0 2 1 8.194106218443562 25.210184268467536 11.352669432457745 0 -1 0
791 0 1 -1 12.150233498428562 22.973138720574994 13.942292563806003 0 -1 0
786 0 2 1 12.440720903190954 25.73253369135105 13.667695509443892 0 -1 0
789 0 1 -1 15.346952626807843 22.83841555493832 10.852610323222056 0 -1 0
18 0 2 1 25.32421080962913 25.677439398951424 13.75881775197712 -1 -1 0
28 0 2 1 2.4109306822863683 -0.15872331881200102 16.907499042300568 0 0 0
503 0 1 -1 5.723453489051182 2.5920208872423096 14.512922821182176 0 0 0
499 0 2 1 8.850679523317917 1.8992600101462633 14.431292170167069 0 0 0
800 0 1 -1 11.503259863521016 -0.5320290774724588 16.975455209817017 0 0 0
1271 0 1 -1 18.785343542267693 2.321222198705539 14.282032593866393 0 0 0
1170 0 2 1 18.466589795220553 -0.5096953550195253 14.057585401062422 0 0 0
1267 0 2 1 21.998179082663498 2.249623181841929 14.330279931284164 0 0 0
118 0 1 -1 1.4260420846444468 5.6468086987473045 14.307307300359884 0 0 0
502 0 1 -1 8.398910774330641 5.716704976738302 14.099180053753223 0 0 0
896 0 1 -1 11.737250251084392 5.677661454813024 16.981142501383626 0 0 0
886 0 1 -1 15.504340288068782 5.773839580970773 14.095915657533613 0 0 0
883 0 2 1 15.32654236868829 2.7301263536805447 14.501588270416917 0 0 0
1266 0 2 1 18.659979712610095 5.2463758948542445 15.015704130246977 0 0 0
1270 0 1 -1 21.692291413632816 5.540194291426618 14.17914460591733 0 0 0
1277 0 1 -1 22.275722864431806 2.740870548334709 17.034058189670443 0 0 0
1276 0 2 1 22.49793099429418 5.80364424392926 17.075437081509467 0 0 0
121 0 2 1 25.256577359658156 3.056356667708808 17.068791917602233 -1 0 0
211 0 2 1 2.011607178016575 8.62744458290798 13.976834392903282 0 0 0
221 0 1 -1 2.1309389000928314 9.027937021179332 16.99871624414838 0 0 0
599 0 1 -1 5.236472736637863 8.431405724060697 14.349184807738776 0 0 0
595 0 2 1 8.425491211549325 8.824701740278552 14.123556897116089 0 0 0
983 0 1 -1 11.394798101667694 8.917193255322973 14.006332186341009 0 0 0
989 0 1 -1 15.254068135097405 9.155757731762739 17.00626496406723 0 0 0
1373 0 1 -1 22.11437102057091 8.851314603006601 16.856662371165672 0 0 0
608 0 1 -1 5.273585512254772 12.127228312982723 17.084733049862084 0 0 0
992 0 1 -1 11.894937776629034 12.383464274823693 17.067323121247277 0 0 0
988 0 2 1 15.839363992017766 11.964785766046973 17.08959065990678 0 0 0
1362 0 2 1 18.398341180515004 12.13373178814159 13.99287652650079 0 0 0
210 0 2 1 25.233992740720822 12.359571722146482 14.140059838893023 -1 0 0
224 0 1 -1 25.188060853837737 12.247570113906681 17.051056907341987 -1 0 0
217 0 2 1 25.376449113929365 9.36798979764605 16.838713521629092 -1 0 0
307 0 2 1 2.465823535388008 15.77127109647784 14.086514803317929 0 0 0
1081 0 2 1 11.489109003475523 15.364967821407234 16.72098249017006 0 0 0
1465 0 2 1 18.81748616957424 15.463779245194836 17.082691933046927 0 0 0
1366 0 1 -1 21.67344982657523 12.675536363997962 14.059484870248443 0 0 0
310 0 1 -1 1.7517487073693947 18.548458402960463 14.00223683442097 0 0 0
694 0 1 -1 8.396792704288716 18.775610298840228 13.993319769034752 0 0 0
1075 0 2 1 15.308718384245905 15.972762517342115 14.051547056080924 0 0 0
306 0 2 1 24.807477144534406 18.509837841741806 14.263166854730922 -1 0 0
29 0 1 -1 2.0855400311507326 21.893410029182462 17.106162175857722 0 -1 0
793 0 2 1 11.543418546396738 21.948814798265705 16.59514229259185 0 -1 0
1078 0 1 -1 14.9083371379241 19.49067743329027 14.458788838501182 0 0 0
407 0 1 -1 4.970038904859182 22.589454242332252 14.02110401092466 0 -1 0
409 0 2 1 5.454360864777357 22.582417507208696 17.033248989685415 0 -1 0
406 0 1 -1 8.251373710763199 25.145460733386905 14.389637300284068 0 -1 0
790 0 1 -1 15.260437953302233 25.35376291798664 14.429060180629314 0 -1 0
1171 0 2 1 21.579730164552668 22.91841626219377 14.40043802299521 0 -1 0
23 0 1 -1 24.48857762311007 22.92327556730615 14.172364927607823 -1 -1 0
509 0 1 -1 8.06491139293154 2.409552324644133 17.325021623191322 0 0 0