LiKCl-CHGNET-layered/32.00x-LiKCl-CHGNET-layered/initial-solid.data (written by ASE) 

4096 	 atoms 
3  atom types
0.0      90.943898224831614  xlo xhi
0.0      22.735974556207903  ylo yhi
0.0      45.471949112415807  zlo zhi


Masses

1 35.45
2 39.0983
3 6.94


Atoms 

     1   0   2   1.0      1.4209984097629895      1.4209984097629937      1.4209984097629909
     2   0   2   1.0      1.4209984097629891      4.2629952292889817       4.262995229288979
     3   0   2   1.0      4.2629952292889781      1.4209984097629937       4.262995229288979
     4   0   2   1.0      4.2629952292889781      4.2629952292889817      1.4209984097629911
     5   0   1  -1.0      4.2629952292889781      1.4209984097629937      1.4209984097629911
     6   0   1  -1.0      4.2629952292889781      4.2629952292889817      4.2629952292889799
     7   0   1  -1.0      1.4209984097629895      1.4209984097629937       4.262995229288979
     8   0   1  -1.0      1.4209984097629891      4.2629952292889817      1.4209984097629911
     9   0   2   1.0      1.4209984097629891        7.10499204881497      1.4209984097629909
    10   0   2   1.0      1.4209984097629889      9.9469888683409593      4.2629952292889799
    11   0   2   1.0      4.2629952292889772        7.10499204881497      4.2629952292889799
    12   0   2   1.0      4.2629952292889772      9.9469888683409593      1.4209984097629915
    13   0   1  -1.0      4.2629952292889772        7.10499204881497      1.4209984097629913
    14   0   1  -1.0      4.2629952292889772      9.9469888683409593      4.2629952292889799
    15   0   1  -1.0      1.4209984097629891        7.10499204881497      4.2629952292889799
    16   0   1  -1.0      1.4209984097629889      9.9469888683409593      1.4209984097629913
    17   0   2   1.0      1.4209984097629886      12.788985687866946      1.4209984097629915
    18   0   2   1.0      1.4209984097629884      15.630982507392934      4.2629952292889799
    19   0   2   1.0      4.2629952292889772      12.788985687866946      4.2629952292889799
    20   0   2   1.0      4.2629952292889772      15.630982507392934      1.4209984097629917
    21   0   1  -1.0      4.2629952292889772      12.788985687866946      1.4209984097629917
    22   0   1  -1.0      4.2629952292889772      15.630982507392934      4.2629952292889799
    23   0   1  -1.0      1.4209984097629886      12.788985687866946      4.2629952292889799
    24   0   1  -1.0      1.4209984097629884      15.630982507392934      1.4209984097629917
    25   0   2   1.0      1.4209984097629884      18.472979326918921      1.4209984097629917
    26   0   2   1.0      1.4209984097629882      21.314976146444913      4.2629952292889799
    27   0   2   1.0      4.2629952292889772      18.472979326918921      4.2629952292889799
    28   0   2   1.0      4.2629952292889772      21.314976146444913       1.420998409762992
    29   0   1  -1.0      4.2629952292889772      18.472979326918921       1.420998409762992
    30   0   1  -1.0      4.2629952292889772      21.314976146444913      4.2629952292889808
    31   0   1  -1.0      1.4209984097629884      18.472979326918921      4.2629952292889799
    32   0   1  -1.0      1.4209984097629882      21.314976146444913       1.420998409762992
    33   0   2   1.0      7.1049920488149665      1.4209984097629937      1.4209984097629911
    34   0   2   1.0      7.1049920488149665      4.2629952292889817      4.2629952292889799
    35   0   2   1.0       9.946988868340954      1.4209984097629937      4.2629952292889799
    36   0   2   1.0       9.946988868340954      4.2629952292889817      1.4209984097629917
    37   0   1  -1.0       9.946988868340954      1.4209984097629937      1.4209984097629915
    38   0   1  -1.0       9.946988868340954      4.2629952292889817      4.2629952292889799
    39   0   1  -1.0      7.1049920488149665      1.4209984097629937      4.2629952292889799
    40   0   1  -1.0      7.1049920488149665      4.2629952292889817      1.4209984097629915
    41   0   2   1.0      7.1049920488149665        7.10499204881497      1.4209984097629915
    42   0   2   1.0      7.1049920488149665      9.9469888683409593      4.2629952292889799
    43   0   2   1.0       9.946988868340954        7.10499204881497      4.2629952292889799
    44   0   2   1.0       9.946988868340954      9.9469888683409593      1.4209984097629917
    45   0   1  -1.0       9.946988868340954        7.10499204881497      1.4209984097629917
    46   0   1  -1.0       9.946988868340954      9.9469888683409593      4.2629952292889799
    47   0   1  -1.0      7.1049920488149665        7.10499204881497      4.2629952292889799
    48   0   1  -1.0      7.1049920488149665      9.9469888683409593      1.4209984097629917
    49   0   2   1.0      7.1049920488149656      12.788985687866946      1.4209984097629917
    50   0   2   1.0      7.1049920488149656      15.630982507392934      4.2629952292889799
    51   0   2   1.0       9.946988868340954      12.788985687866946      4.2629952292889799
    52   0   2   1.0       9.946988868340954      15.630982507392934      1.4209984097629922
    53   0   1  -1.0       9.946988868340954      12.788985687866946       1.420998409762992
    54   0   1  -1.0       9.946988868340954      15.630982507392934      4.2629952292889808
    55   0   1  -1.0      7.1049920488149656      12.788985687866946      4.2629952292889799
    56   0   1  -1.0      7.1049920488149656      15.630982507392934       1.420998409762992
    57   0   2   1.0      7.1049920488149656      18.472979326918921      1.4209984097629922
    58   0   2   1.0      7.1049920488149656      21.314976146444913      4.2629952292889808
    59   0   2   1.0       9.946988868340954      18.472979326918921      4.2629952292889808
    60   0   2   1.0       9.946988868340954      21.314976146444913      1.4209984097629922
    61   0   1  -1.0       9.946988868340954      18.472979326918921      1.4209984097629922
    62   0   1  -1.0       9.946988868340954      21.314976146444913      4.2629952292889808
    63   0   1  -1.0      7.1049920488149656      18.472979326918921      4.2629952292889808
    64   0   1  -1.0      7.1049920488149656      21.314976146444913       1.420998409762992
    65   0   2   1.0      12.788985687866942      1.4209984097629937      1.4209984097629917
    66   0   2   1.0      12.788985687866942      4.2629952292889817      4.2629952292889799
    67   0   2   1.0      15.630982507392931      1.4209984097629937      4.2629952292889799
    68   0   2   1.0      15.630982507392931      4.2629952292889817      1.4209984097629917
    69   0   1  -1.0      15.630982507392931      1.4209984097629937       1.420998409762992
    70   0   1  -1.0      15.630982507392931      4.2629952292889817      4.2629952292889799
    71   0   1  -1.0      12.788985687866942      1.4209984097629937      4.2629952292889799
    72   0   1  -1.0      12.788985687866942      4.2629952292889817      1.4209984097629917
    73   0   2   1.0      12.788985687866942        7.10499204881497      1.4209984097629917
    74   0   2   1.0      12.788985687866942      9.9469888683409593      4.2629952292889799
    75   0   2   1.0      15.630982507392931        7.10499204881497      4.2629952292889799
    76   0   2   1.0      15.630982507392931      9.9469888683409593      1.4209984097629922
    77   0   1  -1.0      15.630982507392931        7.10499204881497       1.420998409762992
    78   0   1  -1.0      15.630982507392931      9.9469888683409593      4.2629952292889808
    79   0   1  -1.0      12.788985687866942        7.10499204881497      4.2629952292889799
    80   0   1  -1.0      12.788985687866942      9.9469888683409593       1.420998409762992
    81   0   2   1.0      12.788985687866942      12.788985687866946      1.4209984097629922
    82   0   2   1.0      12.788985687866942      15.630982507392934      4.2629952292889808
    83   0   2   1.0      15.630982507392931      12.788985687866946      4.2629952292889808
    84   0   2   1.0      15.630982507392931      15.630982507392934      1.4209984097629924
    85   0   1  -1.0      15.630982507392931      12.788985687866946      1.4209984097629922
    86   0   1  -1.0      15.630982507392931      15.630982507392934      4.2629952292889808
    87   0   1  -1.0      12.788985687866942      12.788985687866946      4.2629952292889808
    88   0   1  -1.0      12.788985687866942      15.630982507392934      1.4209984097629922
    89   0   2   1.0      12.788985687866941      18.472979326918921      1.4209984097629924
    90   0   2   1.0      12.788985687866941      21.314976146444913      4.2629952292889808
    91   0   2   1.0      15.630982507392931      18.472979326918921      4.2629952292889808
    92   0   2   1.0      15.630982507392931      21.314976146444913      1.4209984097629924
    93   0   1  -1.0      15.630982507392931      18.472979326918921      1.4209984097629924
    94   0   1  -1.0      15.630982507392931      21.314976146444913      4.2629952292889817
    95   0   1  -1.0      12.788985687866941      18.472979326918921      4.2629952292889808
    96   0   1  -1.0      12.788985687866941      21.314976146444913      1.4209984097629924
    97   0   2   1.0      18.472979326918917      1.4209984097629937       1.420998409762992
    98   0   2   1.0      18.472979326918917      4.2629952292889817      4.2629952292889799
    99   0   2   1.0      21.314976146444909      1.4209984097629937      4.2629952292889799
   100   0   2   1.0      21.314976146444909      4.2629952292889817      1.4209984097629922
   101   0   1  -1.0      21.314976146444909      1.4209984097629937      1.4209984097629922
   102   0   1  -1.0      21.314976146444909      4.2629952292889817      4.2629952292889808
   103   0   1  -1.0      18.472979326918917      1.4209984097629937      4.2629952292889799
   104   0   1  -1.0      18.472979326918917      4.2629952292889817       1.420998409762992
   105   0   2   1.0      18.472979326918917        7.10499204881497      1.4209984097629922
   106   0   2   1.0      18.472979326918917      9.9469888683409593      4.2629952292889808
   107   0   2   1.0      21.314976146444909        7.10499204881497      4.2629952292889808
   108   0   2   1.0      21.314976146444909      9.9469888683409593      1.4209984097629924
   109   0   1  -1.0      21.314976146444909        7.10499204881497      1.4209984097629922
   110   0   1  -1.0      21.314976146444909      9.9469888683409593      4.2629952292889808
   111   0   1  -1.0      18.472979326918917        7.10499204881497      4.2629952292889808
   112   0   1  -1.0      18.472979326918917      9.9469888683409593      1.4209984097629922
   113   0   2   1.0      18.472979326918917      12.788985687866946      1.4209984097629924
   114   0   2   1.0      18.472979326918917      15.630982507392934      4.2629952292889808
   115   0   2   1.0      21.314976146444909      12.788985687866946      4.2629952292889808
   116   0   2   1.0      21.314976146444909      15.630982507392934      1.4209984097629926
   117   0   1  -1.0      21.314976146444909      12.788985687866946      1.4209984097629926
   118   0   1  -1.0      21.314976146444909      15.630982507392934      4.2629952292889817
   119   0   1  -1.0      18.472979326918917      12.788985687866946      4.2629952292889808
   120   0   1  -1.0      18.472979326918917      15.630982507392934      1.4209984097629926
   121   0   2   1.0      18.472979326918917      18.472979326918921      1.4209984097629924
   122   0   2   1.0      18.472979326918917      21.314976146444913      4.2629952292889808
   123   0   2   1.0      21.314976146444906      18.472979326918921      4.2629952292889808
   124   0   2   1.0      21.314976146444906      21.314976146444913      1.4209984097629929
   125   0   1  -1.0      21.314976146444906      18.472979326918921      1.4209984097629926
   126   0   1  -1.0      21.314976146444906      21.314976146444913      4.2629952292889817
   127   0   1  -1.0      18.472979326918917      18.472979326918921      4.2629952292889808
   128   0   1  -1.0      18.472979326918917      21.314976146444913      1.4209984097629926
   129   0   2   1.0      24.156972965970898      1.4209984097629937      1.4209984097629922
   130   0   2   1.0      24.156972965970898      4.2629952292889817      4.2629952292889808
   131   0   2   1.0      26.998969785496882      1.4209984097629937      4.2629952292889808
   132   0   2   1.0      26.998969785496882      4.2629952292889817      1.4209984097629924
   133   0   1  -1.0      26.998969785496882      1.4209984097629937      1.4209984097629922
   134   0   1  -1.0      26.998969785496882      4.2629952292889817      4.2629952292889808
   135   0   1  -1.0      24.156972965970898      1.4209984097629937      4.2629952292889808
   136   0   1  -1.0      24.156972965970898      4.2629952292889817      1.4209984097629922
   137   0   2   1.0      24.156972965970898        7.10499204881497      1.4209984097629924
   138   0   2   1.0      24.156972965970898      9.9469888683409593      4.2629952292889808
   139   0   2   1.0      26.998969785496882        7.10499204881497      4.2629952292889808
   140   0   2   1.0      26.998969785496882      9.9469888683409593      1.4209984097629926
   141   0   1  -1.0      26.998969785496882        7.10499204881497      1.4209984097629926
   142   0   1  -1.0      26.998969785496882      9.9469888683409593      4.2629952292889817
   143   0   1  -1.0      24.156972965970898        7.10499204881497      4.2629952292889808
   144   0   1  -1.0      24.156972965970898      9.9469888683409593      1.4209984097629926
   145   0   2   1.0      24.156972965970898      12.788985687866946      1.4209984097629926
   146   0   2   1.0      24.156972965970898      15.630982507392934      4.2629952292889808
   147   0   2   1.0      26.998969785496882      12.788985687866946      4.2629952292889808
   148   0   2   1.0      26.998969785496882      15.630982507392934      1.4209984097629929
   149   0   1  -1.0      26.998969785496882      12.788985687866946      1.4209984097629929
   150   0   1  -1.0      26.998969785496882      15.630982507392934      4.2629952292889817
   151   0   1  -1.0      24.156972965970898      12.788985687866946      4.2629952292889808
   152   0   1  -1.0      24.156972965970898      15.630982507392934      1.4209984097629929
   153   0   2   1.0      24.156972965970898      18.472979326918921      1.4209984097629929
   154   0   2   1.0      24.156972965970898      21.314976146444913      4.2629952292889817
   155   0   2   1.0      26.998969785496882      18.472979326918921      4.2629952292889817
   156   0   2   1.0      26.998969785496882      21.314976146444913      1.4209984097629933
   157   0   1  -1.0      26.998969785496882      18.472979326918921      1.4209984097629933
   158   0   1  -1.0      26.998969785496882      21.314976146444913      4.2629952292889817
   159   0   1  -1.0      24.156972965970898      18.472979326918921      4.2629952292889817
   160   0   1  -1.0      24.156972965970898      21.314976146444913      1.4209984097629933
   161   0   2   1.0      29.840966605022871      1.4209984097629937      1.4209984097629924
   162   0   2   1.0      29.840966605022871      4.2629952292889817      4.2629952292889808
   163   0   2   1.0      32.682963424548859      1.4209984097629937      4.2629952292889808
   164   0   2   1.0      32.682963424548859      4.2629952292889817      1.4209984097629926
   165   0   1  -1.0      32.682963424548859      1.4209984097629937      1.4209984097629926
   166   0   1  -1.0      32.682963424548859      4.2629952292889817      4.2629952292889817
   167   0   1  -1.0      29.840966605022871      1.4209984097629937      4.2629952292889808
   168   0   1  -1.0      29.840966605022871      4.2629952292889817      1.4209984097629926
   169   0   2   1.0      29.840966605022871        7.10499204881497      1.4209984097629926
   170   0   2   1.0      29.840966605022871      9.9469888683409593      4.2629952292889808
   171   0   2   1.0      32.682963424548859        7.10499204881497      4.2629952292889808
   172   0   2   1.0      32.682963424548859      9.9469888683409593      1.4209984097629931
   173   0   1  -1.0      32.682963424548859        7.10499204881497      1.4209984097629929
   174   0   1  -1.0      32.682963424548859      9.9469888683409593      4.2629952292889817
   175   0   1  -1.0      29.840966605022871        7.10499204881497      4.2629952292889808
   176   0   1  -1.0      29.840966605022871      9.9469888683409593      1.4209984097629929
   177   0   2   1.0      29.840966605022871      12.788985687866946      1.4209984097629931
   178   0   2   1.0      29.840966605022871      15.630982507392934      4.2629952292889817
   179   0   2   1.0      32.682963424548859      12.788985687866946      4.2629952292889817
   180   0   2   1.0      32.682963424548859      15.630982507392934      1.4209984097629933
   181   0   1  -1.0      32.682963424548859      12.788985687866946      1.4209984097629935
   182   0   1  -1.0      32.682963424548859      15.630982507392934      4.2629952292889817
   183   0   1  -1.0      29.840966605022871      12.788985687866946      4.2629952292889817
   184   0   1  -1.0      29.840966605022871      15.630982507392934      1.4209984097629933
   185   0   2   1.0      29.840966605022871      18.472979326918921      1.4209984097629933
   186   0   2   1.0      29.840966605022871      21.314976146444913      4.2629952292889817
   187   0   2   1.0      32.682963424548859      18.472979326918921      4.2629952292889817
   188   0   2   1.0      32.682963424548859      21.314976146444913      1.4209984097629937
   189   0   1  -1.0      32.682963424548859      18.472979326918921      1.4209984097629935
   190   0   1  -1.0      32.682963424548859      21.314976146444913      4.2629952292889817
   191   0   1  -1.0      29.840966605022871      18.472979326918921      4.2629952292889817
   192   0   1  -1.0      29.840966605022871      21.314976146444913      1.4209984097629935
   193   0   2   1.0      35.524960244074848      1.4209984097629937      1.4209984097629926
   194   0   2   1.0      35.524960244074848      4.2629952292889817      4.2629952292889808
   195   0   2   1.0      38.366957063600843      1.4209984097629937      4.2629952292889808
   196   0   2   1.0      38.366957063600843      4.2629952292889817      1.4209984097629931
   197   0   1  -1.0      38.366957063600843      1.4209984097629937      1.4209984097629929
   198   0   1  -1.0      38.366957063600843      4.2629952292889817      4.2629952292889817
   199   0   1  -1.0      35.524960244074848      1.4209984097629937      4.2629952292889808
   200   0   1  -1.0      35.524960244074848      4.2629952292889817      1.4209984097629929
   201   0   2   1.0      35.524960244074848        7.10499204881497      1.4209984097629931
   202   0   2   1.0      35.524960244074848      9.9469888683409593      4.2629952292889817
   203   0   2   1.0      38.366957063600843        7.10499204881497      4.2629952292889817
   204   0   2   1.0      38.366957063600843      9.9469888683409593      1.4209984097629935
   205   0   1  -1.0      38.366957063600843        7.10499204881497      1.4209984097629935
   206   0   1  -1.0      38.366957063600843      9.9469888683409593      4.2629952292889817
   207   0   1  -1.0      35.524960244074848        7.10499204881497      4.2629952292889817
   208   0   1  -1.0      35.524960244074848      9.9469888683409593      1.4209984097629935
   209   0   2   1.0      35.524960244074848      12.788985687866946      1.4209984097629935
   210   0   2   1.0      35.524960244074848      15.630982507392934      4.2629952292889817
   211   0   2   1.0      38.366957063600843      12.788985687866946      4.2629952292889817
   212   0   2   1.0      38.366957063600843      15.630982507392934      1.4209984097629937
   213   0   1  -1.0      38.366957063600843      12.788985687866946      1.4209984097629935
   214   0   1  -1.0      38.366957063600843      15.630982507392934      4.2629952292889826
   215   0   1  -1.0      35.524960244074848      12.788985687866946      4.2629952292889817
   216   0   1  -1.0      35.524960244074848      15.630982507392934      1.4209984097629935
   217   0   2   1.0      35.524960244074848      18.472979326918921      1.4209984097629937
   218   0   2   1.0      35.524960244074848      21.314976146444913      4.2629952292889808
   219   0   2   1.0      38.366957063600843      18.472979326918921      4.2629952292889817
   220   0   2   1.0      38.366957063600843      21.314976146444913       1.420998409762994
   221   0   1  -1.0      38.366957063600843      18.472979326918921      1.4209984097629937
   222   0   1  -1.0      38.366957063600843      21.314976146444913      4.2629952292889817
   223   0   1  -1.0      35.524960244074848      18.472979326918921      4.2629952292889817
   224   0   1  -1.0      35.524960244074848      21.314976146444913      1.4209984097629937
   225   0   2   1.0      41.208953883126824      1.4209984097629937      1.4209984097629931
   226   0   2   1.0      41.208953883126824      4.2629952292889817      4.2629952292889817
   227   0   2   1.0      44.050950702652813      1.4209984097629937      4.2629952292889817
   228   0   2   1.0      44.050950702652813      4.2629952292889817      1.4209984097629935
   229   0   1  -1.0      44.050950702652813      1.4209984097629937      1.4209984097629935
   230   0   1  -1.0      44.050950702652813      4.2629952292889817      4.2629952292889817
   231   0   1  -1.0      41.208953883126824      1.4209984097629937      4.2629952292889817
   232   0   1  -1.0      41.208953883126824      4.2629952292889817      1.4209984097629935
   233   0   2   1.0      41.208953883126824        7.10499204881497      1.4209984097629935
   234   0   2   1.0      41.208953883126824      9.9469888683409593      4.2629952292889817
   235   0   2   1.0      44.050950702652813        7.10499204881497      4.2629952292889817
   236   0   2   1.0      44.050950702652813      9.9469888683409593       1.420998409762994
   237   0   1  -1.0      44.050950702652813        7.10499204881497      1.4209984097629937
   238   0   1  -1.0      44.050950702652813      9.9469888683409593      4.2629952292889826
   239   0   1  -1.0      41.208953883126824        7.10499204881497      4.2629952292889817
   240   0   1  -1.0      41.208953883126824      9.9469888683409593      1.4209984097629937
   241   0   2   1.0      41.208953883126824      12.788985687866946      1.4209984097629937
   242   0   2   1.0      41.208953883126824      15.630982507392934      4.2629952292889817
   243   0   2   1.0      44.050950702652813      12.788985687866946      4.2629952292889817
   244   0   2   1.0      44.050950702652813      15.630982507392934       1.420998409762994
   245   0   1  -1.0      44.050950702652813      12.788985687866946      1.4209984097629937
   246   0   1  -1.0      44.050950702652813      15.630982507392934      4.2629952292889826
   247   0   1  -1.0      41.208953883126824      12.788985687866946      4.2629952292889817
   248   0   1  -1.0      41.208953883126824      15.630982507392934      1.4209984097629937
   249   0   2   1.0      41.208953883126824      18.472979326918921       1.420998409762994
   250   0   2   1.0      41.208953883126824      21.314976146444913      4.2629952292889817
   251   0   2   1.0      44.050950702652813      18.472979326918921      4.2629952292889817
   252   0   2   1.0      44.050950702652813      21.314976146444913      1.4209984097629942
   253   0   1  -1.0      44.050950702652813      18.472979326918921      1.4209984097629942
   254   0   1  -1.0      44.050950702652813      21.314976146444913      4.2629952292889817
   255   0   1  -1.0      41.208953883126824      18.472979326918921      4.2629952292889826
   256   0   1  -1.0      41.208953883126824      21.314976146444913      1.4209984097629942
   257   0   3   1.0      46.892947522178801      1.4209984097629937      1.4209984097629935
   258   0   3   1.0      46.892947522178801      4.2629952292889817      4.2629952292889817
   259   0   3   1.0      49.734944341704789      1.4209984097629937      4.2629952292889817
   260   0   3   1.0      49.734944341704789      4.2629952292889817       1.420998409762994
   261   0   1  -1.0      49.734944341704789      1.4209984097629937      1.4209984097629937
   262   0   1  -1.0      49.734944341704789      4.2629952292889817      4.2629952292889826
   263   0   1  -1.0      46.892947522178801      1.4209984097629937      4.2629952292889817
   264   0   1  -1.0      46.892947522178801      4.2629952292889817      1.4209984097629937
   265   0   3   1.0      46.892947522178801        7.10499204881497       1.420998409762994
   266   0   3   1.0      46.892947522178801      9.9469888683409593      4.2629952292889817
   267   0   3   1.0      49.734944341704789        7.10499204881497      4.2629952292889817
   268   0   3   1.0      49.734944341704789      9.9469888683409593       1.420998409762994
   269   0   1  -1.0      49.734944341704789        7.10499204881497       1.420998409762994
   270   0   1  -1.0      49.734944341704789      9.9469888683409593      4.2629952292889826
   271   0   1  -1.0      46.892947522178801        7.10499204881497      4.2629952292889817
   272   0   1  -1.0      46.892947522178801      9.9469888683409593       1.420998409762994
   273   0   3   1.0      46.892947522178801      12.788985687866946       1.420998409762994
   274   0   3   1.0      46.892947522178801      15.630982507392934      4.2629952292889826
   275   0   3   1.0      49.734944341704789      12.788985687866946      4.2629952292889826
   276   0   3   1.0      49.734944341704789      15.630982507392934      1.4209984097629942
   277   0   1  -1.0      49.734944341704789      12.788985687866946      1.4209984097629942
   278   0   1  -1.0      49.734944341704789      15.630982507392934      4.2629952292889826
   279   0   1  -1.0      46.892947522178801      12.788985687866946      4.2629952292889826
   280   0   1  -1.0      46.892947522178801      15.630982507392934      1.4209984097629942
   281   0   3   1.0      46.892947522178801      18.472979326918921      1.4209984097629942
   282   0   3   1.0      46.892947522178801      21.314976146444913      4.2629952292889817
   283   0   3   1.0      49.734944341704789      18.472979326918921      4.2629952292889817
   284   0   3   1.0      49.734944341704789      21.314976146444913      1.4209984097629946
   285   0   1  -1.0      49.734944341704789      18.472979326918921      1.4209984097629944
   286   0   1  -1.0      49.734944341704789      21.314976146444913      4.2629952292889834
   287   0   1  -1.0      46.892947522178801      18.472979326918921      4.2629952292889817
   288   0   1  -1.0      46.892947522178801      21.314976146444913      1.4209984097629944
   289   0   3   1.0      52.576941161230778      1.4209984097629937       1.420998409762994
   290   0   3   1.0      52.576941161230778      4.2629952292889817      4.2629952292889817
   291   0   3   1.0      55.418937980756766      1.4209984097629937      4.2629952292889817
   292   0   3   1.0      55.418937980756766      4.2629952292889817      1.4209984097629942
   293   0   1  -1.0      55.418937980756766      1.4209984097629937       1.420998409762994
   294   0   1  -1.0      55.418937980756766      4.2629952292889817      4.2629952292889826
   295   0   1  -1.0      52.576941161230778      1.4209984097629937      4.2629952292889817
   296   0   1  -1.0      52.576941161230778      4.2629952292889817       1.420998409762994
   297   0   3   1.0      52.576941161230778        7.10499204881497      1.4209984097629942
   298   0   3   1.0      52.576941161230778      9.9469888683409593      4.2629952292889826
   299   0   3   1.0      55.418937980756766        7.10499204881497      4.2629952292889826
   300   0   3   1.0      55.418937980756766      9.9469888683409593      1.4209984097629942
   301   0   1  -1.0      55.418937980756766        7.10499204881497      1.4209984097629944
   302   0   1  -1.0      55.418937980756766      9.9469888683409593      4.2629952292889826
   303   0   1  -1.0      52.576941161230778        7.10499204881497      4.2629952292889826
   304   0   1  -1.0      52.576941161230778      9.9469888683409593      1.4209984097629942
   305   0   3   1.0      52.576941161230778      12.788985687866946      1.4209984097629942
   306   0   3   1.0      52.576941161230778      15.630982507392934      4.2629952292889826
   307   0   3   1.0      55.418937980756766      12.788985687866946      4.2629952292889826
   308   0   3   1.0      55.418937980756766      15.630982507392934      1.4209984097629946
   309   0   1  -1.0      55.418937980756766      12.788985687866946      1.4209984097629944
   310   0   1  -1.0      55.418937980756766      15.630982507392934      4.2629952292889834
   311   0   1  -1.0      52.576941161230778      12.788985687866946      4.2629952292889826
   312   0   1  -1.0      52.576941161230778      15.630982507392934      1.4209984097629944
   313   0   3   1.0      52.576941161230778      18.472979326918921      1.4209984097629946
   314   0   3   1.0      52.576941161230778      21.314976146444913      4.2629952292889817
   315   0   3   1.0      55.418937980756766      18.472979326918921      4.2629952292889817
   316   0   3   1.0      55.418937980756766      21.314976146444913      1.4209984097629949
   317   0   1  -1.0      55.418937980756766      18.472979326918921      1.4209984097629949
   318   0   1  -1.0      55.418937980756766      21.314976146444913      4.2629952292889834
   319   0   1  -1.0      52.576941161230778      18.472979326918921      4.2629952292889817