LAMMPS (29 Sep 2021 - Update 3)
OMP_NUM_THREADS environment is not set. Defaulting to 1 thread. (src/comm.cpp:98)
  using 1 OpenMP thread(s) per MPI task
units	metal
atom_style	full

read_data	mixed.data
Reading data file ...
  orthogonal box = (0.0000000 0.0000000 0.0000000) to (19.147970 18.143486 83.460053)
  2 by 1 by 8 MPI processor grid
  reading atoms ...
  864 atoms
Finding 1-2 1-3 1-4 neighbors ...
  special bond factors lj:    0        0        0       
  special bond factors coul:  0        0        0       
     0 = max # of 1-2 neighbors
     0 = max # of 1-3 neighbors
     0 = max # of 1-4 neighbors
     1 = max # of special neighbors
  special bonds CPU = 0.002 seconds
  read_data CPU = 0.030 seconds

pair_style	quip
pair_coeff	* * /ocean/projects/cts180021p/wuziqi/clease/mint-PD/PhaseDiagram-Clease/Liquid/GAP_potential/gap_LiKCl.xml "Potential xml_label=GAP_2021_9_27_0_1_17_37_618" 17 19 3

neighbor	0.3 bin
neigh_modify	delay 10

timestep	0.001
compute	msd all msd
thermo_style	custom step temp pe etotal press vol c_msd[4]
thermo	10
dump	1 all custom 10 xyz-mix.dump type id x y z
dump	2 all custom 10 force-mix.dump type id fx fy fz

fix     1 all nve
run     2000
Neighbor list info ...
  update every 1 steps, delay 10 steps, check yes
  max neighbors/atom: 2000, page size: 100000
  master list distance cutoff = 6.22
  ghost atom cutoff = 6.22
  binsize = 3.11, bins = 7 6 27
  1 neighbor lists, perpetual/occasional/extra = 1 0 0
  (1) pair quip, perpetual
      attributes: full, newton on
      pair build: full/bin
      stencil: full/bin/3d
      bin: standard
Per MPI rank memory allocation (min/avg/max) = 8.888 | 8.895 | 8.900 Mbytes
Step Temp PotEng TotEng Press Volume c_msd[4] 
       0            0   -7700.8381   -7700.8381    -4537.927    28994.935            0 
      10    45.183944    -7705.883   -7700.8427   -4512.0438    28994.935 0.00030079645 
      20    126.64468   -7714.9757   -7700.8483   -4255.0047    28994.935 0.0038182906 
      30    177.09989   -7720.6021   -7700.8463   -3781.1412    28994.935  0.013459324 
      40    209.87694   -7724.2579   -7700.8458    -3431.074    28994.935  0.027221013 
      50    241.22837   -7727.7551   -7700.8457   -3411.1653    28994.935  0.041726522 
      60    268.67173    -7730.818   -7700.8473   -3593.0662    28994.935  0.056043827 
      70     275.0391   -7731.5278   -7700.8468   -3607.6817    28994.935  0.071357203 
      80    265.25817   -7730.4352   -7700.8452   -3405.9066    28994.935  0.088279141 
      90    259.20615   -7729.7596   -7700.8448   -3201.4486    28994.935   0.10567802 
     100    263.43248   -7730.2328   -7700.8465   -3100.4009    28994.935    0.1224315 
     110    261.11727   -7729.9736   -7700.8456   -3033.5725    28994.935   0.13961289 
     120    259.78415   -7729.8251   -7700.8458   -3194.7166    28994.935   0.15773106 
     130    260.98349   -7729.9594   -7700.8463   -3347.3712    28994.935   0.17623602 
     140     255.9553   -7729.3982    -7700.846   -3347.8197    28994.935    0.1944487 
     150    249.49756   -7728.6766   -7700.8447   -3322.3017    28994.935   0.21137034 
     160     254.2947   -7729.2133   -7700.8464   -3341.2107    28994.935   0.22648355 
     170    255.39364   -7729.3354   -7700.8459   -3341.1695    28994.935   0.24056013 
     180    255.33687   -7729.3285   -7700.8453   -3331.4823    28994.935   0.25386781 
     190    260.76117   -7729.9344   -7700.8461   -3386.2272    28994.935   0.26621627 
     200    264.43741   -7730.3443   -7700.8459   -3501.0887    28994.935    0.2779645 
     210    266.13355   -7730.5336    -7700.846   -3595.0956    28994.935   0.28977516 
     220     266.1185   -7730.5314   -7700.8455   -3526.2817    28994.935   0.30213735 
     230    270.18321   -7730.9847   -7700.8454   -3347.9295    28994.935   0.31516558 
     240    278.15139   -7731.8749   -7700.8467   -3118.2308    28994.935   0.32946162 
     250    277.04449   -7731.7511   -7700.8464   -2922.7818    28994.935   0.34515362 
     260    270.54869   -7731.0256   -7700.8455   -2860.0876    28994.935   0.36076902 
     270    270.26056   -7730.9936   -7700.8456   -2886.6638    28994.935    0.3744656 
     280    273.36059   -7731.3402   -7700.8465   -2958.6022    28994.935   0.38584739 
     290    272.08277    -7731.197   -7700.8457   -3010.2651    28994.935   0.39576783 
     300    272.47723   -7731.2413   -7700.8461   -3100.0508    28994.935    0.4054068 
     310    271.93405   -7731.1808   -7700.8461   -3197.7717    28994.935   0.41587444 
     320     269.8009   -7730.9425   -7700.8458   -3135.1867    28994.935   0.42741727 
     330    269.08948   -7730.8635   -7700.8462   -2993.1826    28994.935   0.43980783 
     340    268.16652   -7730.7603   -7700.8459   -2893.4834    28994.935   0.45291747 
     350    270.00833   -7730.9658   -7700.8459    -2886.157    28994.935   0.46637788 
     360    272.40416   -7731.2339   -7700.8468   -2898.1671    28994.935   0.47993924 
     370    268.70619   -7730.8204   -7700.8458   -2820.4785    28994.935   0.49341184 
     380    268.96819   -7730.8497   -7700.8459   -2726.7365    28994.935    0.5062241 
     390    274.33864   -7731.4496   -7700.8467   -2645.6399    28994.935   0.51814514 
     400    276.36872   -7731.6757   -7700.8464   -2560.3847    28994.935   0.52930511 
     410    276.65126   -7731.7069    -7700.846   -2480.5382    28994.935   0.53982283 
     420    279.28097   -7732.0012   -7700.8469   -2431.2553    28994.935   0.55016179 
     430    276.82132   -7731.7259   -7700.8461    -2350.253    28994.935    0.5605612 
     440    277.03673   -7731.7497   -7700.8458   -2209.9282    28994.935   0.57093397 
     450    283.29469   -7732.4489    -7700.847   -2142.7855    28994.935   0.58158636 
     460    283.18302   -7732.4358   -7700.8463   -2100.6621    28994.935   0.59293578 
     470    283.23944   -7732.4417   -7700.8459   -2099.1213    28994.935   0.60470775 
     480    287.80996   -7732.9521   -7700.8464   -2253.1287    28994.935    0.6158485 
     490    288.81392   -7733.0639   -7700.8462   -2363.7422    28994.935   0.62479236 
     500    286.12762   -7732.7647   -7700.8468   -2407.5126    28994.935   0.63109946 
     510    276.45664   -7731.6849   -7700.8457   -2333.6198    28994.935   0.63597531 
     520    272.85667   -7731.2829   -7700.8454   -2206.2639    28994.935   0.64031219 
     530    279.50156   -7732.0253   -7700.8465   -2083.3564    28994.935   0.64463616 
     540    284.37697   -7732.5687    -7700.846   -1943.8509    28994.935   0.65001402 
     550    291.30626   -7733.3418   -7700.8462   -1829.3471    28994.935   0.65693039 
     560    297.78102   -7734.0651   -7700.8471   -1833.9621    28994.935   0.66549221 
     570    293.16658   -7733.5496   -7700.8465   -1837.0313    28994.935    0.6760564 
     580    285.58978   -7732.7039   -7700.8459   -1826.5131    28994.935   0.68850487 
     590    282.56573   -7732.3668   -7700.8462   -1911.9655    28994.935    0.7021441 
     600     283.4768   -7732.4683   -7700.8461   -2073.7839    28994.935    0.7157642 
     610    287.24651   -7732.8898    -7700.847   -2293.6112    28994.935   0.72816073 
     620    284.76091   -7732.6116   -7700.8461   -2326.3579    28994.935   0.73882186 
     630    285.14211   -7732.6539   -7700.8459   -2334.4346    28994.935   0.74737438 
     640    290.36779   -7733.2378   -7700.8468   -2353.3887    28994.935    0.7538232 
     650    290.71623   -7733.2766   -7700.8467   -2278.0119    28994.935   0.75912133 
     660    288.33491   -7733.0103   -7700.8461   -2194.3759    28994.935   0.76456941 
     670    289.38519   -7733.1286   -7700.8472   -2280.7715    28994.935   0.77063577 
     680    284.08824   -7732.5372   -7700.8467   -2463.5275    28994.935   0.77689412 
     690    275.77756   -7731.6093   -7700.8459   -2595.8822    28994.935   0.78265361 
     700    273.49144   -7731.3545   -7700.8461   -2613.0856    28994.935   0.78795972 
     710       273.31   -7731.3347   -7700.8466   -2521.5258    28994.935   0.79394117 
     720    269.49383   -7730.9092   -7700.8467    -2471.479    28994.935   0.80161731 
     730    262.18364   -7730.0925   -7700.8455   -2432.3962    28994.935   0.81035929 
     740    268.03582   -7730.7459   -7700.8461   -2455.7574    28994.935   0.81713067 
     750      280.622   -7732.1512   -7700.8473   -2533.4825    28994.935   0.82146207 
     760    283.23536   -7732.4419   -7700.8466   -2512.7271    28994.935   0.82470762 
     770    282.03319   -7732.3076   -7700.8464   -2550.3227    28994.935   0.82669995 
     780    279.77355   -7732.0557   -7700.8465   -2597.5325    28994.935   0.82699219 
     790    278.93712    -7731.962   -7700.8461   -2631.8344    28994.935   0.82552909 
     800    281.08894   -7732.2026   -7700.8467   -2684.1916    28994.935   0.82315699 
     810    280.13687   -7732.0959   -7700.8463   -2681.9226    28994.935   0.82177255 
     820     281.3104   -7732.2267   -7700.8461   -2639.4626    28994.935   0.82239938 
     830    285.21728   -7732.6634    -7700.847   -2628.9625    28994.935   0.82520652 
     840    283.73704   -7732.4982   -7700.8469   -2551.7329    28994.935   0.82976691 
     850    277.96973   -7731.8542   -7700.8462   -2441.8061    28994.935   0.83512428 
     860    278.46628   -7731.9092   -7700.8458    -2451.403    28994.935   0.84001546 
     870     286.3188   -7732.7868   -7700.8475   -2562.6227    28994.935   0.84379749 
     880    284.94265   -7732.6322   -7700.8465   -2543.1687    28994.935   0.84689222 
     890    282.26548   -7732.3331    -7700.846   -2457.3709    28994.935   0.84934875 
     900    285.50422   -7732.6948   -7700.8464   -2420.2274    28994.935   0.85157652 
     910    289.66708   -7733.1596   -7700.8468   -2414.4195    28994.935   0.85497176 
     920    289.15743   -7733.1025   -7700.8466   -2444.5638    28994.935   0.85995223 
     930    286.27915    -7732.781   -7700.8462   -2572.7025    28994.935   0.86509978 
     940    285.95089   -7732.7444   -7700.8462   -2776.6718    28994.935   0.86904324 
     950    288.49376   -7733.0284   -7700.8465   -2889.1908    28994.935   0.87143422 
     960    289.92569   -7733.1882   -7700.8466   -2832.2639    28994.935   0.87230061 
     970     289.5038   -7733.1411   -7700.8465   -2634.1457    28994.935   0.87176043 
     980    287.47267   -7732.9147   -7700.8467   -2412.0947    28994.935   0.87065618 
     990    285.00128   -7732.6385   -7700.8462   -2204.4549    28994.935   0.87041092 
    1000     286.6964   -7732.8282   -7700.8468   -2219.8679    28994.935   0.87192888 
    1010    285.76351   -7732.7245   -7700.8471   -2431.4357    28994.935   0.87520227 
    1020    279.23305   -7731.9951   -7700.8462   -2663.3857    28994.935   0.87962384 
    1030    276.12451   -7731.6483   -7700.8462   -2859.1863    28994.935   0.88430034 
    1040    278.85999   -7731.9537   -7700.8465    -2881.783    28994.935   0.88821373 
    1050    283.63264   -7732.4862   -7700.8465   -2806.0208    28994.935   0.89127233 
    1060    287.45819   -7732.9134    -7700.847   -2784.5081    28994.935   0.89438156 
    1070    287.50721   -7732.9183   -7700.8464    -2666.725    28994.935   0.89833559 
    1080     288.3388   -7733.0115   -7700.8468   -2554.5321    28994.935   0.90295372 
    1090    287.72687   -7732.9434   -7700.8471    -2449.256    28994.935   0.90791379 
    1100    282.26879   -7732.3342   -7700.8467   -2349.9216    28994.935   0.91319332 
    1110    278.17476   -7731.8766   -7700.8457   -2362.6978    28994.935   0.91830915 
    1120    285.00574   -7732.6397   -7700.8469   -2476.5807    28994.935   0.92287415 
    1130    291.73084   -7733.3901   -7700.8471   -2509.8798    28994.935   0.92706174 
    1140    292.56331   -7733.4827   -7700.8468   -2461.8775    28994.935   0.93059884 
    1150    291.16272   -7733.3259   -7700.8462   -2379.8012    28994.935   0.93290929 
    1160    294.20611   -7733.6658   -7700.8466   -2430.1845    28994.935   0.93429138 
    1170    296.65171   -7733.9391   -7700.8472     -2519.69    28994.935   0.93626719 
    1180    293.48989   -7733.5857   -7700.8465   -2544.9247    28994.935     0.939758 
    1190    292.32791   -7733.4561   -7700.8465   -2544.6809    28994.935   0.94403649 
    1200    292.54359   -7733.4805   -7700.8469    -2530.558    28994.935   0.94834108 
    1210    290.86487   -7733.2928   -7700.8464   -2465.9334    28994.935   0.95245077 
    1220    291.85186   -7733.4031   -7700.8466   -2358.3836    28994.935   0.95556404 
    1230    293.44413    -7733.581   -7700.8469   -2284.1551    28994.935    0.9573295 
    1240    292.76049   -7733.5044   -7700.8465   -2170.6219    28994.935   0.95845355 
    1250    293.13798   -7733.5467   -7700.8467   -2103.9544    28994.935   0.95986863 
    1260    292.96803    -7733.528    -7700.847   -2167.4504    28994.935   0.96196013 
    1270    289.24985   -7733.1127   -7700.8464   -2276.5202    28994.935   0.96415629 
    1280    285.75102   -7732.7224   -7700.8464   -2286.5297    28994.935   0.96566897 
    1290      284.651   -7732.5992    -7700.846   -2272.9878    28994.935   0.96658717 
    1300    288.60829   -7733.0414   -7700.8467   -2265.8955    28994.935   0.96788144 
    1310    290.24478    -7733.224   -7700.8467   -2190.3822    28994.935    0.9706072 
    1320    288.58259   -7733.0384   -7700.8466   -2131.8835    28994.935   0.97434843 
    1330    285.79594   -7732.7273   -7700.8463   -2097.4449    28994.935   0.97833796 
    1340    284.94721   -7732.6325   -7700.8462   -2025.5076    28994.935   0.98199327 
    1350    288.56733   -7733.0366   -7700.8465   -1879.3769    28994.935    0.9842258 
    1360    294.42631   -7733.6904   -7700.8467   -1741.8221    28994.935   0.98424419 
    1370    297.49937   -7734.0339   -7700.8474   -1667.3381    28994.935   0.98285555 
    1380    292.74623   -7733.5025   -7700.8462   -1608.0865    28994.935   0.98190459 
    1390    292.14101   -7733.4347   -7700.8459   -1576.6018    28994.935   0.98232817 
    1400    301.24748   -7734.4513   -7700.8467   -1571.9358    28994.935   0.98457679 
    1410    308.74525   -7735.2887   -7700.8477   -1627.6249    28994.935   0.98929211 
    1420    303.47704   -7734.6996   -7700.8463   -1559.3261    28994.935   0.99584973 
    1430    299.27771   -7734.2314   -7700.8465   -1560.2881    28994.935    1.0022596 
    1440    296.07219   -7733.8739   -7700.8466   -1645.0073    28994.935    1.0075133 
    1450    291.73802   -7733.3904   -7700.8466   -1761.2712    28994.935    1.0117171 
    1460    287.07709   -7732.8704   -7700.8466   -1858.1077    28994.935    1.0153184 
    1470    283.25203   -7732.4433   -7700.8461   -1859.1758    28994.935    1.0193785 
    1480    285.43138   -7732.6869   -7700.8466   -1822.6605    28994.935     1.024986 
    1490    289.90651   -7733.1866   -7700.8471   -1845.5531    28994.935    1.0319924 
    1500    290.00682   -7733.1976   -7700.8469   -1829.6868    28994.935    1.0392423 
    1510    288.95403   -7733.0793    -7700.846    -1792.572    28994.935    1.0455821 
    1520    295.71659   -7733.8347    -7700.847   -1855.4847    28994.935    1.0502501 
    1530    300.00567   -7734.3136   -7700.8475   -1884.0491    28994.935    1.0536411 
    1540    296.05902   -7733.8724   -7700.8466    -1822.818    28994.935    1.0568576 
    1550    294.34188   -7733.6807   -7700.8464   -1777.7282    28994.935    1.0604411 
    1560    298.19535   -7734.1112    -7700.847   -1665.6338    28994.935    1.0645653 
    1570    299.64452   -7734.2738    -7700.848   -1440.2495    28994.935    1.0694105 
    1580    292.64469   -7733.4917   -7700.8467   -1277.6152    28994.935     1.074918 
    1590    291.80684   -7733.3982   -7700.8467   -1332.1552    28994.935    1.0805049 
    1600    295.06101   -7733.7628   -7700.8483   -1440.1438    28994.935    1.0859126 
    1610    287.09163   -7732.8718   -7700.8463   -1485.4826    28994.935     1.091018 
    1620    286.48969   -7732.8047   -7700.8463   -1689.2872    28994.935    1.0951954 
    1630    293.71975   -7733.6125   -7700.8476   -1988.5087    28994.935    1.0988049 
    1640    292.89599   -7733.5202   -7700.8473   -2234.1959    28994.935    1.1028795 
    1650    285.80089    -7732.728   -7700.8465   -2370.0192    28994.935     1.107297 
    1660    283.13292   -7732.4301   -7700.8462   -2397.8467    28994.935    1.1109226 
    1670    289.15974   -7733.1032    -7700.847   -2351.0065    28994.935    1.1128534 
    1680    293.97663   -7733.6412   -7700.8477   -2320.8136    28994.935    1.1135229 
    1690    290.81385   -7733.2871   -7700.8464    -2229.079    28994.935    1.1138195 
    1700    291.76806    -7733.394   -7700.8469     -2159.57    28994.935    1.1136614 
    1710    294.02161   -7733.6456   -7700.8471   -2087.1354    28994.935    1.1134744 
    1720    294.14467   -7733.6593    -7700.847   -2007.8553    28994.935    1.1142792 
    1730    292.64536   -7733.4921   -7700.8471   -1906.6844    28994.935    1.1170331 
    1740    289.08712   -7733.0952   -7700.8471   -1708.4731    28994.935    1.1223514 
    1750    285.80556   -7732.7285   -7700.8464   -1570.4904    28994.935    1.1294849 
    1760     287.9638   -7732.9699   -7700.8471   -1527.7152    28994.935    1.1368575 
    1770    288.43964   -7733.0232   -7700.8473   -1474.3978    28994.935    1.1431943 
    1780    286.35452   -7732.7895   -7700.8462   -1374.2159    28994.935     1.147556 
    1790    290.77345   -7733.2831   -7700.8469   -1389.1814    28994.935    1.1497522 
    1800    296.05814   -7733.8725   -7700.8468   -1449.0765    28994.935    1.1507558 
    1810     301.3688   -7734.4651   -7700.8469   -1533.3472    28994.935    1.1516988 
    1820    304.48648   -7734.8131   -7700.8472   -1596.5101    28994.935    1.1539225 
    1830    302.85742    -7734.631   -7700.8468   -1598.9173    28994.935    1.1587776 
    1840    300.11343   -7734.3251    -7700.847   -1609.6044    28994.935    1.1667637 
    1850    297.67909   -7734.0531   -7700.8466   -1550.7625    28994.935    1.1770761 
    1860    299.64542    -7734.273   -7700.8471   -1446.6551    28994.935     1.187862 
    1870     300.4479   -7734.3628   -7700.8474   -1280.9239    28994.935    1.1969883 
    1880    297.75438   -7734.0614   -7700.8465   -1097.3535    28994.935    1.2026277 
    1890    300.44075   -7734.3616   -7700.8469   -1049.3061    28994.935    1.2042642 
    1900    303.94471   -7734.7532   -7700.8477   -1145.0928    28994.935    1.2033292 
    1910    299.67427   -7734.2762   -7700.8471   -1345.6827    28994.935    1.2022867 
    1920    294.22814   -7733.6682   -7700.8466   -1538.3262    28994.935    1.2030558 
    1930    294.31479   -7733.6782   -7700.8469   -1657.6619    28994.935    1.2063703 
    1940    296.08002   -7733.8751   -7700.8469   -1611.8933    28994.935    1.2121107 
    1950    298.47477   -7734.1425   -7700.8472   -1385.7061    28994.935    1.2194675 
    1960    298.47034   -7734.1418    -7700.847   -1084.0269    28994.935    1.2273777 
    1970    298.87552   -7734.1869   -7700.8469   -898.13371    28994.935    1.2348923 
    1980    299.98792   -7734.3117   -7700.8476   -807.05202    28994.935     1.241364 
    1990    297.18456   -7733.9979   -7700.8465   -843.22149    28994.935     1.246939 
    2000    299.90649   -7734.3021   -7700.8471   -1051.7337    28994.935    1.2522542 
Loop time of 999.628 on 16 procs for 2000 steps with 864 atoms

Performance: 0.173 ns/day, 138.837 hours/ns, 2.001 timesteps/s
97.8% CPU use with 16 MPI tasks x 1 OpenMP threads

MPI task timing breakdown:
Section |  min time  |  avg time  |  max time  |%varavg| %total
---------------------------------------------------------------
Pair    | 677.73     | 818.21     | 988.69     | 342.5 | 81.85
Bond    | 0.00014472 | 0.00036837 | 0.0009861  |   0.0 |  0.00
Neigh   | 0.01809    | 0.023164   | 0.027171   |   1.6 |  0.00
Comm    | 8.5284     | 173.76     | 321.04     | 750.0 | 17.38
Output  | 0.64431    | 4.7144     | 10.71      | 168.6 |  0.47
Modify  | 0.0079379  | 0.0098122  | 0.016176   |   2.2 |  0.00
Other   |            | 2.914      |            |       |  0.29

Nlocal:        54.0000 ave          63 max          44 min
Histogram: 2 0 2 1 2 3 2 1 0 3
Nghost:        408.438 ave         459 max         374 min
Histogram: 2 2 1 1 5 3 0 0 1 1
Neighs:         0.00000 ave           0 max           0 min
Histogram: 16 0 0 0 0 0 0 0 0 0
FullNghs:      1578.38 ave        2029 max        1152 min
Histogram: 2 1 2 1 2 3 2 0 1 2

Total # of neighbors = 25254
Ave neighs/atom = 29.229167
Ave special neighs/atom = 0.0000000
Neighbor list builds = 199
Dangerous builds = 198
unfix   1

velocity    all create 450.0 1312343 dist gaussian
fix     2 all npt temp 450.0 450.0 $(100.0*dt) aniso 0.0 1.01325 $(1000.0*dt)
fix     2 all npt temp 450.0 450.0 0.10000000000000000555 aniso 0.0 1.01325 $(1000.0*dt)
fix     2 all npt temp 450.0 450.0 0.10000000000000000555 aniso 0.0 1.01325 1
run     3000
Per MPI rank memory allocation (min/avg/max) = 8.892 | 8.897 | 8.900 Mbytes
Step Temp PotEng TotEng Press Volume c_msd[4] 
    2000          450   -7734.3021   -7684.1039   -434.94802    28994.935    1.2522542 
    2010    426.22707   -7731.6421   -7684.0958   -264.49812    28994.029    1.2587226 
    2020    396.75728   -7728.2998   -7684.0409   -182.08991    28991.843     1.265503 
    2030    384.99311   -7726.8366     -7683.89   -216.37516    28988.758    1.2691536 
    2040     379.3965   -7725.9375   -7683.6153   -295.20338     28984.66    1.2701871 
    2050    374.69446   -7725.0107    -7683.213   -417.04988    28979.161    1.2712809 
    2060    375.63388   -7724.6041   -7682.7016   -574.84498    28971.684    1.2742689 
    2070    378.21529   -7724.3195    -7682.129   -665.83025    28961.555    1.2797537 
    2080    378.17744   -7723.7561   -7681.5698   -636.01978    28948.338    1.2875011 
    2090    383.90372   -7723.8898   -7681.0648   -450.93476    28932.196    1.2967209 
    2100     388.3125   -7723.9273   -7680.6105   -232.76558    28913.938    1.3067577 
    2110    389.68859   -7723.6559   -7680.1855   -122.43528    28894.521    1.3168043 
    2120    394.84322   -7723.8077   -7679.7623   -137.65594    28874.452    1.3257097 
    2130    396.28248   -7723.5278   -7679.3219   -167.10483    28853.709    1.3328339 
    2140    393.42387   -7722.7448   -7678.8578   -162.44822    28832.187    1.3381686 
    2150    394.37499   -7722.3557   -7678.3625   -168.09892    28809.872    1.3414507 
    2160    400.23721   -7722.4797   -7677.8327    -109.3569    28786.762    1.3432773 
    2170    403.46391   -7722.2852   -7677.2782    30.168421    28763.132    1.3454321 
    2180    407.90067   -7722.2152   -7676.7132    153.74082    28739.603    1.3493905 
    2190    412.09401   -7722.1151   -7676.1454    129.69949    28716.691    1.3560498 
    2200    408.80489   -7721.1886   -7675.5858    66.119257    28694.329    1.3655823 
    2210    401.86763   -7719.8623   -7675.0334    8.7297013    28672.245    1.3765026 
    2220    402.03467    -7719.324   -7674.4764   -121.28391    28650.131    1.3866778 
    2230    407.06258   -7719.3149   -7673.9064   -130.05548    28627.494    1.3953814 
    2240    417.60045   -7719.9126   -7673.3287   -142.42477    28604.231    1.4029748 
    2250    427.16188   -7720.4051   -7672.7546   -112.65847    28580.317     1.409966 
    2260    424.16279   -7719.5142   -7672.1982    52.589915    28555.929    1.4167754 
    2270     422.6798   -7718.8085   -7671.6579    182.73572    28531.759    1.4233771 
    2280    426.94578   -7718.7472   -7671.1208    139.64488    28508.351    1.4307711 
    2290    427.19874   -7718.2453   -7670.5907   -16.339645    28485.542      1.44005 
    2300    418.96986   -7716.8078   -7670.0711   -133.07405    28462.684    1.4507598 
    2310    418.13609   -7716.1928   -7669.5491   -173.36331    28439.264    1.4610052 
    2320    423.01056   -7716.1979   -7669.0105   -94.341287    28415.124    1.4698178 
    2330     426.4464   -7716.0337    -7668.463    -2.007324    28390.569    1.4775049 
    2340    437.18688   -7716.6864   -7667.9175    18.343258    28366.009    1.4841512 
    2350    443.93524   -7716.9067    -7667.385    83.584149    28341.596     1.489748 
    2360    450.17848   -7717.0992   -7666.8811    280.12821    28317.657    1.4947083 
    2370    456.89098   -7717.3762   -7666.4093    488.62408    28294.994    1.4999574 
    2380    457.50403   -7717.0134   -7665.9782    744.46643    28274.565    1.5060286 
    2390     458.3393   -7716.7194    -7665.591    923.47099    28257.445    1.5124758 
    2400    458.77451   -7716.4224   -7665.2455    962.11969    28244.394    1.5191903 
    2410    453.11604   -7715.4835   -7664.9378    929.49678    28235.604     1.525822 
    2420    445.08896   -7714.3048   -7664.6545    926.24844    28230.954    1.5309565 
    2430    438.72129   -7713.3139   -7664.3739    845.75218    28230.391     1.532976 
    2440    442.75198   -7713.4693   -7664.0796     683.5827    28233.584    1.5321975 
    2450    449.84556   -7713.9547   -7663.7738    562.67753    28239.862    1.5316548 
    2460    448.94928   -7713.5507   -7663.4697    549.67819    28248.726    1.5339876 
    2470    452.05256   -7713.5996   -7663.1725    452.87675    28260.033    1.5395923 
    2480    457.13077   -7713.8747   -7662.8811    210.41208    28273.329     1.547488 
    2490    454.92021   -7713.3546   -7662.6075    109.34364     28287.68    1.5555068 
    2500    450.68876   -7712.6296   -7662.3546    256.89285    28302.677    1.5614367 
    2510    460.12694   -7713.4446   -7662.1167    516.96978    28318.908    1.5649175 
    2520    469.97865   -7714.3292   -7661.9024    840.37151    28337.545    1.5678849 
    2530    467.75919   -7713.9149   -7661.7357    1073.4546    28359.984    1.5723836 
    2540    458.97814   -7712.8169   -7661.6172    1295.4647    28387.317    1.5788818 
    2550     457.4296   -7712.5568   -7661.5299    1390.8362    28420.509    1.5857692 
    2560    464.98613   -7713.3315   -7661.4616    1252.2659     28459.97    1.5908562 
    2570    472.23544   -7714.0982   -7661.4196    1010.2174    28505.133    1.5935302 
    2580    467.76024   -7713.5934    -7661.414    816.23902    28554.967    1.5948342 
    2590    467.16391   -7713.5581   -7661.4453    603.94042     28608.54    1.5959503 
    2600    471.04491     -7714.06   -7661.5142    397.43213    28664.852    1.5975741 
    2610    466.96945   -7713.7164   -7661.6253    253.20647    28722.935    1.5992488 
    2620    466.53649   -7713.8186   -7661.7757   -18.287642    28782.011    1.6000612 
    2630     461.4363   -7713.4254   -7661.9515   -413.57264    28840.755    1.6010196 
    2640    453.10679    -7712.683   -7662.1382   -814.99505    28897.323    1.6040563 
    2650    450.75711   -7712.6057   -7662.3231    -1296.965    28949.746    1.6095555 
    2660    448.55147   -7712.5375    -7662.501   -1674.9088    28995.835    1.6163403 
    2670     450.8948   -7712.9792   -7662.6812   -1894.0694    29033.837    1.6223252 
    2680    451.46904   -7713.2369   -7662.8748   -1951.6288    29062.725    1.6260469 
    2690    448.34248   -7713.0947   -7663.0814   -1877.3284    29082.284    1.6275692 
    2700    443.43978   -7712.7581   -7663.2917    -1781.869    29092.877    1.6281169 
    2710    437.72128   -7712.3182   -7663.4897   -1731.2711    29094.999    1.6289045 
    2720    437.55656   -7712.4781    -7663.668   -1733.6594    29088.938    1.6298991 
    2730    436.74508   -7712.5433   -7663.8237   -1568.2472    29074.862    1.6303443 
    2740    445.35951     -7713.64   -7663.9595   -1322.1538      29053.6    1.6294741 
    2750     461.4737    -7715.573   -7664.0949   -1168.2445    29026.293    1.6280552 
    2760    463.51317   -7715.9614   -7664.2558   -969.18547    28993.813    1.6279518 
    2770    453.28936   -7715.0057   -7664.4406   -625.33348    28957.208    1.6294467 
    2780    450.29593   -7714.8597   -7664.6285   -170.21277    28918.149     1.631513 
    2790    453.96066   -7715.4513   -7664.8113    208.91735    28878.706    1.6343269 
    2800    456.90469   -7715.9625   -7664.9941    486.08665    28840.663    1.6385383 
    2810    457.39601   -7716.2138   -7665.1906    570.17571    28805.258    1.6435884 
    2820     449.5253   -7715.5416   -7665.3963    515.42336    28772.872    1.6488786 
    2830    453.60614   -7716.2107   -7665.6103    375.13243    28743.207    1.6545608 
    2840    458.59458   -7716.9947   -7665.8378    354.09117    28715.678     1.662051 
    2850    456.04005   -7716.9554   -7666.0834    455.97048    28690.164    1.6716421 
    2860    446.15729   -7716.1039   -7666.3344    510.84999    28667.028    1.6815139 
    2870    437.88404   -7715.4155   -7666.5688    536.77357    28646.505    1.6891137 
    2880    438.90517   -7715.7363   -7666.7757    455.86481    28628.641    1.6929366 
    2890    441.85982   -7716.2484   -7666.9583    289.12984    28613.053    1.6928951 
    2900     442.4006   -7716.4731   -7667.1227    124.89567    28598.969    1.6902837 
    2910    442.96935   -7716.6875   -7667.2736    69.726824    28585.663    1.6876328 
    2920    438.70609   -7716.3462   -7667.4078    200.30812    28572.907    1.6876867 
    2930    436.81116   -7716.2451   -7667.5182    393.67766    28561.234    1.6910222 
    2940    440.53033   -7716.7433   -7667.6015    488.50265    28551.439    1.6955605 
    2950    442.83318   -7717.0648   -7667.6661    554.55031    28543.972    1.6991899 
    2960    435.18478   -7716.2572   -7667.7117    537.05179    28539.078    1.7011883 
    2970    437.33676   -7716.5176    -7667.732    381.70508    28536.615    1.7016286 
    2980    446.74354    -7717.565   -7667.7301    113.43467    28535.867    1.7022774 
    2990    441.54032   -7716.9693   -7667.7148   -112.51061    28535.664    1.7048476 
    3000    432.06113   -7715.8764   -7667.6794   -156.90883    28535.031    1.7082665 
    3010    427.52495   -7715.2937   -7667.6026   -92.281815    28533.742    1.7107396 
    3020    432.15401   -7715.6814    -7667.474   -17.807437    28532.069    1.7116353 
    3030     445.5765   -7717.0036   -7667.2989    103.27954    28530.364    1.7110131 
    3040    450.42504   -7717.3417   -7667.0961    181.94655    28529.124    1.7099175 
    3050    448.32183    -7716.893    -7666.882    161.41783    28528.685    1.7088406 
    3060    448.13745   -7716.6477   -7666.6573    187.36617    28529.022    1.7077952 
    3070    449.81785   -7716.5962   -7666.4183    276.78331    28530.238    1.7077371 
    3080    454.29256   -7716.8416   -7666.1646    468.43303     28532.75    1.7096192 
    3090    460.51896   -7717.2832   -7665.9116    559.05222    28537.291    1.7137976 
    3100     456.7238   -7716.6209   -7665.6727     621.7703    28544.306    1.7202172 
    3110    458.72122   -7716.6214   -7665.4504    599.96273    28554.014    1.7272745 
    3120    464.24306   -7717.0288   -7665.2418    540.14926    28566.322    1.7337986 
    3130    461.64221   -7716.5558   -7665.0589    448.03466    28580.897    1.7406611 
    3140     446.2794   -7714.6809   -7664.8977    531.74026    28597.406     1.749437 
    3150    437.24656   -7713.5095    -7664.734    534.39931    28616.075    1.7593113 
    3160    436.89321   -7713.2779   -7664.5418    372.60395    28636.856    1.7683049 
    3170    439.81067   -7713.3776   -7664.3161    154.12114     28659.06    1.7757335 
    3180    438.80619   -7713.0076   -7664.0582   -171.59806    28681.624    1.7821986 
    3190    435.84651   -7712.3904   -7663.7711   -427.00551    28703.135    1.7878944 
    3200    439.79642   -7712.5156   -7663.4556   -557.84249    28722.454    1.7930198 
    3210     450.5914   -7713.3855   -7663.1214   -598.57445    28738.996    1.7983659 
    3220    461.97223   -7714.3291   -7662.7954   -572.73405    28752.615    1.8042293 
    3230    467.15528    -7714.623   -7662.5112   -498.95737    28763.454    1.8105336 
    3240    458.70526   -7713.4522   -7662.2829   -364.27909    28771.893    1.8180913 
    3250    455.02823    -7712.857   -7662.0979   -323.24841    28778.512    1.8272465 
    3260    465.74461   -7713.8995    -7661.945   -423.68407    28783.501    1.8373801 
    3270     471.9345   -7714.4824   -7661.8374   -442.90286    28786.527    1.8476947 
    3280    469.65286   -7714.1776   -7661.7871   -350.57799    28787.535    1.8568714 
    3290    466.89065   -7713.8699   -7661.7875   -302.91777    28786.904    1.8636977 
    3300    466.26836   -7713.8381   -7661.8252   -333.84105    28784.882    1.8690857 
    3310    468.93393   -7714.2018   -7661.8916   -326.38066    28781.382    1.8753538 
    3320    466.79561   -7714.0592   -7661.9874   -76.846213    28776.538    1.8838346 
    3330     457.4875   -7713.1337   -7662.1003    237.67871     28771.45    1.8930003 
    3340    459.42604   -7713.4666   -7662.2169    311.34003    28767.438    1.8991952 
    3350    459.50027   -7713.5895   -7662.3316    273.89136    28764.907    1.9015245 
    3360    449.68047   -7712.6039   -7662.4414    86.903291     28763.61     1.900391 
    3370    451.39119   -7712.8937   -7662.5403   -211.26258     28762.69    1.8957406 
    3380    462.89261   -7714.2732   -7662.6369   -391.15828    28760.872    1.8894882 
    3390      464.637   -7714.5796   -7662.7487   -333.05642    28757.388    1.8846678 
    3400    457.45157   -7713.9007   -7662.8713   -215.00102    28752.471    1.8825011 
    3410    458.01892   -7714.0903   -7662.9976   -183.66415    28746.633    1.8819545 
    3420    454.92463   -7713.8687   -7663.1212   -125.49107      28740.1    1.8818213 
    3430    455.31833   -7714.0319   -7663.2405   -237.65911    28733.034    1.8808981 
    3440     458.1863   -7714.4685   -7663.3571   -319.68145    28725.018     1.879023 
    3450    463.26963   -7715.1577   -7663.4792   -154.73835    28715.785    1.8763591 
    3460    471.38855   -7716.2048   -7663.6207     34.01462    28705.998    1.8735732 
    3470    469.86926   -7716.2071   -7663.7924    238.57205    28696.539    1.8726651 
    3480     466.6463   -7716.0478   -7663.9927    318.69573    28688.285    1.8746123 
    3490    462.00332   -7715.7508   -7664.2137    378.82386     28681.64    1.8788942 
    3500     452.7865   -7714.9454   -7664.4364    469.90461    28676.842    1.8840571 
    3510    449.86262   -7714.8302   -7664.6474    468.63468    28674.208    1.8879492 
    3520    449.91468   -7715.0273   -7664.8386    361.49434    28673.703     1.889335 
    3530    454.86495   -7715.7569   -7665.0161    176.17959    28674.833    1.8888228 
    3540    453.42367   -7715.7674   -7665.1873    140.75399    28676.817    1.8885172 
    3550    444.05796    -7714.882   -7665.3467    210.91091    28679.453    1.8901617 
    3560     446.0606   -7715.2453   -7665.4866    273.70772    28683.026    1.8941437 
    3570    451.95879   -7716.0287   -7665.6121    289.27683    28687.793    1.9002227 
    3580    452.33092   -7716.1912    -7665.733    242.41346    28693.811    1.9079458 
    3590    453.49904   -7716.4438   -7665.8553    241.23984    28700.899    1.9158182 
    3600    447.67509   -7715.9151   -7665.9762    237.05376    28708.998    1.9222351 
    3610    438.00034   -7714.9427   -7666.0831    196.51359    28718.072    1.9261195 
    3620    430.92915   -7714.2266   -7666.1558    183.48317    28727.956     1.927188 
    3630    434.33336   -7714.6392   -7666.1886    93.457027    28738.521    1.9268528 
    3640    434.61848   -7714.6665   -7666.1842   -9.4169762    28749.391    1.9274447 
    3650    433.18376   -7714.4674   -7666.1451    9.4084781    28760.152    1.9301195 
    3660    445.33487   -7715.7535   -7666.0757   -3.9228446    28770.803    1.9348092 
    3670    456.51118   -7716.9195    -7665.995    32.780788    28781.336     1.941102 
    3680    453.75291   -7716.5404   -7665.9235    175.29222    28791.961    1.9475739 
    3690    450.58139   -7716.1271   -7665.8641    174.13324    28803.221    1.9528931 
    3700    446.78572   -7715.6434   -7665.8038     151.8445    28815.174    1.9577784 
    3710    446.23875   -7715.5145   -7665.7359     45.86029    28827.647    1.9628767 
    3720    449.47851   -7715.7931   -7665.6531   -159.90798    28840.165    1.9690014 
    3730    455.55749    -7716.377   -7665.5588   -389.97642      28851.8    1.9769707 
    3740    453.68409   -7716.0703   -7665.4612   -455.79837    28861.585    1.9862871 
    3750    447.09162   -7715.2342   -7665.3604   -339.55693    28869.258    1.9953695 
    3760     449.3539   -7715.3728   -7665.2467   -294.00677     28875.25    2.0025452 
    3770    454.63026   -7715.8283   -7665.1136   -377.87554    28879.778    2.0069048 
    3780    459.82642     -7716.26   -7664.9657   -604.41758    28882.455    2.0085185 
    3790    462.26851   -7716.3764   -7664.8096   -785.77024    28882.321    2.0086763 
    3800    452.28322   -7715.0966   -7664.6438   -757.20996    28878.646    2.0088725 
    3810    451.14996    -7714.778   -7664.4515    -623.6543    28871.553    2.0095168 
    3820    455.91973   -7715.0724   -7664.2139   -464.42884    28861.668    2.0111863 
    3830    456.61364   -7714.8676   -7663.9317   -294.29275    28849.745    2.0143316 
    3840    459.59786   -7714.8801   -7663.6113   -117.74845    28836.585    2.0190121 
    3850    459.18495   -7714.4819   -7663.2591    37.719611    28822.995    2.0248792 
    3860    459.41196    -7714.137   -7662.8889    155.36919    28809.703    2.0301799 
    3870     458.9983    -7713.714    -7662.512    172.93531    28797.216     2.033429 
    3880    456.62216   -7713.0759    -7662.139    191.46269    28785.656    2.0349718 
    3890    467.37074   -7713.9147   -7661.7788    289.46239    28775.131    2.0361347 
    3900    479.33495   -7714.9225    -7661.452    504.34244    28766.093    2.0384842 
    3910    479.74225   -7714.7087   -7661.1927    624.92147    28759.401    2.0423827 
    3920    473.45702   -7713.8258    -7661.011    520.41251    28755.535    2.0465983 
    3930    465.51558   -7712.8181   -7660.8891    347.29505    28754.084    2.0498573 
    3940    467.97612   -7713.0144    -7660.811    211.37665    28754.247    2.0524111 
    3950    469.46482   -7713.1432   -7660.7737    308.64343    28755.489    2.0560121 
    3960    466.21291    -7712.788   -7660.7813    609.48297    28758.252    2.0607501 
    3970    465.30416   -7712.7372   -7660.8318    690.34309     28763.69     2.064684 
    3980    460.45384   -7712.2813    -7660.917    650.39911    28772.264    2.0670283 
    3990    462.20727   -7712.5925   -7661.0326    416.95744    28783.711    2.0690633 
    4000    465.03088   -7713.0544   -7661.1795    137.29356     28796.99    2.0724779 
    4010    467.47592    -7713.514   -7661.3663   -147.68422    28810.836    2.0774641 
    4020    472.67183   -7714.3343   -7661.6071   -419.90944     28823.93    2.0837633 
    4030    471.07373   -7714.4613   -7661.9123   -593.71289    28835.044    2.0917704 
    4040    465.71735   -7714.2308   -7662.2794   -682.55602    28843.375    2.1018565 
    4050    456.63725   -7713.6205   -7662.6819   -636.24683    28848.555    2.1129986 
    4060    450.37003    -7713.325   -7663.0856   -524.13539    28850.793     2.122271 
    4070    446.27292   -7713.2429   -7663.4605   -418.81036    28850.591    2.1281545 
    4080    454.66731   -7714.5205   -7663.8016   -487.47016    28848.389    2.1319089 
    4090     461.6116   -7715.6182   -7664.1248    -605.9051     28843.94     2.136432 
    4100    451.12632   -7714.7493   -7664.4254   -598.76266    28836.764    2.1432229 
    4110    446.58476    -7714.502   -7664.6848   -555.93325     28826.88    2.1503377 
    4120    452.28126   -7715.3573   -7664.9046   -541.80976    28814.464    2.1563344 
    4130    451.43691   -7715.4526   -7665.0941   -455.72793    28799.648    2.1617159 
    4140    445.29946   -7714.9302   -7665.2563   -309.89884    28782.843    2.1671348 
    4150    441.09775   -7714.5879   -7665.3828   -243.25607     28764.69    2.1733364 
    4160    443.93532   -7714.9973   -7665.4756    -237.4924    28745.515    2.1813655 
    4170    445.07367   -7715.1925   -7665.5439   -75.130123    28725.437    2.1918242 
    4180    441.96611   -7714.8912   -7665.5892    189.05959    28705.175    2.2040556 
    4190    442.07619   -7714.9278   -7665.6136    434.58752    28685.902    2.2164463 
    4200    436.04155    -7714.254   -7665.6129    660.69964    28668.735    2.2281463 
    4210    437.20133   -7714.3538   -7665.5833     787.2738    28654.655    2.2374792 
    4220     446.2053    -7715.306   -7665.5311    776.73276      28644.2    2.2430104 
    4230    446.79884   -7715.3118   -7665.4707    774.24866    28637.372     2.246148 
    4240     444.6647    -7715.013     -7665.41    658.79266    28634.051    2.2489044 
    4250    437.87003   -7714.1845   -7665.3394    581.48785    28633.783    2.2523095 
    4260    438.67253   -7714.1827   -7665.2482    456.57404    28636.174    2.2558287 
    4270    447.34224    -7715.037   -7665.1353    180.46216    28640.577    2.2593793 
    4280     447.6213   -7714.9456   -7665.0128    134.34345    28645.904    2.2629319 
    4290    442.79144   -7714.2802   -7664.8861    250.48423    28651.895    2.2651582 
    4300    445.42853    -7714.436   -7664.7478    292.07682    28658.977    2.2648871 
    4310    454.01747   -7715.2432   -7664.5968     280.6076    28667.368    2.2630962 
    4320    464.26158   -7716.2394   -7664.4504    249.45631    28677.014    2.2618334 
    4330    462.44419   -7715.9124    -7664.326    316.25623    28687.825    2.2620056 
    4340    461.24022   -7715.6826   -7664.2305    333.66062    28700.049    2.2629821 
    4350    464.09414   -7715.9293   -7664.1589    272.63749    28713.745    2.2648822 
    4360    463.22522   -7715.7879   -7664.1145    340.86662    28728.734    2.2677388 
    4370    461.70937   -7715.6049   -7664.1005    445.00596    28745.299    2.2707558 
    4380    457.69557   -7715.1681   -7664.1115    380.71979    28763.813    2.2733286 
    4390     458.8721   -7715.3323   -7664.1444    235.64236    28784.033    2.2747439 
    4400    457.25171   -7715.2049   -7664.1977      75.7443    28805.312    2.2751002 
    4410    455.53808   -7715.0911   -7664.2752   -43.213602    28826.931    2.2751798 
    4420    451.70624   -7714.7648   -7664.3763   -159.65663    28848.313    2.2765194 
    4430    450.63179   -7714.7687      -7664.5   -315.93458    28868.904    2.2806548 
    4440     450.1744   -7714.8669   -7664.6493    -454.5733    28888.002     2.287257 
    4450    445.39495   -7714.5125    -7664.828   -508.41581    28905.017    2.2939944 
    4460    442.09244   -7714.3516   -7665.0355   -547.11739    28919.656    2.2993052 
    4470    445.45946   -7714.9611   -7665.2695   -616.89894    28931.719    2.3033694 
    4480    456.68209   -7716.4901   -7665.5466   -732.98942    28940.887     2.306368 
    4490    458.84483     -7717.07   -7665.8852   -744.30799    28946.682    2.3083315 
    4500    457.42945   -7717.3154   -7666.2885   -809.39295    28948.948    2.3094413 
    4510    455.83432   -7717.5936   -7666.7446   -846.78549    28947.452    2.3110764 
    4520    448.68392   -7717.2786   -7667.2273   -730.41848    28942.084    2.3142613 
    4530    438.14449   -7716.5702   -7667.6945   -560.08395    28933.343    2.3185269 
    4540    424.71631   -7715.4772   -7668.0994   -395.06179        28922    2.3230209 
    4550    418.48216   -7715.0966   -7668.4143   -151.47713    28908.861    2.3263938 
    4560    419.22594   -7715.4038   -7668.6385    71.271346    28895.016    2.3278086 
    4570    415.88145   -7715.1697   -7668.7775    190.74701     28881.48     2.327906 
    4580    412.33952   -7714.8302   -7668.8331      242.603    28868.814    2.3271587 
    4590     418.0333    -7715.442   -7668.8098    307.40689      28857.3    2.3255104 
    4600    431.09273   -7716.8121    -7668.723    223.80391    28847.138    2.3239371 
    4610    441.49373   -7717.8474   -7668.5981    115.72456    28838.012    2.3236569 
    4620    440.99598   -7717.6481   -7668.4544     134.2743     28829.48    2.3244095 
    4630    434.20813     -7716.73   -7668.2935    245.65858    28821.623    2.3239376 
    4640    434.16561   -7716.5395   -7668.1076    384.91334    28814.924    2.3202036 
    4650    435.79428   -7716.5077   -7667.8942    470.47024    28809.989    2.3143557 
    4660    437.94842   -7716.5115   -7667.6577    406.54727    28807.183    2.3088244 
    4670    444.53135   -7716.9916   -7667.4035    183.69486    28806.203    2.3055715 
    4680    448.78751   -7717.2059    -7667.143    18.173935     28806.12    2.3063329 
    4690    452.36027   -7717.3526   -7666.8911   -135.96713     28806.13    2.3117778 
    4700    454.11611   -7717.3139   -7666.6566   -271.58778    28805.527    2.3210652 
    4710    456.58734   -7717.3804   -7666.4473   -305.71413    28803.715    2.3313991 
    4720    457.52264   -7717.3041   -7666.2667   -231.58719    28800.534    2.3388837 
    4730    459.52761   -7717.3787   -7666.1177   -144.79291    28796.277    2.3414157 
    4740     457.3593   -7717.0185   -7665.9994   -81.305372    28791.327    2.3402132 
    4750     449.9179   -7716.0933   -7665.9043    28.675981    28786.026    2.3383029 
    4760    448.25436   -7715.8215    -7665.818    84.658638    28780.813    2.3369542 
    4770    454.97993   -7716.4897   -7665.7361    135.29562    28775.971      2.33677 
    4780    456.78224   -7716.6205   -7665.6658    109.14981    28771.696     2.339949 
    4790    453.80268    -7716.235   -7665.6127    130.99643    28767.938    2.3472213 
    4800    450.98661   -7715.8784   -7665.5702    189.87917     28764.79    2.3567608 
    4810    451.06561   -7715.8497   -7665.5327    206.62332    28762.511    2.3660301 
    4820    451.91216   -7715.9105   -7665.4991    129.84266    28761.155    2.3732689 
    4830    454.39353   -7716.1608   -7665.4725    34.129078     28760.41    2.3777107 
    4840    456.95981   -7716.4312   -7665.4567   -9.7860763    28759.842    2.3798361 
    4850    461.92404   -7716.9862   -7665.4578    34.929086    28759.268    2.3816678 
    4860    464.54207   -7717.3073   -7665.4869    14.153832    28758.825    2.3861573 
    4870    452.33857   -7716.0005   -7665.5414    37.109495    28758.464    2.3944854 
    4880    447.40617   -7715.5121   -7665.6032    168.89549    28758.333    2.4043335 
    4890    454.05595   -7716.3153   -7665.6647    252.44623    28758.965    2.4134553 
    4900    451.87077   -7716.1396   -7665.7327    313.13887    28760.779    2.4207274 
    4910    449.96871   -7716.0047     -7665.81    247.85461    28764.005    2.4251952 
    4920    449.93016   -7716.0845   -7665.8941    153.06022    28768.413    2.4273263 
    4930    447.80659   -7715.9386   -7665.9851    101.49239    28773.607    2.4289948 
    4940    443.57378   -7715.5619   -7666.0805    135.77415    28779.367    2.4318933 
    4950    440.18377   -7715.2785   -7666.1754    144.30088    28785.816    2.4362116 
    4960    441.30703   -7715.4981   -7666.2697    42.867262    28792.967    2.4409646 
    4970    436.08264   -7715.0098   -7666.3641    48.079449    28800.459    2.4447627 
    4980    436.47582   -7715.1446    -7666.455    146.63483    28808.311    2.4453896 
    4990    448.03558   -7716.5279   -7666.5488     161.1027    28816.903    2.4419334 
    5000    450.44634   -7716.9125   -7666.6645    272.10378    28826.438    2.4366418 
Loop time of 1584.29 on 16 procs for 3000 steps with 864 atoms

Performance: 0.164 ns/day, 146.694 hours/ns, 1.894 timesteps/s
97.9% CPU use with 16 MPI tasks x 1 OpenMP threads

MPI task timing breakdown:
Section |  min time  |  avg time  |  max time  |%varavg| %total
---------------------------------------------------------------
Pair    | 1011       | 1312.7     | 1567       | 474.7 | 82.86
Bond    | 0.00021982 | 0.00064218 | 0.0012679  |   0.0 |  0.00
Neigh   | 0.028988   | 0.035168   | 0.039213   |   1.7 |  0.00
Comm    | 4.8646     | 236.06     | 564.19     |1142.6 | 14.90
Output  | 1.6871     | 1.6914     | 1.755      |   1.3 |  0.11
Modify  | 6.589      | 33.763     | 102.51     | 504.9 |  2.13
Other   |            | 0.01367    |            |       |  0.00

Nlocal:        54.0000 ave          63 max          45 min
Histogram: 1 0 5 1 1 2 2 0 2 2
Nghost:        406.562 ave         440 max         385 min
Histogram: 3 2 3 2 0 1 1 2 1 1
Neighs:         0.00000 ave           0 max           0 min
Histogram: 16 0 0 0 0 0 0 0 0 0
FullNghs:      1584.88 ave        2009 max        1269 min
Histogram: 3 2 1 3 1 2 0 1 1 2

Total # of neighbors = 25358
Ave neighs/atom = 29.349537
Ave special neighs/atom = 0.0000000
Neighbor list builds = 300
Dangerous builds = 300
unfix   2

fix     3 all npt temp 450.0 450.0 $(100.0*dt) aniso 1.01325 1.01325 $(1000.0*dt)
fix     3 all npt temp 450.0 450.0 0.10000000000000000555 aniso 1.01325 1.01325 $(1000.0*dt)
fix     3 all npt temp 450.0 450.0 0.10000000000000000555 aniso 1.01325 1.01325 1
run     20000
Per MPI rank memory allocation (min/avg/max) = 8.893 | 8.898 | 8.900 Mbytes
Step Temp PotEng TotEng Press Volume c_msd[4] 
    5000    450.44634   -7716.9125   -7666.6645    272.10378    28826.438    2.4366418 
    5010    446.87875   -7716.5145   -7666.6645    414.44458    28827.182     2.431772 
    5020    442.38569   -7716.0095   -7666.6607    422.25832    28829.778    2.4291619 
    5030    438.65775    -7715.575   -7666.6421    378.26493    28834.334    2.4284836 
    5040    440.92619   -7715.7858   -7666.5999    196.29072    28840.583    2.4298016 
    5050    449.72833   -7716.7042   -7666.5363    -2.575788    28847.744    2.4338002 
    5060    450.74835   -7716.7445   -7666.4628   -90.139542    28854.968    2.4399595 
    5070    445.52463   -7716.0838   -7666.3849   -85.513124     28861.82    2.4458444 
    5080    447.08786   -7716.1671   -7666.2938    20.790841    28868.334    2.4484983 
    5090    458.14094   -7717.2931   -7666.1868    123.83023    28874.968     2.447612 
    5100    464.40837   -7717.8869   -7666.0815    175.66605     28882.17    2.4457007 
    5110    461.73512   -7717.5005   -7665.9933    168.26273    28890.194    2.4441465 
    5120    463.07476   -7717.5788   -7665.9221   -17.444694    28898.938    2.4438445 
    5130    467.32919   -7717.9989   -7665.8676   -181.77526    28907.641    2.4471849 
    5140    476.16061   -7718.9639   -7665.8475    -292.1214    28915.556    2.4548308 
    5150    480.55016   -7719.4979   -7665.8918   -503.46101    28922.089    2.4665673 
    5160    470.34382   -7718.4874   -7666.0198   -708.38348    28926.292    2.4811676 
    5170    454.98757   -7716.9774   -7666.2229   -753.80172    28927.255    2.4943618 
    5180    447.40865   -7716.3843   -7666.4752   -617.12602    28924.773    2.5017445 
    5190    450.06227   -7716.9763   -7666.7712   -420.91343    28919.418    2.5034408 
    5200    445.22313   -7716.7718   -7667.1065   -123.44223    28912.129    2.5028246 
    5210    442.13741   -7716.7866   -7667.4655    155.92345    28904.239    2.5028378 
    5220    438.83112    -7716.785   -7667.8328    375.52627     28897.03    2.5052873 
    5230    431.12322   -7716.2742   -7668.1818    553.16054    28891.535    2.5096602 
    5240    433.22969   -7716.8274      -7668.5    469.60091    28888.472     2.514667 
    5250    434.59491   -7717.2637    -7668.784    176.63931    28887.503    2.5202892 
    5260    430.63676   -7717.0695   -7669.0314   -100.14449    28887.366    2.5262217 
    5270    422.58941   -7716.3708   -7669.2303   -190.62607    28886.846    2.5317182 
    5280    423.30279    -7716.591   -7669.3709   -245.43775    28885.447    2.5359526 
    5290    436.05202   -7718.1049   -7669.4627   -413.89347    28882.834    2.5378951 
    5300    443.41989    -7718.988   -7669.5239   -484.90356    28878.335    2.5378423 
    5310    444.39726   -7719.1456   -7669.5724   -426.78016    28871.593    2.5371272 
    5320    434.70452    -7718.095    -7669.603    -182.9487    28862.902    2.5377248 
    5330    427.85554   -7717.3257   -7669.5978    144.85507    28853.331    2.5403294 
    5340    433.82049    -7717.936   -7669.5427    472.74671    28844.394    2.5442151 
    5350     444.5445    -7719.035   -7669.4454    533.67215    28837.493    2.5481146 
    5360    442.94876    -7718.733   -7669.3214    443.28536    28832.994    2.5503313 
    5370    435.01517   -7717.6981   -7669.1715    237.81726    28830.488    2.5487884 
    5380    435.68499   -7717.5794   -7668.9781    2.0851766    28829.059    2.5433128 
    5390    440.60301   -7717.8824   -7668.7325   -50.153115    28827.715    2.5375206 
    5400    442.27878    -7717.782   -7668.4452    150.55858    28826.233    2.5363524 
    5410    439.45411   -7717.1438   -7668.1221    400.65217    28825.461    2.5425483 
    5420    443.51128   -7717.2386   -7667.7643    532.36829    28826.501    2.5548518 
    5430    448.45584   -7717.4033   -7667.3774    575.16737    28830.013    2.5698841 
    5440    450.91285   -7717.2811   -7666.9811    420.16012    28836.155    2.5849591 
    5450    451.32887     -7716.94   -7666.5936    139.17253    28844.234    2.5978311 
    5460    447.23175   -7716.1156   -7666.2262   -97.592382     28853.04      2.60699 
    5470    440.20782   -7714.9903   -7665.8844   -259.07835    28861.495    2.6124068 
    5480    435.84096   -7714.1817    -7665.563   -354.49329     28868.83    2.6145561 
    5490    436.93569   -7713.9992   -7665.2584   -432.90655    28874.547    2.6151251 
    5500    439.23439   -7713.9739   -7664.9766   -429.66358    28878.332    2.6173222 
    5510    439.81426   -7713.7857   -7664.7237   -369.28142    28880.159    2.6233088 
    5520    444.33714   -7714.0685    -7664.502   -259.19531      28880.3    2.6323937 
    5530     449.7927   -7714.4872   -7664.3122   -192.65222    28879.212    2.6417606 
    5540    453.59961   -7714.7566   -7664.1569    -96.25344    28877.254    2.6483295 
    5550    463.88521   -7715.7859   -7664.0388   -99.867915    28874.801    2.6511438 
    5560    475.02303   -7716.9592   -7663.9697   -117.47733     28871.85    2.6516714 
    5570    470.97913   -7716.4984     -7663.96    13.097873    28868.383     2.651129 
    5580    460.23309   -7715.3364   -7663.9967    222.05615    28864.993    2.6493099 
    5590    456.22618   -7714.9477    -7664.055    303.83025    28862.549    2.6470241 
    5600    460.87034    -7715.538   -7664.1272    337.22164    28861.488    2.6465803 
    5610    468.83088   -7716.5203   -7664.2215    467.92072    28862.037    2.6491923 
    5620    474.08204   -7717.2408   -7664.3562    667.29636    28864.798    2.6537747 
    5630    467.39286    -7716.676   -7664.5376    884.82826    28870.737    2.6583429 
    5640    461.89311   -7716.2772   -7664.7523    825.96373    28880.769    2.6610376 
    5650    466.11788   -7716.9926   -7664.9964    630.02563    28894.734    2.6612758 
    5660    456.86363   -7716.2288    -7665.265    610.70974    28911.902    2.6599805 
    5670    444.30365   -7715.0972   -7665.5345    572.03124    28932.128    2.6576665 
    5680    442.92575   -7715.1885   -7665.7795    368.25584    28955.221    2.6547792 
    5690    446.23357   -7715.7745   -7665.9965    69.570958    28980.303    2.6530981 
    5700     443.2095   -7715.6304   -7666.1897   -145.44672    29006.071     2.653626 
    5710    435.81682   -7714.9707   -7666.3546   -215.16815    29031.528     2.654957 
    5720    430.24353   -7714.4743   -7666.4799   -172.34316    29056.327    2.6558736 
    5730    427.48256   -7714.2467   -7666.5604   -120.77304    29080.591    2.6564131 
    5740    424.25516   -7713.9208   -7666.5945    -18.57052    29104.576     2.656893 
    5750    427.38039   -7714.2575   -7666.5826    43.743094    29128.724    2.6576216 
    5760     434.1325   -7714.9529   -7666.5248   -101.83292    29153.268    2.6591608 
    5770     438.3798   -7715.3294   -7666.4274   -384.29679     29177.57    2.6615912 
    5780    441.24147   -7715.5174   -7666.2962   -713.62381    29200.282     2.664386 
    5790    452.07799   -7716.5695   -7666.1396   -959.72981    29219.851    2.6668443 
    5800    466.14108   -7717.9777    -7665.979    -1183.411     29235.03    2.6690587 
    5810    464.93684   -7717.7092   -7665.8447   -1343.2568    29244.724    2.6724917 
    5820    449.80659   -7715.9187   -7665.7421   -1495.6524    29248.079    2.6781995 
    5830    441.92485   -7714.9453   -7665.6479   -1742.9637    29244.245    2.6856544 
    5840    439.37454   -7714.5545   -7665.5416   -1876.0468    29232.088    2.6934301 
    5850    435.92153   -7714.0391   -7665.4114   -1817.6178    29210.946    2.6991741 
    5860     439.4336   -7714.2655   -7665.2461   -1594.6285    29181.026    2.7011217 
    5870    439.82619   -7714.0959   -7665.0327   -1174.9177    29143.394    2.7004831 
    5880    444.75566   -7714.3792   -7664.7661     -923.374    29099.862    2.6993025 
    5890    452.67479   -7714.9445    -7664.448    -823.8757    29051.666    2.6987415 
    5900    450.92417   -7714.3955   -7664.0943   -730.07375    28999.391    2.6993018 
    5910    456.91777   -7714.6911   -7663.7212   -725.14752    28943.494    2.7009823 
    5920     465.7854   -7715.3042   -7663.3452   -687.96805    28884.132    2.7040143 
    5930    467.68573   -7715.1627   -7662.9916   -444.20982    28821.654    2.7080223 
    5940    465.10024   -7714.5521   -7662.6695   -23.765602    28757.286    2.7121203 
    5950    464.84266   -7714.2282   -7662.3743    456.49825     28693.01    2.7152822 
    5960    465.16796   -7713.9923   -7662.1021    955.37493    28631.097    2.7168727 
    5970    468.21859   -7714.0923   -7661.8618    1353.0941     28573.81    2.7181489 
    5980    470.81495   -7714.1846   -7661.6645    1681.4515    28523.001    2.7213684 
    5990    481.64225   -7715.2571   -7661.5292    1732.8707    28480.017       2.7272 
    6000    485.09127   -7715.5905   -7661.4778    1677.1899    28445.107    2.7349344 
    6010    479.48113   -7715.0018    -7661.515    1760.0744    28418.058    2.7424191 
    6020    471.90408   -7714.2644   -7661.6228    1867.1906    28399.096    2.7478822 
    6030    467.63269   -7713.9455   -7661.7804    1960.5941    28388.634    2.7514794 
    6040    472.59446   -7714.7002   -7661.9815    1862.9829    28386.954    2.7553028 
    6050    471.55584   -7714.8253   -7662.2226    1715.9831    28393.626    2.7628695 
    6060    465.28951   -7714.3926   -7662.4889    1511.6527    28407.943    2.7748888 
    6070    464.70204   -7714.5985   -7662.7603    1245.8243    28428.971    2.7884753 
    6080    465.49828   -7714.9497   -7663.0227    1070.3939    28455.559     2.800471 
    6090    467.71934   -7715.4499   -7663.2751    1025.8554    28486.924    2.8088406 
    6100    468.35224   -7715.7654     -7663.52    940.82663    28522.773    2.8137702 
    6110    464.35767   -7715.5489   -7663.7491    684.09446    28562.661     2.817555 
    6120    464.18808   -7715.7355   -7663.9546    340.09996    28605.447    2.8232821 
    6130     467.6266   -7716.3025    -7664.138 -0.0094783018    28649.563    2.8325407 
    6140    471.20881   -7716.8783   -7664.3142   -235.67465    28693.448    2.8441285 
    6150    463.85495    -7716.238   -7664.4943   -258.48412    28736.036    2.8557173 
    6160     451.6376   -7715.0502   -7664.6694   -209.64344    28777.117    2.8660736 
    6170    445.77363   -7714.5485   -7664.8218   -165.68874    28816.886     2.876067 
    6180    452.84777   -7715.4681   -7664.9523    -230.4362    28855.488     2.888091 
    6190    463.47255   -7716.7812   -7665.0801   -354.82307     28892.62    2.9047064 
    6200    466.66527   -7717.2868   -7665.2296    -481.3297    28927.713    2.9260257 
    6210    460.55312   -7716.7781   -7665.4027   -593.10049     28960.19    2.9492478 
    6220    458.16258   -7716.6999   -7665.5912   -744.51305    28989.498    2.9710149 
    6230    452.95008   -7716.3164   -7665.7892   -804.06251    29015.016    2.9890335 
    6240    445.96315   -7715.7364   -7665.9886   -741.20961     29036.53    3.0018036 
    6250    447.86655   -7716.1434   -7666.1832   -792.61632    29054.255    3.0104532 
    6260    450.84943   -7716.6639    -7666.371    -865.3407    29068.044    3.0186627 
    6270    453.71064   -7717.1703   -7666.5582   -964.66758    29077.565    3.0294868 
    6280    443.05531   -7716.1619   -7666.7384    -887.9429    29082.519     3.044381 
    6290    434.34729   -7715.3455   -7666.8934   -816.15653    29083.239    3.0621864 
    6300    439.07091   -7715.9989   -7667.0199   -747.41835    29080.125    3.0804021 
    6310    442.64569   -7716.5044   -7667.1266   -578.98214    29073.606    3.0979715 
    6320    445.84039   -7716.9573   -7667.2231   -446.52194    29064.449    3.1151462 
    6330    446.42687   -7717.1111   -7667.3115   -240.17438    29053.368    3.1324844 
    6340    450.74944   -7717.6759   -7667.3941   -31.596428    29041.331    3.1496949 
    6350    459.01419    -7718.686   -7667.4822   -76.787603    29029.195    3.1668048 
    6360    457.84793   -7718.6644   -7667.5908   -188.22304    29016.849    3.1833703 
    6370    450.95924   -7718.0241   -7667.7189   -189.76644    29003.869    3.1976096 
    6380    446.77936   -7717.6942   -7667.8553    -157.1259      28990.2    3.2083413 
    6390     439.0419   -7716.9646   -7667.9888   -17.653055    28976.026    3.2160756 
    6400    428.14084   -7715.8583   -7668.0985    229.83177    28962.023    3.2219423 
    6410    426.80963   -7715.7825   -7668.1713    281.53522    28949.202     3.227416 
    6420    424.35271   -7715.5333   -7668.1961    217.04139    28937.836    3.2350808 
    6430     426.3022   -7715.7241   -7668.1695    79.966882    28927.621    3.2465858 
    6440     430.8398   -7716.1472   -7668.0864   -95.547719    28917.913    3.2614111 
    6450    433.52673     -7716.31   -7667.9495   -234.92563    28907.908    3.2767912 
    6460    432.74333   -7716.0313   -7667.7581   -293.71678    28896.989    3.2887067 
    6470    437.56712   -7716.3204   -7667.5092   -315.78977     28884.87    3.2941806 
    6480    441.07797   -7716.4066   -7667.2037   -275.39091    28871.489     3.293942 
    6490    439.47185   -7715.8733   -7666.8496   -188.09789    28857.049    3.2912552 
    6500    444.54325    -7716.041   -7666.4515   -111.51669    28841.936    3.2894683 
    6510    449.63898   -7716.1813   -7666.0234    -91.57259    28826.502    3.2913184 
    6520    453.07029    -7716.134   -7665.5933   -126.35451    28810.849    3.2969162 
    6530    460.48063    -7716.555   -7665.1877   -70.674601    28794.868    3.3035396 
    6540    459.03737   -7716.0346   -7664.8283     90.99909    28778.825    3.3087362 
    6550    453.45774   -7715.1094   -7664.5255    83.727294    28763.333    3.3109704 
    6560    456.92166     -7715.24   -7664.2697    21.163643    28748.414    3.3102913 
    6570    466.59802   -7716.1095   -7664.0597    61.207524    28733.855    3.3088055 
    6580    473.41031   -7716.7198   -7663.9102    60.302185    28719.747     3.309828 
    6590    473.50351   -7716.6499   -7663.8298    12.317461    28706.052    3.3155114 
    6600    472.33415   -7716.5017   -7663.8121    23.512269    28692.614    3.3244653 
    6610    466.89258   -7715.9262   -7663.8436    69.020318    28679.469     3.333086 
    6620    462.81169   -7715.5351   -7663.9077    148.70659    28666.846     3.338529 
    6630    463.60727   -7715.7127   -7663.9967    146.03943    28655.023    3.3410598 
    6640    455.69755   -7714.9354   -7664.1017     141.2122     28644.01    3.3418887 
    6650    454.64264   -7714.9267   -7664.2107    133.52498    28633.785    3.3414677 
    6660    463.84329   -7716.0698   -7664.3273    107.33013    28624.284    3.3419411 
    6670    461.64391   -7715.9582   -7664.4611    198.17232    28615.447    3.3450972 
    6680    457.12884   -7715.6044    -7664.611    178.75744    28607.566    3.3492055 
    6690    453.54137   -7715.3572    -7664.764    26.471679    28600.549    3.3523574 
    6700    458.35032    -7716.046   -7664.9163   -132.34145    28593.744    3.3547564 
    6710    466.59581   -7717.1312   -7665.0817   -214.46478    28586.441     3.358063 
    6720    464.43468   -7717.0815   -7665.2731  -0.81367145    28578.368    3.3634153 
    6730    458.04088   -7716.5772    -7665.482     207.4071    28570.365    3.3688411 
    6740    453.66498   -7716.3001   -7665.6931    222.66315    28563.316    3.3723708 
    6750     452.0256   -7716.3221   -7665.8979    253.77012    28557.391    3.3754262 
    6760     449.4776   -7716.2333   -7666.0934    411.20004    28552.732     3.381039 
    6770     444.1475   -7715.8172   -7666.2719    607.95453    28549.991    3.3904443 
    6780    447.32322   -7716.3299   -7666.4303    600.20496    28549.942    3.4021151 
    6790    455.56093   -7717.3961   -7666.5776     513.3193    28552.601    3.4143562 
    6800    463.68849   -7718.4566   -7666.7314    453.39621    28557.572     3.426539 
    6810    463.50783   -7718.6101   -7666.9051    469.00499     28564.59    3.4388424 
    6820    452.77477   -7717.5967    -7667.089    516.65489    28573.708    3.4509761 
    6830    448.81428   -7717.3316   -7667.2657     362.2141    28584.992    3.4617666 
    6840     439.2516   -7716.4161   -7667.4169     219.1177    28597.828    3.4725078 
    6850    428.16102   -7715.2816   -7667.5196    127.28019    28611.545    3.4843991 
    6860    439.41682   -7716.5904   -7667.5728   -12.409184    28625.683    3.4961809 
    6870    449.83138   -7717.7745   -7667.5951   -67.937265    28639.666    3.5071956 
    6880    462.48396   -7719.2101   -7667.6193   -130.47647      28653.2    3.5166579 
    6890    469.61297   -7720.0564   -7667.6704   -257.37886    28665.967    3.5238688 
    6900    462.55938   -7719.3544   -7667.7552    -284.8483    28677.489    3.5288873 
    6910     458.7098   -7719.0305   -7667.8607   -374.59284    28687.574    3.5324795 
    6920    463.56478   -7719.6908   -7667.9794   -483.63826    28695.854      3.53593 
    6930     461.1493   -7719.5577   -7668.1158   -511.60547    28701.884    3.5407551 
    6940    447.75919   -7718.2068   -7668.2586   -427.01389    28705.589    3.5478737 
    6950    441.60565   -7717.6477   -7668.3859   -512.22233    28707.255     3.557481 
    6960    440.58823    -7717.635   -7668.4867   -784.39107    28706.489    3.5691858 
    6970    437.57404   -7717.3718   -7668.5597   -958.99142    28702.187     3.581122 
    6980    436.34042   -7717.2787   -7668.6042   -924.84851    28693.639    3.5905103 
    6990    443.19567   -7718.0607   -7668.6215   -846.40039    28680.958    3.5949606 
    7000    460.43532   -7719.9937   -7668.6315    -818.3509    28664.502    3.5943261 
    7010    464.89971   -7720.5231   -7668.6628   -745.19061    28644.491    3.5919004 
    7020    448.84581    -7718.788   -7668.7186   -608.68342    28621.301    3.5904786 
    7030     436.4995   -7717.4587   -7668.7665   -429.24355    28595.599    3.5903669 
    7040    441.75908   -7718.0655   -7668.7866   -274.90403    28568.191    3.5919667 
    7050    447.63718   -7718.7174   -7668.7828    19.826304    28539.907    3.5973354 
    7060    447.94157   -7718.7334   -7668.7649    253.01217    28512.007    3.6070784 
    7070    451.69785   -7719.1309   -7668.7433    220.38709    28485.449    3.6181323 
    7080    453.54277     -7719.32   -7668.7266    193.94433    28460.209     3.626737 
    7090    449.72852   -7718.8818   -7668.7139    283.09735    28436.203     3.631421 
    7100     449.5881   -7718.8501   -7668.6979    432.52782      28413.8    3.6325846 
    7110    455.59447   -7719.5041   -7668.6818     576.0874    28393.623    3.6324988 
    7120    456.57923   -7719.6072   -7668.6751    649.61971    28376.262    3.6342062 
    7130     457.6994   -7719.7404   -7668.6834     599.1354    28361.979    3.6390698 
    7140    460.18296   -7720.0465   -7668.7124    537.03763    28350.557    3.6467155 
    7150    453.93611   -7719.3966   -7668.7593    591.78145     28341.74    3.6559222 
    7160    455.02711   -7719.5743   -7668.8153    679.67668    28335.678    3.6651082 
    7170     462.4204    -7720.466   -7668.8823    827.26169    28332.762    3.6744413 
    7180    456.20399   -7719.8575   -7668.9672    847.12334    28333.513    3.6854718 
    7190    443.80088   -7718.5599   -7669.0533    756.73378     28338.01    3.6985664 
    7200    447.56296   -7719.0514   -7669.1251    503.11664    28345.763    3.7130373 
    7210    453.79828   -7719.8079   -7669.1861    263.65759     28355.69    3.7294581 
    7220    452.00752   -7719.6701    -7669.248    41.020943    28366.676     3.747754 
    7230    449.70362   -7719.4744   -7669.3092   -46.666742     28377.78    3.7652724 
    7240    452.13678   -7719.8058   -7669.3692   -110.95497     28388.56      3.77947 
    7250    443.57785   -7718.9047   -7669.4229   -160.34036    28398.734    3.7906806 
    7260    432.17533   -7717.6664   -7669.4566   -124.49394    28408.118    3.7990446 
    7270    428.53261   -7717.2559   -7669.4525   -57.296654    28416.856    3.8040625 
    7280    432.42023   -7717.6458   -7669.4087   -72.788257     28425.21    3.8070341 
    7290    434.36719   -7717.7858   -7669.3315   -206.86795    28433.096    3.8109202 
    7300    431.88336   -7717.4023    -7669.225   -362.02573    28439.983    3.8177822 
    7310    427.69065   -7716.7955    -7669.086   -500.13918    28445.184    3.8284176 
    7320    432.71917   -7717.1851   -7668.9146   -571.12083    28448.103    3.8415016 
    7330    444.57777   -7718.3162   -7668.7229   -547.69853    28448.483    3.8543688 
    7340    450.54752   -7718.7928   -7668.5335   -514.43559    28446.412    3.8652344 
    7350    456.36872    -7719.275   -7668.3664   -462.28456    28442.054    3.8731532 
    7360    457.11769   -7719.2216   -7668.2294   -143.04877    28435.784    3.8785348 
    7370    454.15335   -7718.7815     -7668.12    280.33244    28429.005    3.8826656 
    7380    465.02214   -7719.9119    -7668.038    507.09103    28423.493    3.8861722 
    7390    473.81896   -7720.8541   -7667.9988    573.79743    28420.267    3.8913508 
    7400    466.49956   -7720.0506   -7668.0118    653.67924    28419.671    3.9003749 
    7410    464.10018   -7719.8354   -7668.0643    684.97678    28421.983    3.9123273 
    7420    458.86853   -7719.3267   -7668.1393    723.36788    28427.344    3.9252549 
    7430     445.2564   -7717.8905   -7668.2215    845.69728    28435.932    3.9366954 
    7440    429.75918   -7716.2221   -7668.2819    876.18421    28448.182    3.9439427 
    7450    430.75002   -7716.3527   -7668.3019    801.32672     28464.19    3.9451724 
    7460    439.98029   -7717.3648   -7668.2844    802.02438     28483.65    3.9420209 
    7470    445.40849   -7717.9346   -7668.2486     906.5634    28506.564    3.9381394 
    7480    453.18448   -7718.7655   -7668.2121    816.65068    28533.229    3.9349309 
    7490    453.21801   -7718.7409   -7668.1837    662.28515    28563.267    3.9310387 
    7500     445.8232   -7717.8933    -7668.161    478.43886    28595.963    3.9246323 
    7510    448.21585   -7718.1307   -7668.1315    164.82038    28630.412    3.9152973 
    7520     457.2444   -7719.1023    -7668.096   -185.01278    28665.183    3.9061234 
    7530    459.21881   -7719.2988   -7668.0722   -251.28159    28698.832    3.9014639 
    7540    458.88793   -7719.2607   -7668.0711   -298.70465    28730.915    3.9021544 
    7550    456.50427   -7719.0134   -7668.0896   -400.71524    28761.211    3.9049088 
    7560    448.15127   -7718.1084   -7668.1165     -526.785    28789.285    3.9062926 
    7570    448.42929   -7718.1629   -7668.1399    -781.3844      28814.5    3.9041606 
    7580    457.72495   -7719.2218   -7668.1619   -997.23575    28835.782    3.8980638 
    7590    456.59242   -7719.1308   -7668.1972   -963.97056    28852.258    3.8891753 
    7600    443.82641   -7717.7513   -7668.2418   -787.29391      28864.1    3.8799372 
    7610    439.64352   -7717.3181   -7668.2752   -731.00459    28872.086      3.87351 
    7620    442.59272   -7717.6593   -7668.2874   -697.00244    28876.572    3.8719173 
    7630    446.73613   -7718.1211    -7668.287   -524.39966    28877.829    3.8732866 
    7640    446.89463   -7718.1317   -7668.2799   -279.76941    28876.689    3.8754959 
    7650    448.08282   -7718.2522   -7668.2679   -158.88234    28874.237    3.8781825 
    7660    448.38492   -7718.2691    -7668.251   -217.73154    28871.011    3.8811697 
    7670    444.60567   -7717.8252   -7668.2288   -248.91292     28866.86    3.8845442 
    7680    441.57261   -7717.4502   -7668.1921   -260.26019    28861.641    3.8880757 
    7690    444.34268   -7717.6997   -7668.1326   -169.51231    28855.351    3.8908893 
    7700    444.69924   -7717.6514   -7668.0445    77.763577    28848.449    3.8928929 
    7710     442.7949   -7717.3145   -7667.9201    343.44255    28842.049    3.8939884 
    7720    451.37538   -7718.0999   -7667.7483    346.83717    28837.234    3.8945634 
    7730    462.93023    -7719.172   -7667.5314    118.51845    28834.001    3.8969069 
    7740    465.02032   -7719.1631   -7667.2894   -80.751538    28831.391    3.9029297 
    7750    463.93211     -7718.79   -7667.0377   -256.77256    28828.429    3.9113209 
    7760    456.59091   -7717.7107   -7666.7773   -195.18065    28824.427     3.919411 
    7770    450.27432   -7716.7286   -7666.4998    84.635659    28819.694    3.9250962 
    7780    453.58489   -7716.7926   -7666.1945    345.18731    28815.424    3.9276221 
    7790     456.4953   -7716.7888   -7665.8661    491.69372    28812.759    3.9290059 
    7800      460.042   -7716.8493   -7665.5309    538.77492    28812.349    3.9326824 
    7810    465.15622    -7717.093   -7665.2042    547.32455    28814.425    3.9397193 
    7820    469.01328   -7717.2241    -7664.905    523.19039    28818.991    3.9491868 
    7830    465.46301   -7716.5688   -7664.6457    590.72172    28825.949    3.9591641 
    7840    464.86322   -7716.2849   -7664.4288    690.16818    28835.546    3.9658576 
    7850    463.70986   -7715.9764   -7664.2489      773.344    28848.196    3.9668114 
    7860    461.35836   -7715.5685   -7664.1033     814.4977    28864.234     3.962676 
    7870    465.39301   -7715.9024   -7663.9871    681.46598    28883.729    3.9557452 
    7880    472.47619   -7716.6095   -7663.9041     450.2557    28906.089    3.9486329 
    7890    479.69762   -7717.3798   -7663.8688    88.570244    28930.185    3.9431934 
    7900    484.01933   -7717.8931      -7663.9   -257.55453    28954.364    3.9393782 
    7910    471.53041   -7716.6026   -7664.0026    -502.2166    28977.034    3.9367425 
    7920    459.71914   -7715.4369   -7664.1546   -606.82196    28997.114    3.9338562 
    7930    463.32468   -7716.0257   -7664.3412   -667.65088    29014.086    3.9297573 
    7940    458.02682   -7715.6585   -7664.5649   -565.46171    29027.768    3.9262869 
    7950    447.17453   -7714.6938   -7664.8108    -408.0848    29038.634    3.9251354 
    7960    453.43375   -7715.6517   -7665.0704   -391.48442    29047.379    3.9249699 
    7970    456.21654   -7716.2395   -7665.3478   -451.60235    29054.127    3.9237545 
    7980    453.59261   -7716.2432   -7665.6442   -460.12128     29058.69    3.9205631 
    7990    455.35555   -7716.7519   -7665.9563   -519.18507    29061.013     3.916433 
    8000    456.83061   -7717.2424   -7666.2823   -628.34197    29060.846     3.913105 
    8010    457.42292   -7717.6432    -7666.617   -648.29787    29057.797    3.9104818 
    8020    453.90853    -7717.589   -7666.9548   -616.59457    29051.796    3.9077862 
    8030    444.08954   -7716.8136   -7667.2748   -497.07337    29043.054    3.9051907 
    8040    445.60643   -7717.2689   -7667.5608   -456.94433      29032.1    3.9028613 
    8050    452.45673   -7718.2865   -7667.8143   -498.62323    29019.171    3.9000381 
    8060     456.1781   -7718.9352   -7668.0479   -577.11246    29004.124    3.8958479 
    8070    452.63209   -7718.7576   -7668.2658   -629.68238    28986.651    3.8918466 
    8080    447.74359   -7718.4059   -7668.4594   -632.61456    28966.587    3.8912293 
    8090    449.22088   -7718.7355   -7668.6242   -732.21948      28943.9    3.8972682 
    8100    454.76299   -7719.5002   -7668.7707   -720.50538    28918.266    3.9122359 
    8110    450.63878   -7719.1722   -7668.9027    -411.1187    28889.895    3.9341119 
    8120    441.76356    -7718.288   -7669.0086   -109.50317    28860.166    3.9569969 
    8130    439.39609   -7718.0958   -7669.0805   -111.25197    28830.366    3.9754861 
    8140    443.63522    -7718.615   -7669.1268   -210.67363    28800.598    3.9868459 
    8150    444.58685   -7718.7491   -7669.1548   -299.75119     28770.47    3.9919505 
    8160    451.65226   -7719.5598   -7669.1773   -444.07634    28739.527    3.9938075 
    8170    453.25796   -7719.7641   -7669.2025    -412.8878    28707.249    3.9958593 
    8180    450.12009   -7719.4411   -7669.2295   -54.054619    28673.893    4.0004239 
    8190    448.69694   -7719.2986   -7669.2458    401.85056    28641.014    4.0077419 
    8200    449.74048   -7719.4206   -7669.2514    773.78435    28610.611    4.0161243 
    8210    440.45826    -7718.381   -7669.2472    1093.5678    28584.327    4.0238782 
    8220    433.87519   -7717.6218   -7669.2223    1281.8381    28563.479    4.0288413 
    8230    438.70064   -7718.1092   -7669.1715     1399.821    28548.833    4.0302279 
    8240    439.32078   -7718.1034   -7669.0965    1467.0882    28540.799    4.0299837 
    8250    451.76732   -7719.4052   -7669.0098    1224.8193    28539.405    4.0294802 
    8260    459.81012   -7720.2199   -7668.9274    871.79288    28543.511    4.0302209 
    8270    458.39159   -7720.0016   -7668.8673    584.37486      28551.5    4.0319911 
    8280    459.00956   -7720.0349   -7668.8317    310.83859    28561.982    4.0333892 
    8290    452.50519   -7719.2934   -7668.8158    191.00438    28573.741     4.032775 
    8300    438.33027    -7717.701   -7668.8046     185.7878    28586.191     4.028023 
    8310     431.0393   -7716.8531     -7668.77     102.8786    28599.221    4.0187811 
    8320    436.43605   -7717.3791    -7668.694   -36.948043    28612.446    4.0062397 
    8330    446.28675    -7718.365   -7668.5811   -58.568059    28625.325     3.992619 
    8340    453.17281   -7719.0019   -7668.4498   -19.388899     28637.73     3.980497 
    8350    457.40333    -7719.337    -7668.313    2.8700495    28649.814     3.970512 
    8360    463.75704   -7719.9115   -7668.1787   -20.305557    28661.661     3.961624 
    8370     461.7514   -7719.5646   -7668.0555    116.00964    28673.274    3.9542407 
    8380    454.67737   -7718.6625   -7667.9425    378.54129    28685.254    3.9491657 
    8390    464.09889    -7719.602   -7667.8311    575.14407    28698.718    3.9455683 
    8400    474.39479   -7720.6481   -7667.7286    570.41854    28714.461     3.942899 
    8410    472.65635   -7720.3869   -7667.6613    478.13554    28732.479    3.9418492 
    8420    461.33922   -7719.0984   -7667.6353    431.05989    28752.392     3.942476 
    8430     454.6325    -7718.348    -7667.633    320.99585    28773.888    3.9427268 
    8440    460.76211   -7719.0441   -7667.6454    187.76798    28796.453    3.9410589 
    8450    467.69647    -7719.861   -7667.6888    147.56801    28819.509    3.9383269 
    8460    464.06787   -7719.5532   -7667.7857     233.3329    28842.876    3.9353332 
    8470     455.6147   -7718.7632   -7667.9387    344.40447    28866.925    3.9303301 
[...]
   22890    442.16358   -7723.6228   -7674.2987    312.34657    28299.921      5.65216 
   22900    448.27093   -7724.0435   -7674.0382    344.41641    28299.741    5.6534333 
   22910    455.49253   -7724.5699   -7673.7591    344.18639    28301.097    5.6523785 
   22920    463.23772   -7725.1549   -7673.4801    248.02073     28303.92    5.6496267 
   22930    452.88738   -7723.7378   -7673.2176    297.52463     28307.86    5.6470706 
   22940    438.39544   -7721.8677    -7672.964    379.98597     28313.07     5.645631 
   22950     448.4731   -7722.7234   -7672.6956    315.94042    28319.841    5.6457065 
   22960    457.44891   -7723.4416   -7672.4125    267.77062    28327.922    5.6461106 
   22970    456.49175   -7723.0627   -7672.1403    342.88871    28337.119     5.644644 
   22980    468.55291   -7724.1609   -7671.8931    308.77572    28347.651    5.6416663 
   22990    473.27341   -7724.4793    -7671.685    246.83823    28359.374    5.6397435 
   23000    462.32524   -7723.1052   -7671.5321    277.79955    28372.048    5.6391963 
   23010    448.75668   -7721.4724   -7671.4129    301.62174    28385.746    5.6386444 
   23020    445.76313   -7721.0257   -7671.3002    149.43409    28400.481    5.6389808 
   23030    443.01269   -7720.5952   -7671.1765   -53.216148    28415.623    5.6416112 
   23040    442.08803   -7720.3526    -7671.037   -206.97772    28430.297     5.644278 
   23050    449.82758   -7721.0588   -7670.8799   -350.14164    28443.785    5.6450209 
   23060     458.3817   -7721.8507   -7670.7176    -438.5584    28455.468    5.6447111 
   23070    459.51145    -7721.828   -7670.5689   -400.90834    28465.033    5.6455337 
   23080    460.16924   -7721.7752   -7670.4426   -398.51742    28472.593    5.6485803 
   23090    458.15778   -7721.4449   -7670.3367   -302.82874    28478.273    5.6527219 
   23100    458.23339   -7721.3661   -7670.2494   -226.38209    28482.478    5.6560991 
   23110    457.86084   -7721.2529   -7670.1778   -125.23735    28485.613    5.6583809 
   23120    454.88293   -7720.8632   -7670.1203   -76.326501    28488.103     5.659306 
   23130    454.47379   -7720.7679   -7670.0706    -171.7368     28490.14    5.6594979 
   23140     450.8557   -7720.3175   -7670.0239    -220.6049    28491.402    5.6615375 
   23150    447.59536   -7719.9034   -7669.9735   -276.51229    28491.652    5.6658278 
   23160    448.27059   -7719.9197   -7669.9145   -349.74606    28490.642    5.6713159 
   23170     440.8294   -7719.0199   -7669.8448   -224.85628    28488.169    5.6775723 
   23180    430.41867   -7717.7637   -7669.7498    1.8991659    28484.789    5.6843582 
   23190    439.33376   -7718.6217   -7669.6134    127.93616    28481.449    5.6910323 
   23200    455.14225    -7720.212   -7669.4401     189.5136    28478.734    5.6968382 
   23210    455.22585   -7720.0363   -7669.2552    308.28569    28476.958    5.7018501 
   23220    455.52523   -7719.8862   -7669.0716    458.74539    28476.611    5.7047745 
   23230    461.96146   -7720.4213   -7668.8888    660.98528    28478.349    5.7025881 
   23240    464.81303   -7720.5693   -7668.7187     833.3349    28483.002    5.6936317 
   23250    467.88151   -7720.7653   -7668.5724    818.30169    28491.222    5.6795515 
   23260    475.82365   -7721.5387   -7668.4599    720.00462    28502.894    5.6650306 
   23270    477.40026    -7721.649   -7668.3943    671.86208    28517.565    5.6556448 
   23280    472.76554   -7721.1242   -7668.3864    476.37832    28534.867    5.6530908 
   23290    461.45522   -7719.9022   -7668.4262    203.89046    28553.893    5.6557513 
   23300    456.72277   -7719.4435   -7668.4954   -57.398817    28573.422     5.662243 
   23310    462.84116   -7720.2227   -7668.5921    -330.3506     28592.23     5.670884 
   23320    466.21311   -7720.7384   -7668.7317   -470.16587    28609.156    5.6791452 
   23330    465.68004    -7720.879   -7668.9317   -420.90601    28623.634    5.6849656 
   23340    467.00724   -7721.2943    -7669.199   -298.79227    28635.903    5.6882187 
   23350    471.60084   -7722.1534   -7669.5456   -175.71028    28646.536    5.6912504 
   23360    465.67056   -7721.9199   -7669.9736   -123.40539    28656.083    5.6961644 
   23370    453.70207   -7721.0617   -7670.4505   -189.43357    28664.808    5.7015887 
   23380    450.90283   -7721.2352   -7670.9364    -441.8278    28672.397     5.705194 
   23390    452.61783   -7721.8988   -7671.4086   -687.89148    28677.801    5.7060543 
   23400    446.60864   -7721.6632   -7671.8433   -811.49537    28680.006    5.7039732 
   23410    445.08999   -7721.8738   -7672.2233   -897.31363    28678.492    5.6989359 
   23420    442.66684   -7721.9251    -7672.545   -843.48919    28673.003    5.6929183 
   23430    434.30299    -7721.247   -7672.7999   -678.33435    28663.896     5.688665 
   23440    438.25146   -7721.8799   -7672.9923   -747.97118    28651.837    5.6874925 
   23450    441.91201   -7722.4359     -7673.14   -793.13186    28636.706    5.6897527 
   23460    433.08375   -7721.5583   -7673.2471   -675.37174    28618.436    5.6936038 
   23470    432.88608      -7721.6   -7673.3109   -555.50906     28597.57    5.6947676 
   23480    441.97528   -7722.6408   -7673.3377   -418.66155    28574.738    5.6901937 
   23490     451.0845   -7723.6657   -7673.3465   -343.67305    28550.589     5.680093 
   23500    452.06818   -7723.7837   -7673.3548    -248.7903    28525.535    5.6661346 
   23510    452.85408   -7723.8809   -7673.3644   -123.59251    28500.036    5.6487541 
   23520    460.87452   -7724.7947   -7673.3834   -115.48114    28474.613    5.6292848 
   23530    456.22466   -7724.3127   -7673.4202   -43.819036    28449.404    5.6115492 
   23540    447.64444   -7723.4018   -7673.4664    74.763429    28424.715     5.599167 
   23550    440.91505   -7722.6878    -7673.503    176.88075    28401.037    5.5935895 
   23560    436.94615   -7722.2555   -7673.5135    258.52431    28378.819    5.5924688 
   23570    440.33389    -7722.615   -7673.4951    206.38415     28358.31    5.5916423 
   23580    441.74797   -7722.7284   -7673.4508    132.51497    28339.274    5.5888946 
   23590    443.03982   -7722.8095   -7673.3877    127.91033    28321.374     5.583871 
   23600    442.03591   -7722.6138    -7673.304    300.97467    28304.611    5.5780079 
   23610    447.41446   -7723.1117    -7673.202    419.55922    28289.607    5.5734042 
   23620    457.17282   -7724.0891   -7673.0908    408.38117    28276.829    5.5726881 
   23630    457.70657   -7724.0466   -7672.9887    322.63301    28266.168    5.5777138 
   23640    444.53437    -7722.483   -7672.8946    269.76667    28257.228    5.5869691 
   23650    438.43086   -7721.6948   -7672.7872    182.92615    28249.706     5.595833 
   23660    442.83659   -7722.0444   -7672.6453    85.161772    28243.186    5.6010707 
   23670    450.42077   -7722.7124   -7672.4673    96.476044    28237.266     5.602263 
   23680    457.81644   -7723.3343   -7672.2642    92.234256    28231.907    5.6005254 
   23690    466.29423   -7724.0665   -7672.0506    136.18625    28227.097    5.5969949 
   23700    466.44916   -7723.8768   -7671.8437    378.95777    28223.086    5.5921527 
   23710    459.66158   -7722.9263   -7671.6503    599.97876    28220.826     5.585968 
   23720    453.83544   -7722.0849   -7671.4589    730.56606     28221.24    5.5795321 
   23730    454.54653    -7721.958   -7671.2527     847.6494    28224.873    5.5746934 
   23740    464.10931   -7722.8028   -7671.0307    917.22928     28232.14    5.5729122 
   23750    474.03281   -7723.6897   -7670.8106    879.87548    28243.252    5.5756276 
   23760    477.40013   -7723.8737    -7670.619    799.47452     28258.01    5.5825041 
   23770      473.758    -7723.318   -7670.4695    802.11166    28276.043    5.5900222 
   23780    472.39567    -7723.057   -7670.3606    751.82586    28297.242    5.5945144 
   23790    477.37638   -7723.5443   -7670.2923    594.63043    28321.347    5.5949356 
   23800    476.25312   -7723.3984   -7670.2716    404.05886    28347.631    5.5914024 
   23810    470.29447   -7722.7666   -7670.3045    281.73965    28375.254    5.5841468 
   23820    468.04268   -7722.6002   -7670.3893    129.13636    28403.587    5.5742524 
   23830    465.10537   -7722.4103   -7670.5271   -85.543529    28431.921    5.5634754 
   23840    459.11652   -7721.9329   -7670.7177   -285.19477    28459.347    5.5551207 
   23850    454.08608   -7721.6051   -7670.9511   -448.57025     28484.99    5.5528572 
   23860      454.314   -7721.9002   -7671.2208   -626.11167    28508.098    5.5574834 
   23870    452.69829   -7722.0261   -7671.5269    -626.0661    28528.029    5.5657849 
   23880    451.07124   -7722.1856   -7671.8679   -556.37219    28544.797    5.5725443 
   23890    447.22292   -7722.1139   -7672.2255   -557.20889    28558.712    5.5741903 
   23900    444.82621   -7722.2034   -7672.5823   -558.28904    28569.856    5.5705811 
   23910    436.67485   -7721.6266   -7672.9149    -509.9814    28578.289    5.5637452 
   23920    437.55633    -7722.023    -7673.213   -416.72575    28584.283    5.5554087 
   23930    436.93195   -7722.2152   -7673.4748   -299.79726    28588.295    5.5479758 
   23940    439.30375   -7722.7046   -7673.6997   -353.72952    28590.809    5.5434851 
   23950    449.07597   -7723.9963   -7673.9012    -565.6507    28591.607    5.5426599 
   23960    445.66208   -7723.8038   -7674.0896   -611.30266    28589.904    5.5444141 
   23970    443.77787   -7723.7663   -7674.2622   -625.81345    28585.489    5.5460616 
   23980    449.48317   -7724.5614   -7674.4209   -782.86518    28578.282     5.548102 
   23990    447.52214   -7724.4928   -7674.5711   -927.76314    28567.681    5.5514521 
   24000    441.70959   -7723.9825   -7674.7091   -912.31364    28553.146    5.5544438 
   24010    439.29308   -7723.8311   -7674.8273   -762.82915    28534.813    5.5553398 
   24020    436.22755   -7723.5816   -7674.9198   -525.34041    28513.411    5.5533186 
   24030    433.06327   -7723.2876   -7674.9787   -305.70029    28490.032    5.5485029 
   24040    438.57403   -7723.9244   -7675.0009   -259.97573    28465.631    5.5424129 
   24050    446.41136   -7724.7972   -7674.9994   -285.68293     28440.45    5.5375344 
   24060    440.95506   -7724.1697   -7674.9805    -112.9318     28414.51    5.5354813 
   24070    444.32829   -7724.5082   -7674.9427    45.813089    28388.496    5.5352566 
   24080    456.13128   -7725.7724   -7674.8902    219.68681    28363.138    5.5354687 
   24090    463.93178   -7726.5981   -7674.8458    435.86045    28339.188     5.535683 
   24100    460.17508   -7726.1599   -7674.8267    611.63537    28317.535    5.5365161 
   24110    451.37144   -7725.1837   -7674.8325     753.6053    28298.937    5.5380988 
   24120    442.12661   -7724.1644   -7674.8445    813.81636    28283.927    5.5404137 
   24130    437.47231   -7723.6434   -7674.8427    872.61833    28272.753     5.543613 
   24140    437.89142   -7723.6619   -7674.8144     824.5339    28265.548    5.5465019 
   24150    434.29548   -7723.1981   -7674.7518    802.21295    28262.113    5.5478682 
   24160    430.91655   -7722.7098   -7674.6404    849.99268    28262.309    5.5476531 
   24170    432.92555   -7722.7562   -7674.4627    891.26135    28266.271    5.5462648 
   24180    431.81093   -7722.3673   -7674.1981     887.0831    28274.153    5.5447338 
   24190     443.7072   -7723.3331   -7673.8369    567.82078    28285.753    5.5435606 
   24200     444.8803   -7723.0071     -7673.38     287.5866     28299.81    5.5442003 
   24210    444.72585   -7722.4706   -7672.8607    50.883949    28315.037    5.5468706 
   24220    458.87305    -7723.492   -7672.3041   -214.47482    28330.314    5.5493941 
   24230    456.86551    -7722.729   -7671.7649   -205.80613     28344.63    5.5501063 
   24240    444.66792   -7720.8963   -7671.2929   -196.10817    28357.891    5.5478053 
   24250    436.63165   -7719.5827   -7670.8758   -345.92818    28370.106    5.5421672 
   24260    441.71332   -7719.7701   -7670.4963   -531.82275    28380.678    5.5341961 
   24270    441.05528   -7719.3516   -7670.1512   -530.66105    28388.879     5.525993 
   24280    443.41594   -7719.3087    -7669.845   -604.70466    28394.597     5.520855 
   24290    446.90738   -7719.4227   -7669.5695   -656.60443    28397.588    5.5212769 
   24300    449.83882   -7719.5068   -7669.3266   -572.10691    28397.664    5.5250086 
   24310    454.15603   -7719.7787   -7669.1169   -356.06414    28395.216    5.5281416 
   24320    454.67937   -7719.6581   -7668.9379   -57.874071     28391.23     5.528274 
   24330    460.22952   -7720.1262   -7668.7869    84.776609    28386.961    5.5250383 
   24340    465.96129   -7720.6459   -7668.6672   -11.766729    28383.004     5.521372 
   24350    462.75918   -7720.2066   -7668.5851   -154.00098    28379.013    5.5201849 
   24360    462.21025   -7720.0984   -7668.5381   -247.21783    28374.392    5.5211378 
   24370     463.5365   -7720.2264   -7668.5182   -315.91654    28368.685    5.5224583 
   24380    474.30371   -7721.4449   -7668.5356    -375.7638     28361.58    5.5233265 
   24390    474.46002   -7721.5315   -7668.6047   -256.89738    28352.898    5.5251942 
   24400    466.86264   -7720.8044   -7668.7252   -39.445944    28343.151    5.5284331 
   24410    467.62745   -7721.0525   -7668.8879    22.807929    28333.195    5.5326882 
   24420     469.1907   -7721.4312   -7669.0923   -20.172403    28323.338    5.5385856 
   24430      470.952   -7721.8841   -7669.3487   -47.627798    28313.423    5.5460052 
   24440    462.91079   -7721.2875   -7669.6492    73.424125    28303.385    5.5536502 
   24450    457.00758   -7720.9549    -7669.975    307.07334    28293.743    5.5595035 
   24460    450.91375   -7720.6023   -7670.3021    585.63523    28285.516    5.5636935 
   24470    454.41507   -7721.3114   -7670.6207    770.81468    28279.904     5.567386 
   24480    462.85949   -7722.5752   -7670.9425    790.32853     28277.68    5.5717134 
   24490    460.36636   -7722.6251   -7671.2705    803.54146    28279.006    5.5776498 
   24500    457.97142   -7722.6846   -7671.5972    689.23414    28283.874    5.5848714 
   24510    458.23784   -7723.0311    -7671.914    501.34933    28291.789    5.5921219 
   24520    455.34547   -7723.0088   -7672.2143    353.91403    28301.959    5.5987121 
   24530    448.46727   -7722.5164   -7672.4892     272.8506    28313.746     5.605032 
   24540    441.03261    -7721.922   -7672.7242    122.34757    28326.721    5.6115343 
   24550    440.27242   -7722.0281   -7672.9151    62.001404    28340.288     5.617448 
   24560    445.71341   -7722.7879   -7673.0679    110.79108    28354.177    5.6222143 
   24570    459.37856   -7724.4501   -7673.2058    34.419261     28368.51     5.626801 
   24580    464.24756   -7725.1365    -7673.349   -62.439643    28383.014    5.6328107 
   24590    463.85487   -7725.2513   -7673.5076   -184.09675    28397.213    5.6397836 
   24600    459.24071   -7724.9098   -7673.6808   -259.77961     28410.61    5.6456146 
   24610    450.74642   -7724.1387   -7673.8573   -209.91422    28422.913    5.6481386 
   24620    444.91888   -7723.6503   -7674.0189   -89.125073    28434.323    5.6474423 
   24630    449.70427   -7724.3273   -7674.1621     -150.422    28445.265    5.6454466 
   24640    449.96111   -7724.4884   -7674.2946   -359.59479    28455.477    5.6438131 
   24650    431.82491   -7722.5811   -7674.4104   -513.29142    28464.092     5.642859 
   24660    417.51601   -7721.0547   -7674.4802   -602.01559    28470.419    5.6412381 
   24670    423.74164   -7721.7578   -7674.4888   -661.16308    28474.047    5.6382884 
   24680    427.75781    -7722.158    -7674.441    -616.9126    28474.739    5.6345085 
   24690    425.66393    -7721.829   -7674.3455   -483.40193    28472.685    5.6300995 
   24700    434.43989   -7722.6672   -7674.2048   -418.89905    28468.425    5.6250081 
   24710    447.99339   -7724.0059   -7674.0316   -472.92875      28462.2    5.6190519 
   24720    451.21537   -7724.1817    -7673.848   -392.54986    28453.907    5.6123629 
   24730    454.66407   -7724.3878   -7673.6693   -468.71636    28443.755    5.6061793 
   24740    457.59517    -7724.548   -7673.5026   -546.17676    28431.476    5.6026904 
   24750     452.0292   -7723.7762   -7673.3517   -533.99738    28416.731    5.6031953 
   24760    442.74813   -7722.5967   -7673.2075   -405.98089      28399.6    5.6071642 
   24770    440.53664    -7722.193   -7673.0504   -358.02659    28380.578      5.61184 
   24780    448.18491    -7722.873   -7672.8773   -532.07992    28359.809    5.6146084 
   24790    449.02845   -7722.7866   -7672.6968   -577.42208    28336.669    5.6159993 
   24800    447.34392   -7722.4137   -7672.5118    -484.9337    28310.951     5.616494 
   24810    455.63306   -7723.1485   -7672.3219   -463.08265    28282.989     5.615174 
   24820     460.1512   -7723.4684   -7672.1379   -426.68581    28252.905    5.6128728 
   24830    452.88348   -7722.4871   -7671.9672   -169.50518    28220.965    5.6114487 
   24840    453.88473   -7722.4309   -7671.7994    134.66338    28188.224    5.6118798 
   24850    463.09232   -7723.2902   -7671.6315    306.41224    28155.969     5.616444 
   24860    461.25304   -7722.9332   -7671.4797    365.73698    28124.975    5.6268987 
   24870    454.00029   -7721.9906   -7671.3462    422.73505    28095.546    5.6414222 
   24880    455.94448   -7722.0793    -7671.218    482.83569    28067.934    5.6558437 
   24890    456.78198   -7722.0441   -7671.0894    531.82015    28042.405    5.6666431 
   24900    452.98256   -7721.4919   -7670.9611    547.69841    28019.177    5.6725289 
   24910    449.28512   -7720.9412   -7670.8228    524.76254    27998.294    5.6746478 
   24920    446.90343   -7720.5106   -7670.6579    695.13957    27979.744    5.6750345 
   24930    444.65272   -7720.0453   -7670.4436    1029.5153    27964.252    5.6754936 
   24940    453.30593   -7720.7265   -7670.1595    1203.1945    27953.159    5.6771789 
   24950    466.29806    -7721.811   -7669.7948    1043.9678     27947.16    5.6799241 
   24960    470.35359   -7721.8322   -7669.3635    813.26977    27945.679    5.6827617 
   24970    468.79644   -7721.1827   -7668.8878    624.45565    27947.753    5.6848659 
   24980    473.10708   -7721.1636   -7668.3878    570.55071    27952.627    5.6861372 
   24990    477.89515   -7721.2028   -7667.8929     539.7791    27960.029    5.6899992 
   25000    480.54996   -7721.0505   -7667.4445    422.81375    27969.803    5.6997295 
Loop time of 10360.1 on 16 procs for 20000 steps with 864 atoms

Performance: 0.167 ns/day, 143.890 hours/ns, 1.930 timesteps/s
97.7% CPU use with 16 MPI tasks x 1 OpenMP threads

MPI task timing breakdown:
Section |  min time  |  avg time  |  max time  |%varavg| %total
---------------------------------------------------------------
Pair    | 5545.5     | 8352.3     | 10133      |1542.2 | 80.62
Bond    | 0.0015574  | 0.0045019  | 0.0096989  |   3.9 |  0.00
Neigh   | 0.18731    | 0.21675    | 0.24129    |   3.5 |  0.00
Comm    | 82.173     | 1771.9     | 4710.9     |3356.9 | 17.10
Output  | 2.254      | 2.2836     | 2.7196     |   7.5 |  0.02
Modify  | 90.12      | 233.29     | 555.8      | 975.6 |  2.25
Other   |            | 0.08429    |            |       |  0.00

Nlocal:        54.0000 ave          61 max          44 min
Histogram: 1 0 2 2 0 4 1 2 2 2
Nghost:        412.875 ave         438 max         377 min
Histogram: 1 0 2 1 2 3 1 2 1 3
Neighs:         0.00000 ave           0 max           0 min
Histogram: 16 0 0 0 0 0 0 0 0 0
FullNghs:      1623.75 ave        1911 max        1215 min
Histogram: 1 1 1 1 2 1 2 3 1 3

Total # of neighbors = 25980
Ave neighs/atom = 30.069444
Ave special neighs/atom = 0.0000000
Neighbor list builds = 2000
Dangerous builds = 2000
unfix   3
                
Total wall time: 3:35:49
