LAMMPS (29 Sep 2021 - Update 3)
OMP_NUM_THREADS environment is not set. Defaulting to 1 thread. (src/comm.cpp:98)
  using 1 OpenMP thread(s) per MPI task
units	metal
atom_style	full

read_data	mixed.data
Reading data file ...
  orthogonal box = (0.0000000 0.0000000 0.0000000) to (15.613400 15.650667 60.676648)
  2 by 2 by 4 MPI processor grid
  reading atoms ...
  864 atoms
Finding 1-2 1-3 1-4 neighbors ...
  special bond factors lj:    0        0        0       
  special bond factors coul:  0        0        0       
     0 = max # of 1-2 neighbors
     0 = max # of 1-3 neighbors
     0 = max # of 1-4 neighbors
     1 = max # of special neighbors
  special bonds CPU = 0.001 seconds
  read_data CPU = 0.023 seconds

pair_style	quip
pair_coeff	* * /ocean/projects/cts180021p/wuziqi/clease/mint-PD/PhaseDiagram-Clease/Liquid/GAP_potential/gap_LiKCl.xml "Potential xml_label=GAP_2021_9_27_0_1_17_37_618" 17 19

neighbor	0.3 bin
neigh_modify	delay 10

timestep	0.001
compute	msd all msd
thermo_style	custom step temp pe etotal press vol c_msd[4]
thermo	10
dump	1 all custom 10 xyz-mix.dump type id x y z
dump	2 all custom 10 force-mix.dump type id fx fy fz

fix     1 all nve
run     2000
Neighbor list info ...
  update every 1 steps, delay 10 steps, check yes
  max neighbors/atom: 2000, page size: 100000
  master list distance cutoff = 6.22
  ghost atom cutoff = 6.22
  binsize = 3.11, bins = 6 6 20
  1 neighbor lists, perpetual/occasional/extra = 1 0 0
  (1) pair quip, perpetual
      attributes: full, newton on
      pair build: full/bin
      stencil: full/bin/3d
      bin: standard
Per MPI rank memory allocation (min/avg/max) = 8.889 | 8.898 | 8.908 Mbytes
Step Temp PotEng TotEng Press Volume c_msd[4] 
       0            0    -9417.799    -9417.799   -30975.102    14826.953            0 
      10    165.55627   -9436.2929   -9417.8248   -35808.397    14826.953 0.00030948002 
      20    378.45436   -9460.0599   -9417.8428   -42850.796    14826.953 0.0037274276 
      30    405.69294   -9463.0843   -9417.8287   -44302.105    14826.953  0.012463481 
      40    392.02077   -9461.5541   -9417.8236   -44279.401    14826.953  0.024415468 
      50    417.08826   -9464.3564   -9417.8296    -45973.39    14826.953  0.036982033 
      60    420.75535   -9464.7647   -9417.8288    -47753.74    14826.953  0.049634467 
      70     407.9112   -9463.3278   -9417.8247   -49652.187    14826.953  0.062755472 
      80    419.12468   -9464.5812   -9417.8272   -52906.106    14826.953   0.07687559 
      90    432.06858   -9466.0257   -9417.8278   -56644.554    14826.953  0.092516529 
     100    437.07358   -9466.5845   -9417.8283    -59457.96    14826.953   0.10938904 
     110    434.54866   -9466.3021   -9417.8275   -61104.413    14826.953   0.12652542 
     120    434.14482   -9466.2568   -9417.8273   -62154.885    14826.953    0.1431545 
     130      439.361   -9466.8391   -9417.8277   -63630.197    14826.953   0.15919619 
     140    446.51909   -9467.6387   -9417.8289   -65558.428    14826.953   0.17463459 
     150    447.02916   -9467.6951   -9417.8283   -67360.122    14826.953   0.18924565 
     160    445.88924   -9467.5675   -9417.8279   -69292.957    14826.953   0.20295995 
     170    449.26197   -9467.9437   -9417.8279   -71767.875    14826.953   0.21606234 
     180    456.11765   -9468.7096    -9417.829   -74290.183    14826.953   0.22912636 
     190    454.43711   -9468.5223   -9417.8292    -76612.29    14826.953   0.24280842 
     200    446.62774    -9467.649    -9417.827   -78739.398    14826.953   0.25734039 
     210    454.33781   -9468.5105   -9417.8284   -80806.826    14826.953    0.2725174 
     220    466.39184   -9469.8552   -9417.8285   -82316.213    14826.953   0.28796461 
     230    478.52262   -9471.2093   -9417.8294   -82954.729    14826.953   0.30306018 
     240    481.66435   -9471.5594    -9417.829   -83195.523    14826.953   0.31749982 
     250    481.45071   -9471.5331   -9417.8266    -83193.07    14826.953   0.33144361 
     260    501.18304   -9473.7372   -9417.8295   -82982.381    14826.953   0.34536204 
     270    513.25195   -9475.0851   -9417.8311   -82417.815    14826.953   0.35987885 
     280    501.57666   -9473.7806    -9417.829   -81721.808    14826.953   0.37471171 
     290    492.47305   -9472.7646   -9417.8285   -81146.258    14826.953   0.38855622 
     300    495.01951   -9473.0493   -9417.8292   -80485.485    14826.953   0.40074053 
     310    503.02213   -9473.9419    -9417.829   -79975.837    14826.953   0.41197537 
     320    517.02716   -9475.5049   -9417.8298    -80100.53    14826.953   0.42312641 
     330    528.24549   -9476.7573   -9417.8307   -80345.683    14826.953   0.43452756 
     340    527.46021   -9476.6689   -9417.8299   -79908.329    14826.953   0.44600697 
     350    525.40472   -9476.4395   -9417.8298   -79635.847    14826.953   0.45751829 
     360    526.17025   -9476.5255   -9417.8304   -79296.551    14826.953    0.4690149 
     370    526.91272   -9476.6086   -9417.8307   -78934.771    14826.953   0.47994193 
     380    523.77443   -9476.2591   -9417.8312    -78349.26    14826.953    0.4899244 
     390    515.97368   -9475.3874   -9417.8298   -77628.832    14826.953   0.49901453 
     400    520.05492    -9475.843   -9417.8301   -77188.099    14826.953   0.50752529 
     410    532.56265   -9477.2391    -9417.831   -76589.953    14826.953   0.51614865 
     420    540.25226   -9478.0982   -9417.8322   -75877.581    14826.953   0.52551418 
     430    530.99756   -9477.0645   -9417.8309   -74960.344    14826.953   0.53577624 
     440    520.22454   -9475.8617   -9417.8299   -74047.729    14826.953   0.54643624 
     450    524.10068   -9476.2951   -9417.8308    -73298.66    14826.953   0.55673143 
     460    534.09515   -9477.4108   -9417.8316   -72760.738    14826.953   0.56614172 
     470    540.77118   -9478.1556   -9417.8317   -72524.651    14826.953   0.57446846 
     480    541.24645   -9478.2098    -9417.833   -72632.257    14826.953   0.58202651 
     490    525.98312   -9476.5055   -9417.8313   -72557.778    14826.953   0.58956581 
     500    519.29389   -9475.7579   -9417.8299   -72672.134    14826.953   0.59738896 
     510    536.84993   -9477.7197   -9417.8332   -73590.734    14826.953   0.60540983 
     520    541.07469   -9478.1913   -9417.8336   -74459.431    14826.953   0.61314596 
     530    525.46621    -9476.448   -9417.8314     -75250.3    14826.953   0.61964842 
     540    517.81909   -9475.5943   -9417.8308   -76615.008    14826.953   0.62442657 
     550    530.74801   -9477.0373   -9417.8316   -78518.677    14826.953   0.62810042 
     560    549.85385   -9479.1718   -9417.8347   -80253.367    14826.953   0.63196072 
     570    545.69369   -9478.7044   -9417.8314    -81117.21    14826.953   0.63700617 
     580    550.79507   -9479.2735   -9417.8315   -82215.551    14826.953   0.64324602 
     590    565.64388   -9480.9333   -9417.8349   -83714.176    14826.953   0.65037812 
     600    553.97462   -9479.6301   -9417.8334   -84197.142    14826.953   0.65818616 
     610    534.68082   -9477.4754   -9417.8309    -84240.65    14826.953   0.66624572 
     620    539.88467    -9478.057    -9417.832   -85068.031    14826.953   0.67443063 
     630    557.34145   -9480.0068   -9417.8345   -86385.256    14826.953   0.68307389 
     640    561.99273   -9480.5241    -9417.833   -87221.521    14826.953   0.69206136 
     650    566.38107   -9481.0145   -9417.8338   -87655.782    14826.953   0.70036908 
     660    568.86956   -9481.2918   -9417.8335    -87740.11    14826.953   0.70722977 
     670    575.19383   -9481.9963   -9417.8326   -87866.365    14826.953   0.71303183 
     680    595.54742   -9484.2684   -9417.8342   -88404.913    14826.953   0.71947662 
     690    609.98222   -9485.8807   -9417.8363   -88729.686    14826.953    0.7286457 
     700    596.15452   -9484.3367   -9417.8348   -87868.063    14826.953   0.74132924 
     710     573.7335   -9481.8333   -9417.8324   -86258.222    14826.953   0.75645284 
     720    573.70821   -9481.8317   -9417.8337   -84983.366    14826.953   0.77238493 
     730     586.6623   -9483.2786   -9417.8355   -84422.122    14826.953   0.78843572 
     740    590.84846   -9483.7457   -9417.8357   -83666.343    14826.953   0.80463072 
     750    583.49524   -9482.9245   -9417.8347    -82343.99    14826.953   0.82074782 
     760    583.95649   -9482.9744   -9417.8332   -81187.395    14826.953   0.83649385 
     770    604.11555   -9485.2273   -9417.8373   -80598.713    14826.953   0.85208187 
     780    602.14592   -9485.0071   -9417.8368   -79807.857    14826.953   0.86786713 
     790    583.15212   -9482.8843   -9417.8328   -79182.757    14826.953   0.88337328 
     800    591.98235   -9483.8727   -9417.8362    -79217.67    14826.953   0.89779065 
     810     593.6376   -9484.0604   -9417.8392   -78586.479    14826.953   0.91096518 
     820    564.19404    -9480.769   -9417.8323   -76887.536    14826.953   0.92230305 
     830    578.29071   -9482.3435   -9417.8343    -76070.66    14826.953   0.93079609 
     840    620.21177   -9487.0247   -9417.8391   -76615.231    14826.953   0.93735222 
     850    635.72143   -9488.7531   -9417.8374   -76706.283    14826.953   0.94395854 
     860    638.46305   -9489.0584   -9417.8369   -76335.754    14826.953    0.9515297 
     870    639.16227   -9489.1369   -9417.8374   -76423.443    14826.953   0.96015894 
     880    632.78052   -9488.4255   -9417.8379    -76496.29    14826.953   0.96986761 
     890    619.52962   -9486.9443   -9417.8348   -76440.217    14826.953   0.98065907 
     900    631.58349   -9488.2902   -9417.8361   -77290.162    14826.953   0.99283193 
     910    659.71446   -9491.4297   -9417.8375   -78626.622    14826.953    1.0074175 
     920    682.68232   -9493.9925   -9417.8382   -79649.341    14826.953     1.025539 
     930    692.81423   -9495.1224   -9417.8379   -80089.571    14826.953    1.0472636 
     940    693.68664   -9495.2193   -9417.8375   -80244.074    14826.953    1.0718362 
     950     697.6853   -9495.6642   -9417.8364   -80549.347    14826.953    1.0985217 
     960    720.55047   -9498.2165    -9417.838   -81100.976    14826.953    1.1269795 
     970    736.50661   -9500.0011   -9417.8427   -81178.831    14826.953    1.1574498 
     980    709.64481   -9496.9987   -9417.8368   -80198.822    14826.953    1.1900413 
     990    699.67715   -9495.8872   -9417.8372   -80141.397    14826.953    1.2238706 
    1000    721.55559   -9498.3287    -9417.838   -81850.645    14826.953    1.2577136 
    1010    753.07988   -9501.8503   -9417.8431   -83180.243    14826.953    1.2911781 
    1020      745.493   -9501.0009   -9417.8401   -82863.976    14826.953    1.3253393 
    1030    733.65366   -9499.6762    -9417.836   -82639.661    14826.953    1.3609259 
    1040    758.67379   -9502.4737   -9417.8425   -83602.278    14826.953     1.397925 
    1050    756.83368   -9502.2682   -9417.8422   -83730.377    14826.953    1.4364633 
    1060    728.60541   -9499.1145   -9417.8375   -82787.476    14826.953    1.4761865 
    1070    732.87934   -9499.5908    -9417.837   -82732.658    14826.953    1.5166131 
    1080    772.96075   -9504.0683   -9417.8434   -84026.785    14826.953     1.557623 
    1090    781.69039   -9505.0406   -9417.8419   -84442.056    14826.953    1.5996324 
    1100    771.56221   -9503.9052   -9417.8363   -84299.214    14826.953    1.6430538 
    1110    801.54413   -9507.2546   -9417.8412   -84972.703    14826.953    1.6886146 
    1120    823.54281   -9509.7109   -9417.8435   -85496.656    14826.953    1.7387343 
    1130     822.5412   -9509.5935   -9417.8378   -84712.521    14826.953    1.7953724 
    1140    852.09877   -9512.8966   -9417.8437   -84635.582    14826.953    1.8578542 
    1150    856.32238   -9513.3687   -9417.8447   -83808.928    14826.953    1.9247272 
    1160    829.16843   -9510.3332   -9417.8382   -82252.194    14826.953    1.9939774 
    1170    841.50467   -9511.7132   -9417.8421   -82218.858    14826.953    2.0635991 
    1180    862.29463   -9514.0344   -9417.8441    -82731.26    14826.953    2.1335867 
    1190    866.74056   -9514.5296   -9417.8434   -81686.997    14826.953    2.2053203 
    1200       872.69    -9515.192   -9417.8421   -80417.058    14826.953    2.2796571 
    1210    894.17681   -9517.5923   -9417.8456   -80254.886    14826.953    2.3566684 
    1220    898.69177    -9518.094   -9417.8436   -80269.089    14826.953    2.4365388 
    1230    902.65555   -9518.5356   -9417.8431   -79919.279    14826.953     2.518764 
    1240    911.76859   -9519.5544   -9417.8452   -78985.613    14826.953    2.6023137 
    1250    918.59896   -9520.3146   -9417.8435   -76973.171    14826.953    2.6875029 
    1260    941.81665   -9522.9069   -9417.8458   -75160.665    14826.953    2.7758222 
    1270     961.5063   -9525.1039   -9417.8464   -73045.867    14826.953    2.8682405 
    1280    975.25968   -9526.6366   -9417.8449   -70472.054    14826.953    2.9648404 
    1290    1001.7621   -9529.5952   -9417.8471   -69578.057    14826.953    3.0655448 
    1300    1017.6288   -9531.3669   -9417.8489   -68777.285    14826.953    3.1701834 
    1310     1014.471   -9531.0095   -9417.8438   -66497.248    14826.953    3.2777376 
    1320    1037.6476   -9533.6011     -9417.85   -64366.582    14826.953    3.3877913 
    1330    1036.1698   -9533.4336   -9417.8473   -62062.663    14826.953    3.5023518 
    1340    1033.7099   -9533.1571   -9417.8452   -59413.385    14826.953    3.6220509 
    1350    1054.8214   -9535.5189   -9417.8519   -57213.004    14826.953    3.7454243 
    1360    1037.5641   -9533.5912   -9417.8494   -54687.928    14826.953    3.8711956 
    1370    1024.3347   -9532.1105   -9417.8444   -51863.642    14826.953    3.9979351 
    1380    1062.9789   -9536.4316   -9417.8547   -49837.894    14826.953    4.1246204 
    1390    1057.5859    -9535.828   -9417.8527   -47126.721    14826.953    4.2515344 
    1400    1031.7037   -9532.9346   -9417.8465   -44628.045    14826.953    4.3784738 
    1410    1045.5289   -9534.4845   -9417.8542   -43213.649    14826.953    4.5048283 
    1420    1036.1371   -9533.4348   -9417.8521   -40686.938    14826.953    4.6299533 
    1430    1013.3873   -9530.8963   -9417.8514   -37037.959    14826.953    4.7524242 
    1440    1009.9024   -9530.5043   -9417.8482   -34353.771    14826.953    4.8714929 
    1450      1045.07    -9534.436   -9417.8569   -32718.717    14826.953     4.987903 
    1460     1044.846   -9534.4069   -9417.8527   -30915.035    14826.953    5.1042348 
    1470    1040.0569   -9533.8734   -9417.8535   -30330.474    14826.953    5.2222883 
    1480    1033.2322   -9533.1134   -9417.8548   -30604.537    14826.953    5.3412471 
    1490    1017.9278   -9531.4016   -9417.8502   -29807.511    14826.953    5.4578543 
    1500    1040.2213   -9533.8955   -9417.8572   -28131.475    14826.953    5.5684253 
    1510    1039.3849   -9533.8003   -9417.8554   -25914.416    14826.953    5.6718067 
    1520    1029.0609   -9532.6473    -9417.854   -24594.464    14826.953    5.7682644 
    1530    1031.5004   -9532.9233   -9417.8579   -24254.573    14826.953    5.8578573 
    1540    1019.0107   -9531.5253   -9417.8532   -23531.216    14826.953    5.9413335 
    1550    1035.4455    -9533.363   -9417.8575   -23504.541    14826.953    6.0203438 
    1560    1050.1303   -9535.0005   -9417.8569    -23102.24    14826.953    6.0964063 
    1570     1053.806   -9535.4108   -9417.8571   -22678.296    14826.953    6.1693718 
    1580     1061.119   -9536.2243   -9417.8549   -21883.077    14826.953     6.236789 
    1590    1088.5999   -9539.2973   -9417.8624   -21917.761    14826.953    6.2959336 
    1600      1067.89   -9536.9845   -9417.8598   -22163.429    14826.953    6.3467449 
    1610    1035.4961   -9533.3641    -9417.853   -23136.244    14826.953    6.3901828 
    1620    1056.7784   -9535.7458   -9417.8606   -24690.284    14826.953    6.4275988 
    1630    1066.5554   -9536.8339   -9417.8581   -25692.824    14826.953    6.4607565 
    1640    1082.2069   -9538.5786   -9417.8568   -26490.679    14826.953    6.4897954 
    1650    1116.1576   -9542.3698   -9417.8608   -28025.498    14826.953    6.5134721 
    1660    1130.4022   -9543.9576   -9417.8596   -28776.295    14826.953    6.5310838 
    1670    1144.7697   -9545.5608     -9417.86   -30173.707    14826.953    6.5431878 
    1680    1161.8103    -9547.465   -9417.8633   -32505.604    14826.953    6.5523479 
    1690    1144.3333   -9545.5114   -9417.8593    -33279.31    14826.953    6.5616337 
    1700    1136.3544   -9544.6191    -9417.857   -33690.837    14826.953    6.5724324 
    1710    1176.6035   -9549.1142   -9417.8623   -37361.619    14826.953    6.5842075 
    1720    1198.4999   -9551.5635   -9417.8691   -40786.714    14826.953    6.5951801 
    1730    1154.0225   -9546.5909    -9417.858    -41380.84    14826.953    6.6025599 
    1740    1162.4697   -9547.5365   -9417.8612   -42122.661    14826.953    6.6035206 
    1750    1217.5958   -9553.6894   -9417.8648   -44095.184    14826.953    6.5987402 
    1760    1258.0248   -9558.2033   -9417.8687   -46540.118    14826.953     6.591658 
    1770    1236.8678   -9555.8357   -9417.8612   -48451.256    14826.953    6.5846594 
    1780    1229.6407   -9555.0271   -9417.8588   -50743.073    14826.953    6.5769021 
    1790    1262.7885   -9558.7348   -9417.8689   -53292.589    14826.953    6.5687005 
    1800    1252.0625   -9557.5318   -9417.8623   -54893.743    14826.953    6.5624205 
    1810    1246.8613   -9556.9532   -9417.8639   -56632.643    14826.953    6.5581611 
    1820    1242.3945   -9556.4566   -9417.8657   -58535.832    14826.953    6.5543941 
    1830    1221.3702    -9554.109   -9417.8634   -60009.412    14826.953    6.5499057 
    1840    1212.9357   -9553.1643   -9417.8595   -61556.573    14826.953    6.5428348 
    1850    1263.9969   -9558.8674   -9417.8667   -65435.852    14826.953    6.5324408 
    1860    1285.5884   -9561.2846   -9417.8753    -68660.14    14826.953    6.5212296 
    1870    1214.4221   -9553.3281   -9417.8575   -67913.202    14826.953    6.5108613 
    1880    1240.7292   -9556.2712    -9417.866   -69208.737    14826.953    6.4995978 
    1890    1270.4483   -9559.6022   -9417.8818   -71282.098    14826.953    6.4880409 
    1900    1157.8079   -9547.0093   -9417.8541   -70763.972    14826.953    6.4774151 
    1910     1166.235     -9547.96   -9417.8648   -72850.327    14826.953    6.4654768 
    1920    1214.5736   -9553.3625    -9417.875   -76494.653    14826.953    6.4516584 
    1930    1182.0419   -9549.7195   -9417.8609   -76455.664    14826.953    6.4355978 
    1940    1204.4023   -9552.2203   -9417.8674   -75958.225    14826.953    6.4157942 
    1950    1226.3694   -9554.6747   -9417.8713   -74838.153    14826.953    6.3937969 
    1960    1204.4092   -9552.2146   -9417.8609   -73367.437    14826.953    6.3721901 
    1970    1239.3277   -9556.1157   -9417.8668   -73666.391    14826.953    6.3514773 
    1980    1264.3958   -9558.9153     -9417.87   -74700.467    14826.953    6.3312291 
    1990     1229.627   -9555.0308    -9417.864   -74940.507    14826.953    6.3107868 
    2000    1194.8681   -9551.1533   -9417.8639   -75555.459    14826.953    6.2895403 
Loop time of 1663.63 on 16 procs for 2000 steps with 864 atoms

Performance: 0.104 ns/day, 231.060 hours/ns, 1.202 timesteps/s
95.4% CPU use with 16 MPI tasks x 1 OpenMP threads

MPI task timing breakdown:
Section |  min time  |  avg time  |  max time  |%varavg| %total
---------------------------------------------------------------
Pair    | 1204.8     | 1392.9     | 1624.1     | 331.5 | 83.73
Bond    | 0.00016141 | 0.00043984 | 0.00093031 |   0.0 |  0.00
Neigh   | 0.025389   | 0.032171   | 0.042818   |   3.4 |  0.00
Comm    | 39.395     | 267.6      | 457.17     | 748.3 | 16.09
Output  | 0.11415    | 1.5565     | 5.0741     | 164.7 |  0.09
Modify  | 0.009491   | 0.010654   | 0.01214    |   0.7 |  0.00
Other   |            | 1.545      |            |       |  0.09

Nlocal:        54.0000 ave          65 max          37 min
Histogram: 1 0 3 1 3 0 0 0 4 4
Nghost:        616.312 ave         727 max         487 min
Histogram: 4 3 1 0 0 0 0 0 0 8
Neighs:         0.00000 ave           0 max           0 min
Histogram: 16 0 0 0 0 0 0 0 0 0
FullNghs:      3255.38 ave        4280 max        2032 min
Histogram: 1 3 4 0 0 0 0 0 3 5

Total # of neighbors = 52086
Ave neighs/atom = 60.284722
Ave special neighs/atom = 0.0000000
Neighbor list builds = 199
Dangerous builds = 198
unfix   1

velocity    all create 1087.5 1312343 dist gaussian
fix     2 all npt temp 1087.5 1087.5 $(100.0*dt) aniso 0.0 1.01325 $(1000.0*dt)
fix     2 all npt temp 1087.5 1087.5 0.10000000000000000555 aniso 0.0 1.01325 $(1000.0*dt)
fix     2 all npt temp 1087.5 1087.5 0.10000000000000000555 aniso 0.0 1.01325 1
run     3000
Per MPI rank memory allocation (min/avg/max) = 8.898 | 8.906 | 8.912 Mbytes
Step Temp PotEng TotEng Press Volume c_msd[4] 
    2000       1087.5   -9551.1533    -9429.841   -76418.274    14826.953    6.2895403 
    2010    1089.3854   -9552.5185   -9430.9959   -74428.457    14807.689    6.2741466 
    2020    1112.3775   -9558.3541   -9434.2667     -68247.8    14751.098    6.2383322 
    2030    1103.8524   -9562.0644    -9438.928   -57246.009    14661.347    6.1892933 
    2040    1164.6688   -9573.9877   -9444.0671   -45970.896    14546.082     6.135048 
    2050    1227.4219   -9585.9588   -9449.0381   -34090.058    14414.914    6.0825424 
    2060    1230.1174   -9590.5036   -9453.2821   -19668.263    14278.779    6.0368472 
    2070    1246.4029    -9595.556   -9456.5179   -5180.7649     14149.06    6.0030759 
    2080    1273.4101   -9601.0486   -9458.9978    7550.0598     14034.87    5.9874205 
    2090    1261.7306   -9601.7098   -9460.9619    18569.866    13941.499    5.9936942 
    2100    1265.6593   -9603.7665   -9462.5803    25501.473    13870.796    6.0211862 
    2110    1285.4225   -9607.4783   -9464.0875    28714.543    13821.722    6.0662754 
    2120    1271.2992   -9607.3386   -9465.5232    30456.195    13791.731     6.124102 
    2130    1254.3136   -9606.7881   -9466.8675    28948.821    13778.199    6.1895948 
    2140    1278.2806   -9610.8991    -9468.305    23680.843    13778.085    6.2610063 
    2150     1262.442   -9610.7257   -9469.8984    18633.193     13787.84    6.3381649 
    2160    1191.0881   -9604.3834   -9471.5157    15481.467    13804.606    6.4163067 
    2170    1183.5002   -9605.0673   -9473.0461    10544.247    13826.469     6.488764 
    2180    1246.9111   -9613.6904   -9474.5956      3308.82    13851.134    6.5514214 
    2190    1246.4259   -9615.2963   -9476.2556   -2790.8698    13875.633    6.6022432 
    2200    1205.0414   -9612.3744   -9477.9502   -6858.3219    13897.519    6.6402639 
    2210    1203.8416   -9613.9165   -9479.6262   -10635.001     13915.22    6.6651555 
    2220     1229.828    -9618.553   -9481.3638   -15869.505    13927.283    6.6767785 
    2230    1215.6894   -9618.8274   -9483.2154   -20054.603    13931.859     6.673265 
    2240    1211.9324   -9620.3712   -9485.1783   -22640.643    13927.517    6.6521015 
    2250    1234.9855   -9625.0889   -9487.3244   -25036.045    13913.456    6.6124492 
    2260    1243.9822    -9628.486   -9489.7179   -26028.038    13889.128    6.5547216 
    2270     1260.028   -9632.9409   -9492.3828   -24927.289    13854.621    6.4805869 
    2280    1227.1752    -9632.032   -9495.1387   -19447.308    13811.101    6.3939168 
    2290    1227.1231   -9634.6151   -9497.7277   -14767.158      13761.3    6.3009781 
    2300    1276.9771   -9642.7604   -9500.3117    -13014.73    13707.632    6.2082584 
    2310    1269.2562   -9644.5102   -9502.9227   -8936.2407    13651.527    6.1204633 
    2320    1272.3004   -9647.3651   -9505.4381   -3728.0137    13595.019    6.0400513 
    2330    1289.3494   -9651.7163   -9507.8875    560.04305    13540.448    5.9693294 
    2340     1300.018   -9655.3314   -9510.3124    3203.4956    13489.639    5.9093147 
    2350    1358.2224   -9664.3729   -9512.8612    3467.6634    13443.512    5.8584368 
    2360    1419.0964   -9674.0757   -9515.7734    3950.7435    13402.002     5.816511 
    2370    1381.2827   -9672.9679   -9518.8837     6670.559    13365.082     5.785917 
    2380    1370.4754   -9674.7506    -9521.872    8951.4058    13333.445    5.7673327 
    2390    1449.0595   -9686.6591   -9525.0143    8878.7284    13307.492    5.7596391 
    2400    1452.8855   -9690.4891   -9528.4175    11585.492    13286.991    5.7612621 
    2410    1514.5342   -9701.0452   -9532.0967    12853.415    13272.424    5.7711744 
    2420    1524.7121   -9706.2696   -9536.1857    12553.456    13263.837    5.7918661 
    2430    1422.4599   -9698.9316    -9540.254    12095.975    13260.756    5.8247935 
    2440    1399.2556   -9700.1246   -9544.0355    7303.2439    13262.481    5.8672527 
    2450    1448.5104   -9709.4175    -9547.834   -206.38228    13266.845    5.9154932 
    2460    1409.3566   -9708.9428   -9551.7269    -3236.287     13271.02    5.9659592 
    2470    1367.8509   -9708.0718    -9555.486   -6039.5254     13273.66    6.0145452 
    2480    1380.2774   -9713.1734   -9559.2014   -9940.2327    13273.711    6.0573676 
    2490    1373.4471   -9716.1358   -9562.9257   -11670.484    13269.916    6.0914041 
    2500    1398.1696   -9722.7209    -9566.753   -12884.555    13261.712    6.1158217 
    2510    1410.3674    -9728.064   -9570.7354   -12649.387     13248.92     6.131973 
    2520    1396.9414   -9730.6146   -9574.7837   -9878.1141    13231.953    6.1400586 
    2530     1404.918    -9735.546   -9578.8253   -5490.8211    13212.115    6.1408828 
    2540    1432.5938   -9742.7502   -9582.9422   -3137.9753    13191.135    6.1364563 
    2550    1459.0362   -9750.0062   -9587.2485   -2783.2153    13170.031    6.1270666 
    2560    1455.0195   -9754.0388   -9591.7292   -2071.7771    13149.047    6.1119386 
    2570    1413.9904   -9753.8886   -9596.1559   -1769.9038    13128.407     6.091938 
    2580    1392.4314   -9755.7545   -9600.4267   -1039.9656     13108.24    6.0683872 
    2590    1358.4143   -9756.1159   -9604.5828    2081.2685    13088.867    6.0414387 
    2600    1306.3077   -9754.2218   -9608.5012    7201.9431    13071.459    6.0107408 
    2610    1293.3312   -9756.4409   -9612.1679    10418.019    13057.732     5.976369 
    2620    1334.6893   -9764.6646    -9615.778    9672.5152    13048.642    5.9379223 
    2630    1393.5405   -9775.0644   -9619.6128    6990.4283    13043.686    5.8962586 
    2640    1400.3108   -9779.9209   -9623.7142    6112.9935    13041.741    5.8548642 
    2650     1359.913    -9779.554   -9627.8536    7297.7675    13042.327    5.8187346 
    2660    1357.4167   -9783.2976   -9631.8758    7340.3769    13045.627    5.7916494 
    2670    1418.5188    -9794.259   -9636.0211    5525.0151     13051.47    5.7746254 
    2680    1427.0541   -9799.5696   -9640.3796    2242.3816    13059.036    5.7675384 
    2690    1421.4428   -9803.3786   -9644.8146   -2570.3166    13066.981    5.7702082 
    2700    1367.9966   -9801.7309   -9649.1288   -5868.6236    13073.559    5.7810715 
    2710    1340.3837   -9802.7394   -9653.2176   -7961.9249    13077.543    5.7953224 
    2720    1326.7532   -9805.1697   -9657.1684   -8901.2736    13078.275    5.8079139 
    2730    1322.5063   -9808.5897   -9661.0621   -7884.7152    13075.617    5.8155535 
    2740    1320.9096   -9812.2669   -9664.9175   -6280.6856    13070.112     5.818449 
    2750    1313.6781   -9815.2695   -9668.7267   -5446.3609     13062.48      5.81913 
    2760    1295.0585   -9816.8787    -9672.413   -4633.2842    13053.206    5.8199188 
    2770    1329.9638   -9824.4778   -9676.1183   -4979.6466    13042.598    5.8220419 
    2780    1311.5587   -9826.2098   -9679.9035   -2304.4478    13030.758    5.8288487 
    2790    1256.7708   -9823.7423   -9683.5477    2036.9723    13018.719    5.8438113 
    2800    1254.6752   -9826.9669   -9687.0059    4691.9941    13008.041    5.8672429 
    2810    1248.2586   -9829.6467   -9690.4016     5190.301    12999.637    5.8959987 
    2820    1205.5265   -9828.1437   -9693.6655      5772.39    12993.651    5.9256057 
    2830    1197.0606   -9830.2983   -9696.7643    6234.0137    12990.164    5.9545405 
    2840    1229.9818   -9837.0383    -9699.832    4453.5186    12989.126     5.985301 
    2850    1192.5157   -9835.8727   -9702.8458    2589.6798    12989.857    6.0189776 
    2860    1145.2612   -9833.3515   -9705.5959    889.79189    12991.559    6.0521644 
    2870    1151.9003   -9836.6745   -9708.1783   -175.10068    12993.536    6.0811281 
    2880    1106.3546   -9833.9969   -9710.5814    485.63093     12995.43     6.104412 
    2890    1122.1785   -9837.9948   -9712.8141   -549.47666    12997.367    6.1207398 
    2900    1138.0476   -9841.9729    -9715.022   -3056.0369    12998.957    6.1318785 
    2910    1100.5263   -9839.9215   -9717.1561   -4345.1224     12999.34    6.1401473 
    2920    1068.6297   -9838.3408   -9719.1335   -4612.3549    12998.076    6.1448227 
    2930    1055.3389   -9838.6619   -9720.9373   -4077.7695    12995.126    6.1430655 
    2940    1083.1265   -9843.4104    -9722.586   -2399.7898    12990.804    6.1334707 
    2950    1142.5407    -9851.722   -9724.2699   -1037.3292    12985.729    6.1182471 
    2960    1064.8835   -9844.7097   -9725.9204    3474.3403    12980.612    6.1016495 
    2970    1019.6502   -9841.0969   -9727.3534    6894.8118    12977.003    6.0865735 
    2980    1062.7574   -9847.1845   -9728.6323    5760.9188    12975.996    6.0742414 
    2990    1093.2348   -9851.8136   -9729.8616     2586.952    12977.164    6.0644254 
    3000    1097.7313   -9853.5463   -9731.0927   -226.45095    12979.297    6.0551953 
    3010     1080.685   -9852.8661   -9732.3141   -1582.9973    12981.293    6.0448516 
    3020    1053.5642   -9850.9972   -9733.4705   -1084.0039    12982.658    6.0327362 
    3030    1044.5123   -9851.0275   -9734.5106      911.812     12983.63    6.0191817 
    3040    1072.9505     -9855.15   -9735.4608    1725.1582    12984.867    6.0066464 
    3050    1054.8198   -9854.0115   -9736.3447    2081.5764    12986.711    5.9989942 
    3060    1024.0392     -9851.36   -9737.1269     1544.557    12989.267    5.9973136 
    3070    1028.1253   -9852.4655   -9737.7766   -1012.8701    12992.254    6.0000979 
    3080    1032.1825   -9853.4432   -9738.3017   -3617.4464     12994.75     6.005474 
    3090    1010.7282   -9851.4426   -9738.6943   -4722.4054    12995.814    6.0122176 
    3100    1012.7678    -9851.913   -9738.9372   -4961.3023    12995.043     6.020429 
    3110    1023.4841   -9853.2062    -9739.035   -3771.1603    12992.447    6.0312983 
    3120    1018.9059   -9852.6567   -9738.9962   -1800.0584     12988.52    6.0449404 
    3130    1009.4111   -9851.4127   -9738.8113    190.43166    12984.047    6.0596089 
    3140    1013.1423   -9851.4762   -9738.4586    1395.1889    12979.792     6.073981 
    3150    1056.8336    -9855.841   -9737.9496    1161.8718    12976.168     6.088904 
    3160     1084.154   -9858.2916   -9737.3526    1139.0984     12973.11    6.1060585 
    3170    1066.1087    -9855.656     -9736.73    2870.0484    12970.656    6.1254959 
    3180    1065.5351    -9854.937    -9736.075    2885.7403    12969.308    6.1453981 
    3190    1097.1495   -9857.7766    -9735.388    579.79939    12969.008    6.1640963 
    3200    1081.4264   -9855.3322   -9734.6975    579.37177    12969.026    6.1826162 
    3210    1067.1517   -9853.0661   -9734.0237    2608.2836    12969.354    6.2028667 
    3220    1043.8892   -9849.7483   -9733.3009    3715.6037    12970.648    6.2255646 
    3230    1047.3896   -9849.3438   -9732.5059    3618.4133    12973.296    6.2482448 
    3240    1102.2797   -9854.5856   -9731.6247    1810.7604    12977.187    6.2678115 
    3250    1107.3725   -9854.2658   -9730.7367     933.6554    12981.714    6.2837641 
    3260    1098.8989   -9852.4913   -9729.9074    1489.6146    12986.529    6.2977942 
    3270    1103.9639   -9852.2713   -9729.1224    994.68883    12991.744     6.313003 
    3280    1122.5932   -9853.5988   -9728.3718   -766.07916    12997.158    6.3311652 
    3290    1128.7405   -9853.6111   -9727.6984   -1941.4178    13002.151    6.3524972 
    3300    1100.7391    -9849.891   -9727.1019   -2099.5759    13006.321    6.3747743 
    3310    1128.5281   -9852.4628   -9726.5738   -3222.6794    13009.508    6.3936818 
    3320    1122.0868    -9851.272   -9726.1015   -2738.0054     13011.44    6.4068764 
    3330    1140.3479    -9852.941   -9725.7335   -3616.4943    13012.231    6.4143979 
    3340     1169.107   -9855.9008   -9725.4851   -5793.3033    13011.566    6.4187787 
    3350    1119.2083   -9850.2576   -9725.4082   -6334.8389    13008.745    6.4218301 
    3360    1088.2335   -9846.8176   -9725.4235   -4544.7431    13003.645    6.4223616 
    3370    1145.0031   -9853.2052   -9725.4784   -2467.5003    12996.924    6.4206931 
    3380    1155.0542   -9854.4834   -9725.6354    380.69807    12989.475    6.4192223 
    3390    1103.4215   -9848.9959   -9725.9076    2924.5401    12982.364    6.4182568 
    3400    1093.4748   -9848.2002   -9726.2214    3839.9506    12976.518    6.4166843 
    3410    1106.6588   -9850.0102   -9726.5607    3888.8854    12972.279    6.4151707 
    3420    1105.3639   -9850.2332   -9726.9282    3296.1497    12969.609    6.4143935 
    3430    1125.6241   -9852.9321    -9727.367    2749.2699    12968.277    6.4142535 
    3440    1085.2039   -9848.9164   -9727.8603    3909.2063    12968.117    6.4151938 
    3450    1073.6747   -9848.1208   -9728.3508    4319.1941    12969.451     6.416456 
    3460    1130.5112   -9854.9657   -9728.8555    2234.4268    12972.344    6.4174485 
    3470    1143.8567   -9857.0577   -9729.4587   -297.81374    12976.033    6.4183197 
    3480    1090.5636    -9851.813    -9730.159   -1072.1405    12979.603    6.4170945 
    3490    1078.1587   -9851.1306   -9730.8604   -2690.0165    12982.658    6.4115756 
    3500    1131.1491   -9857.7769   -9731.5955   -5489.7472    12984.578    6.4024566 
    3510    1114.6681   -9856.7416   -9732.3987   -5761.4314     12984.44    6.3936225 
    3520    1115.5983   -9857.7074   -9733.2607   -4528.3303    12982.141    6.3885975 
    3530    1106.7968   -9857.6381   -9734.1732   -3710.4268    12978.129    6.3886294 
    3540    1058.3993   -9853.1472   -9735.0811   -2481.0865     12972.78      6.39086 
    3550    1026.3821   -9850.3543   -9735.8599   -1057.1941    12966.613    6.3917178 
    3560    1092.8656    -9858.461   -9736.5502   -1554.3066    12960.096     6.390337 
    3570    1108.2883   -9860.8777   -9737.2464   -400.21294    12953.184    6.3892417 
    3580    1069.5323   -9857.2637   -9737.9558    2407.1499    12946.323     6.391285 
    3590    1039.2032   -9854.5278   -9738.6031    5094.3711    12940.521    6.3967185 
    3600    1066.3816   -9858.1055    -9739.149    6175.8279    12936.757    6.4037769 
    3610    1136.7979   -9866.5356   -9739.7241    3900.3113    12935.305     6.411543 
    3620    1069.6274   -9859.6597   -9740.3411    3816.6736     12935.46    6.4206374 
    3630    1027.1821   -9855.4904   -9740.9067    4117.7648    12937.076    6.4312295 
    3640    1047.9058    -9858.273   -9741.3776     4089.554    12940.227    6.4439089 
    3650    1040.1069   -9857.7851   -9741.7596    5527.1496    12944.953    6.4586154 
    3660     1034.361   -9857.4313   -9742.0468    6013.8233    12951.694    6.4735976 
    3670    1064.0986   -9860.9298    -9742.228    3281.8292    12960.515    6.4878284 
    3680     1070.764    -9861.777   -9742.3316   -1541.1398    12970.357    6.5029077 
    3690    1044.7148   -9858.9104   -9742.3709   -3395.9896     12979.56    6.5210232 
    3700    1058.6954   -9860.4293   -9742.3302   -4355.3825    12987.315    6.5433866 
    3710    1062.9874   -9860.7999   -9742.2221   -5044.8351    12993.258    6.5705601 
    3720    1026.9225   -9856.6083   -9742.0535   -5299.5979    12997.179    6.6008567 
    3730    1054.6798   -9859.4669   -9741.8158   -7207.9429    12998.913    6.6299466 
    3740    1038.1152   -9857.2957   -9741.4924   -7481.1847    12997.894    6.6544777 
    3750    1036.3774   -9856.6962   -9741.0868   -6454.8262    12994.037    6.6711672 
    3760    1092.9817   -9862.4902   -9740.5664   -5950.7008    12987.738    6.6785478 
    3770    1090.6264   -9861.6633   -9740.0023   -4054.8948    12979.319    6.6795409 
    3780     1060.107   -9857.6782   -9739.4217   -1701.1976    12969.502     6.678293 
    3790     1108.678   -9862.4862   -9738.8115   -2070.9956    12959.111    6.6774619 
    3800    1107.4725   -9861.7396   -9738.1994   -146.50944    12948.228    6.6775078 
    3810     1073.635   -9857.3798   -9737.6142    3592.6519    12937.556    6.6762746 
    3820    1113.1867   -9861.2115   -9737.0339    6678.7553    12928.451     6.672665 
    3830    1079.9941   -9856.9274   -9736.4525    10730.577    12922.142    6.6697972 
    3840    1123.6097   -9861.2784   -9735.9381    10978.811    12919.909    6.6714465 
    3850     1118.853   -9860.2999   -9735.4902    9002.4545    12921.849    6.6797964 
    3860    1054.5204   -9852.7585   -9735.1251    7964.1405    12927.249    6.6917271 
    3870    1083.1888   -9855.5696   -9734.7383    4748.9706    12935.533    6.7016076 
    3880    1121.8025   -9859.4463   -9734.3075    1329.9121    12945.501    6.7078282 
    3890    1092.5236     -9855.79   -9733.9173    740.63059    12955.929     6.712909 
    3900    1082.7204   -9854.3503   -9733.5713     -374.103     12966.47    6.7199396 
    3910    1059.1506    -9851.332   -9733.1822   -2881.7688    12976.676    6.7295459 
    3920    1104.7361     -9855.98    -9732.745   -6660.1148    12985.547    6.7392849 
    3930    1112.5247   -9856.4018    -9732.298   -7353.0293    12991.811    6.7491258 
    3940    1087.2035    -9853.204   -9731.9248   -6031.5675    12995.202    6.7599189 
    3950    1082.1578   -9852.3065   -9731.5901   -5647.4162    12996.179    6.7706649 
    3960    1051.2686   -9848.5096    -9731.239   -4820.7867    12994.979    6.7785224 
    3970    1093.9034   -9852.8557   -9730.8292   -4686.8934    12991.909    6.7791167 
    3980    1158.7761   -9859.6801   -9730.4169    -4589.307    12987.065    6.7719877 
    3990    1106.8202   -9853.5763   -9730.1088   -1769.1887    12980.622    6.7616038 
    4000    1096.8937   -9852.2388   -9729.8787   -1057.1744    12973.517    6.7508388 
    4010    1131.5499   -9855.9082   -9729.6821   -1492.9436    12966.088    6.7398084 
    4020    1147.3743   -9857.5678   -9729.5764   -291.00471    12958.257    6.7285059 
    4030     1145.164    -9857.344   -9729.5992    2734.6603    12950.533    6.7187491 
    4040    1142.9526   -9857.2532   -9729.7551    5225.6804    12943.941    6.7128381 
    4050    1117.0232   -9854.6151   -9730.0094    8423.2711    12939.499    6.7124663 
    4060    1110.3394   -9854.1856   -9730.3256    9418.3185    12938.292    6.7187798 
    4070    1119.3989   -9855.5876    -9730.717    8510.8186     12940.66    6.7329868 
    4080    1105.6417   -9854.5458   -9731.2098    7579.4398    12946.259    6.7555558 
    4090    1080.5591   -9852.2962   -9731.7582    6207.5956    12954.678    6.7858538 
    4100    1086.5991   -9853.5236   -9732.3118    3310.0415    12965.326    6.8230995 
    4110    1116.2158    -9857.405   -9732.8894    440.26401    12977.146    6.8652616 
    4120    1098.6431   -9856.0548   -9733.4995   -1673.7883    12989.015    6.9084889 
    4130    1094.7557   -9856.2323   -9734.1106   -4586.5364    13000.065    6.9487074 
    4140     1124.891   -9860.2217   -9734.7384   -9049.1277     13009.13    6.9852198 
    4150    1105.0782   -9858.6987   -9735.4256   -11161.373    13014.639    7.0195308 
    4160    1062.5627   -9854.6536   -9736.1231   -10645.355    13015.819    7.0520854 
    4170    1087.2582   -9858.0743    -9736.789   -9398.4314    13012.869    7.0813501 
    4180     1108.255   -9861.0942   -9737.4667   -7343.8713     13006.34    7.1057246 
    4190    1076.4587   -9858.2004   -9738.1198    -4076.765    12997.134    7.1239936 
    4200    1076.0311   -9858.7537   -9738.7208   -2165.2191    12986.446     7.135744 
    4210     1070.939    -9858.734   -9739.2692    677.24252    12975.156    7.1422548 
    4220    1087.1971   -9861.0792   -9739.8007    2811.4145     12964.29    7.1438873 
    4230    1104.7451   -9863.6024   -9740.3664    5796.9719    12954.747    7.1407852 
    4240    1076.0906     -9861.02   -9740.9805    8863.8711    12947.612    7.1341323 
    4250    1041.1156   -9857.6997   -9741.5617    9429.4643    12943.908    7.1248331 
    4260    1083.2703   -9862.9686   -9742.1282    8140.5701    12943.803     7.114286 
    4270     1062.115   -9861.1457   -9742.6652    8357.5031    12946.903    7.1052461 
    4280    1054.1307   -9860.7325   -9743.1427      7240.41    12953.108    7.0974228 
    4290    1068.2772   -9862.7034   -9743.5355    5059.9253    12961.946    7.0887126 
    4300    1030.2296   -9858.7344   -9743.8107    4258.3964    12972.656    7.0780976 
    4310    1065.0407   -9862.7761   -9743.9692    1581.0777    12984.779    7.0663442 
    4320     1101.175   -9866.8947   -9744.0569   -1734.6946    12997.297     7.056522 
    4330    1058.5592   -9862.2165   -9744.1326   -1844.3321    13009.056    7.0499481 
    4340    1069.9931   -9863.5419   -9744.1826    -2756.089    13019.869    7.0459343 
    4350    1092.2079   -9866.0451   -9744.2077   -4885.1157    13029.385    7.0452727 
    4360    1047.5638   -9861.0842   -9744.2269   -5520.7901    13036.898    7.0486353 
    4370    1049.7405   -9861.3125   -9744.2124   -7254.7758    13042.107     7.054212 
    4380    1051.4797   -9861.4251   -9744.1309   -9221.1354    13044.397     7.059606 
    4390    1010.0386   -9856.6415   -9743.9701   -8834.6862    13043.138    7.0629815 
    4400    1046.4697   -9860.4469   -9743.7116   -8979.1007    13038.426    7.0641767 
    4410    1059.6192   -9861.5397   -9743.3376   -7289.1182    13030.374    7.0650707 
    4420    1042.7796   -9859.2152   -9742.8915   -2850.7616    13019.744     7.066535 
    4430    1036.2106   -9857.9117   -9742.3208   -361.85056    13008.115     7.068725 
    4440    1063.9744   -9860.2953   -9741.6074    1388.3283    12996.554    7.0712475 
    4450    1101.8572   -9863.7133   -9740.7995    3082.3003    12985.755    7.0735935 
    4460    1118.9961   -9864.8445   -9740.0188    5343.2235    12976.365    7.0755306 
    4470    1052.9135   -9856.7507   -9739.2966    9182.5678    12969.268    7.0779949 
    4480    1047.1297   -9855.3978    -9738.589    11365.616    12965.785    7.0816092 
    4490    1089.5476   -9859.3676    -9737.827    9142.8084    12966.566    7.0871851 
    4500     1088.926   -9858.5148   -9737.0435    6564.3186     12970.87    7.0933075 
    4510    1091.3475    -9858.015   -9736.2735    5388.2026    12977.682    7.0971543 
    4520    1098.9637   -9858.1077   -9735.5167    5713.4216    12986.509    7.0993266 
    4530     1140.178   -9861.9946    -9734.806    4333.9882    12997.322    7.1041831 
    4540    1122.2315   -9859.3723   -9734.1857      3507.24    13009.679    7.1165341 
    4550    1091.2714   -9855.4089   -9733.6759    2195.7676     13023.17    7.1369257 
    4560    1072.5424    -9852.826   -9733.1823   -872.98884     13037.22    7.1623726 
    4570    1085.3508   -9853.7112   -9732.6387   -5748.7598    13050.626    7.1884271 
    4580    1147.7862   -9860.1158   -9732.0785   -10571.671    13061.568     7.211226 
    4590     1105.783   -9854.9662   -9731.6144   -11401.974    13068.371    7.2285078 
    4600    1073.4231   -9850.9916   -9731.2497   -10979.898     13070.63    7.2378019 
    4610    1122.9539   -9856.1768   -9730.9096   -10882.279    13068.519    7.2376976 
    4620     1122.229   -9855.8169   -9730.6306    -9301.944    13062.248    7.2283267 
    4630    1103.6489   -9853.5626   -9730.4489   -6228.1398    13052.517    7.2108163 
    4640      1107.71   -9853.8526   -9730.2859   -1952.2196    13040.558    7.1882533 
    4650    1140.0912   -9857.2936   -9730.1147    1060.7027    13028.019    7.1649073 
    4660    1175.9673   -9861.2402   -9730.0592    2541.6563    13016.075    7.1435851 
    4670    1102.9186   -9853.1716   -9730.1393    7531.5065    13005.475    7.1237693 
    4680    1120.9883    -9855.369    -9730.321     9235.842    12997.842    7.1024993 
    4690     1141.209   -9857.9134   -9730.6098    8536.5188     12993.83    7.0811899 
    4700    1123.1503   -9856.3051    -9731.016    9409.2231    12993.253    7.0636025 
    4710    1137.4519    -9858.429   -9731.5446     9955.896    12996.315    7.0507434 
    4720    1134.1248   -9858.7132   -9732.1999    8484.2955    13003.073    7.0409969 
    4730    1111.0379   -9856.8903   -9732.9524    6617.0455    13013.007    7.0320933 
    4740    1100.2489   -9856.4606   -9733.7262    3231.4392    13025.304    7.0236569 
    4750    1109.2958   -9858.2215   -9734.4779   -2042.5194     13038.58    7.0171326 
    4760    1099.3841   -9857.8476   -9735.2096   -5987.9564     13050.89    7.0148538 
    4770      1111.91   -9860.0031   -9735.9679   -8671.8937    13060.695    7.0167369 
    4780    1122.5189   -9862.0053   -9736.7867    -10712.54    13066.964    7.0204774 
    4790    1102.4373   -9860.6671   -9737.6886   -10837.118    13069.018    7.0240062 
    4800    1055.1986   -9856.2992   -9738.5902    -8318.205    13066.905    7.0262738 
    4810    1059.5549   -9857.6208   -9739.4258   -6896.0839    13061.506    7.0286957 
    4820    1086.4567   -9861.4156   -9740.2197   -3841.3244    13053.574    7.0349984 
    4830    1081.1444   -9861.5726   -9740.9693     551.4263    13044.324    7.0468703 
    4840    1068.1271   -9860.8076   -9741.6564    3989.6005     13035.39    7.0621387 
    4850    1064.1932    -9860.981   -9742.2686    6568.1409    13028.146    7.0785159 
    4860    1064.6403   -9861.5706   -9742.8084    8034.1769    13023.571    7.0963961 
    4870    1086.6258   -9864.5136   -9743.2989    7023.4024    13022.129    7.1174955 
    4880     1095.355   -9865.9988   -9743.8103    4900.9981    13023.408    7.1425327 
    4890    1028.6187   -9859.0291   -9744.2851    5067.0722     13026.67    7.1703782 
    4900    1030.0647   -9859.5543   -9744.6491    3846.9437    13031.797    7.1977559 
    4910    1068.1337   -9864.0505   -9744.8986    167.50673    13038.238    7.2214789 
    4920    1069.0683   -9864.3414   -9745.0852   -2692.4553    13044.688    7.2406648 
    4930    1067.6922   -9864.3434   -9745.2407   -4725.7815    13050.005    7.2560105 
    4940    1049.7992   -9862.4428   -9745.3362   -5590.0381    13053.417    7.2676972 
    4950    1053.0736   -9862.8433   -9745.3714    -6070.172    13054.594    7.2740352 
    4960    1027.9599   -9860.0038   -9745.3334   -4827.1108    13053.444    7.2724753 
    4970    1022.9211   -9859.3057   -9745.1973   -2731.4127    13050.459    7.2611013 
    4980    1102.5045   -9867.9484   -9744.9624   -2103.8053     13046.43    7.2412918 
    4990     1138.569   -9871.7482   -9744.7391   -860.90057    13041.671     7.216834 
    5000     1042.488    -9860.855   -9744.5639    3978.5992    13036.803    7.1901498 
Loop time of 2575.07 on 16 procs for 3000 steps with 864 atoms

Performance: 0.101 ns/day, 238.433 hours/ns, 1.165 timesteps/s
96.3% CPU use with 16 MPI tasks x 1 OpenMP threads

MPI task timing breakdown:
Section |  min time  |  avg time  |  max time  |%varavg| %total
---------------------------------------------------------------
Pair    | 1287.4     | 2085.4     | 2548.7     | 834.5 | 80.98
Bond    | 0.00024176 | 0.00075221 | 0.001817   |   0.0 |  0.00
Neigh   | 0.037699   | 0.058215   | 0.073385   |   5.4 |  0.00
Comm    | 25.429     | 475.86     | 1235.7     |1677.5 | 18.48
Output  | 0.68604    | 0.68981    | 0.74536    |   1.7 |  0.03
Modify  | 0.13714    | 13.069     | 51.248     | 609.7 |  0.51
Other   |            | 0.01327    |            |       |  0.00

Nlocal:        54.0000 ave          64 max          36 min
Histogram: 2 0 1 1 1 3 0 0 1 7
Nghost:        646.500 ave         761 max         523 min
Histogram: 6 2 0 0 0 0 0 0 0 8
Neighs:         0.00000 ave           0 max           0 min
Histogram: 16 0 0 0 0 0 0 0 0 0
FullNghs:      3458.62 ave        4428 max        2138 min
Histogram: 2 1 1 2 2 0 0 0 4 4

Total # of neighbors = 55338
Ave neighs/atom = 64.048611
Ave special neighs/atom = 0.0000000
Neighbor list builds = 300
Dangerous builds = 300
unfix   2

fix     3 all npt temp 1087.5 1087.5 $(100.0*dt) aniso 1.01325 1.01325 $(1000.0*dt)
fix     3 all npt temp 1087.5 1087.5 0.10000000000000000555 aniso 1.01325 1.01325 $(1000.0*dt)
fix     3 all npt temp 1087.5 1087.5 0.10000000000000000555 aniso 1.01325 1.01325 1
run     20000
Per MPI rank memory allocation (min/avg/max) = 8.899 | 8.906 | 8.912 Mbytes
Step Temp PotEng TotEng Press Volume c_msd[4] 
    5000     1042.488    -9860.855   -9744.5639    3978.5992    13036.803    7.1901498 
    5010    1013.2064   -9857.5257    -9744.501    5637.6592    13037.746    7.1920911 
    5020    1067.4957    -9863.392   -9744.3112    4396.1509    13040.787    7.1941364 
    5030    1085.3232   -9865.1121   -9744.0427    2974.7438    13045.561    7.1993818 
    5040     1070.749    -9863.194   -9743.7504    2074.1233    13051.542    7.2086623 
    5050    1069.6473   -9862.7471   -9743.4264    1591.7058    13058.371    7.2207953 
    5060    1065.7024   -9861.9289   -9743.0481    1426.1311    13065.855      7.23341 
    5070    1036.5826   -9858.2199   -9742.5875    1229.1518    13073.938    7.2441935 
    5080    1071.8059   -9861.5774   -9742.0159   -1359.2824    13082.432    7.2534148 
    5090    1074.5137   -9861.1927   -9741.3291   -2712.1541    13090.466    7.2647506 
    5100    1079.3384   -9861.0008    -9740.599   -3177.0561    13097.462    7.2807464 
    5110    1091.3439   -9861.5762   -9739.8352   -2851.2911    13103.231    7.3025457 
    5120    1069.4217    -9858.368   -9739.0724   -1940.4305    13107.923    7.3315182 
    5130    1070.9615   -9857.7705   -9738.3031   -3390.4604    13111.756     7.366779 
    5140    1085.3748   -9858.5876   -9737.5124   -4950.9171    13114.257    7.4047372 
    5150    1097.2822   -9859.1504    -9736.747   -5908.9933    13114.823    7.4413865 
    5160    1075.2672   -9855.9848   -9736.0371   -5836.2626    13113.074    7.4732381 
    5170     1077.985   -9855.6275   -9735.3767   -4936.8435    13109.034    7.4983703 
    5180     1096.377   -9857.0546   -9734.7521   -3361.5248    13103.038    7.5166691 
    5190    1122.9769   -9859.4935   -9734.2237   -1959.1764    13095.667    7.5293129 
    5200    1109.0546   -9857.5427    -9733.826    1123.6225    13087.579    7.5391351 
    5210    1109.0732   -9857.2573   -9733.5385    3900.0998    13079.914     7.548626 
    5220    1113.3877   -9857.5455   -9733.3454    5688.9637    13073.735    7.5586285 
    5230     1070.215   -9852.5866   -9733.2025    7948.7563    13069.846    7.5683847 
    5240    1138.7311   -9860.1446   -9733.1174     5282.771    13068.879    7.5763297 
    5250    1149.8839   -9861.4066   -9733.1353    3941.3048     13070.05    7.5839903 
    5260    1088.7182   -9854.7056   -9733.2574    6474.7426    13072.934    7.5945521 
    5270    1101.6554   -9856.2998   -9733.4085    7442.4635     13078.33    7.6092304 
    5280      1125.23   -9859.1056   -9733.5845    6016.6848    13086.587    7.6275749 
    5290    1100.8951   -9856.6152   -9733.8087    6111.4997    13097.368    7.6500993 
    5300    1113.5969   -9858.2913   -9734.0679    3979.7338     13110.58    7.6783369 
    5310     1122.417   -9859.5544   -9734.3471   -183.98916     13125.38    7.7119467 
    5320    1075.8667   -9854.6344   -9734.6199   -2936.6396    13140.248    7.7473756 
    5330    1096.7987   -9857.2058   -9734.8562   -5334.6577    13154.038    7.7799454 
    5340    1129.3617   -9861.0765   -9735.0945   -7475.0508    13165.788    7.8066963 
    5350    1090.7258   -9857.0437   -9735.3716   -8526.8651    13174.665    7.8273699 
    5360     1080.296   -9856.1704   -9735.6617   -10290.836    13180.117    7.8439161 
    5370    1074.9149   -9855.8488   -9735.9404   -11273.093    13181.495    7.8583884 
    5380    1086.4886   -9857.4173   -9736.2179   -10160.732    13178.436    7.8706411 
    5390    1126.2842   -9862.1733   -9736.5346   -8823.4413    13171.252    7.8799172 
    5400    1096.9476   -9859.2773   -9736.9111   -3970.0008     13160.62    7.8858245 
    5410    1066.6193    -9856.243     -9737.26    1317.3502    13148.353    7.8888867 
    5420    1092.7428   -9859.4694   -9737.5723    3982.7464    13136.452    7.8918686 
    5430    1087.7897   -9859.2083   -9737.8637    5962.1246    13126.055    7.8975346 
    5440    1099.6487   -9860.8349   -9738.1674    7877.0073    13117.988    7.9065806 
    5450      1110.46   -9862.3814   -9738.5079    8788.7425     13112.96    7.9194503 
    5460    1104.8168   -9862.1639   -9738.9199    9590.0938    13111.412    7.9383843 
    5470    1097.2121   -9861.7836    -9739.388    7712.8106    13113.594    7.9668659 
    5480    1104.9943   -9863.1698    -9739.906    4068.3118    13118.811    8.0054821 
    5490    1069.7138   -9859.7659   -9740.4378    2475.0672    13125.773    8.0504813 
    5500    1061.5991   -9859.3497   -9740.9267    520.42548    13133.772    8.0968541 
    5510    1089.5243   -9862.9019   -9741.3639   -3568.7571    13141.958    8.1408909 
    5520    1076.9008   -9861.9091   -9741.7791   -5588.3275    13148.864    8.1796489 
    5530    1070.2381   -9861.5811   -9742.1944   -5105.6269    13153.683    8.2113033 
    5540    1047.8473   -9859.4805   -9742.5915    -3076.579    13156.562    8.2359254 
    5550    1031.7924   -9858.0313   -9742.9334   -2160.0758    13158.188    8.2536172 
    5560    1052.5652   -9860.6262   -9743.2109   -2916.5566    13158.936    8.2633927 
    5570    1059.6154   -9861.6311   -9743.4294   -3478.8753     13158.54    8.2663858 
    5580    1064.4598   -9862.3444   -9743.6023   -1745.2051    13156.834    8.2665477 
    5590    1061.2087   -9862.1107   -9743.7313    1168.1976    13154.459    8.2683363 
    5600    1079.1625   -9864.2052    -9743.823     2301.207    13152.456    8.2735759 
    5610    1117.5689   -9868.6037   -9743.9372    1966.3209    13151.302    8.2825347 
    5620    1067.9788   -9863.2294   -9744.0947    2435.3509    13150.961    8.2941917 
    5630    1069.6196   -9863.6037    -9744.286     3135.063    13151.594    8.3056715 
    5640    1060.9561   -9862.8234   -9744.4722    4475.1927    13153.501    8.3153974 
    5650    1031.9062   -9859.7437    -9744.633    6880.8741    13157.287    8.3227364 
    5660     1100.076   -9867.4906   -9744.7754    5248.5276    13163.718    8.3278485 
    5670    1100.0643   -9867.6641   -9744.9503    2890.2353    13172.328    8.3327491 
    5680     1043.346   -9861.5358   -9745.1489   -311.39315    13182.176    8.3388508 
    5690    1071.3381   -9864.8175   -9745.3081   -4769.5558    13191.953    8.3454585 
    5700    1060.5426   -9863.7146   -9745.4094   -6838.5545    13199.986    8.3516993 
    5710    1053.2772   -9862.9566   -9745.4619   -6886.9551    13205.422    8.3569441 
    5720    1073.2998    -9865.188   -9745.4598   -6707.7357    13208.137    8.3612822 
    5730     1065.796   -9864.3099   -9745.4187   -5467.3259    13208.215    8.3648185 
    5740    1070.5264   -9864.7753   -9745.3565    -4244.336    13206.089    8.3682607 
    5750    1040.9808   -9861.3582   -9745.2353   -2068.2092    13202.268    8.3740294 
    5760    1043.3645    -9861.417   -9745.0281   -933.55509    13197.521     8.383592 
    5770     1057.627   -9862.6979    -9744.718    26.160688    13192.344    8.3966267 
    5780    1044.8193   -9860.8609   -9744.3098     883.3127    13187.104    8.4120465 
    5790    1045.4974   -9860.4282   -9743.8014     308.2634    13182.101    8.4292368 
    5800    1051.0784   -9860.4312   -9743.1819    52.150959    13177.164    8.4490172 
    5810    1077.7623   -9862.6931   -9742.4671     1370.264    13172.251    8.4728328 
    5820    1092.1954   -9863.5347   -9741.6987    2517.9345    13167.832    8.5017602 
    5830    1062.8021   -9859.4765   -9740.9193    5096.7893    13164.457    8.5351297 
    5840    1048.6862    -9857.106   -9740.1235    6714.6155     13163.06    8.5709563 
    5850    1116.6922   -9863.8669   -9739.2982     5436.006    13164.225    8.6071522 
    5860    1103.2379   -9861.5891   -9738.5213     6371.207    13167.718    8.6426727 
    5870     1081.384   -9858.4904   -9737.8604    4743.6347    13173.735    8.6761999 
    5880    1122.9763   -9862.5155   -9737.2458    31.420061    13181.674    8.7066599 
    5890    1111.0004   -9860.6158    -9736.682   -2899.4365    13189.826    8.7335566 
    5900    1104.1708   -9859.3781   -9736.2062   -3470.5243    13197.014    8.7554517 
    5910    1102.9139   -9858.8311   -9735.7994    -2261.456    13202.977    8.7713778 
    5920    1069.2026   -9854.7037   -9735.4325   -198.84855    13208.178    8.7828105 
    5930    1104.4993   -9858.2855    -9735.077   -1755.2368    13213.224    8.7912572 
    5940    1128.9861   -9860.6917   -9734.7516    -2637.966    13217.649    8.7977922 
    5950     1108.196   -9858.1313   -9734.5104   -472.15287      13221.2     8.805131 
    5960    1113.5062   -9858.5584   -9734.3451    214.69721    13224.554    8.8170398 
    5970    1078.3435   -9854.4896   -9734.1988    370.48192    13228.036    8.8362638 
    5980    1097.6227   -9856.5091   -9734.0676    214.05445    13231.713    8.8618116 
    5990    1119.2313   -9858.8081   -9733.9562    1330.8275    13235.618    8.8910867 
    6000    1120.4743   -9858.9094   -9733.9188    858.13288    13240.073     8.922131 
    6010    1124.1991   -9859.3662   -9733.9601   -1316.6703    13244.891    8.9543036 
    6020    1117.6472   -9858.7433    -9734.068   -3028.9317    13249.271    8.9872778 
    6030    1111.3143   -9858.2015   -9734.2328   -3918.2751    13252.543    9.0193604 
    6040    1107.6954   -9858.0188   -9734.4537   -5585.2201    13254.239    9.0480017 
    6050    1093.2161   -9856.6977   -9734.7478    -5110.487    13253.783    9.0707821 
    6060    1091.6698   -9856.8667   -9735.0893   -5183.5353    13251.205    9.0872938 
    6070    1140.5706   -9862.7598   -9735.5274   -5580.8777    13246.441    9.0986089 
    6080    1113.4516   -9860.3094   -9736.1022   -3046.5954    13239.409     9.105487 
    6090    1092.7647   -9858.6664   -9736.7669   -1174.5668    13230.969    9.1068244 
    6100    1122.5094   -9862.7559   -9737.5383    66.272141    13221.879    9.1022063 
    6110     1084.032   -9859.3137   -9738.3883    4034.2193    13212.768    9.0932316 
    6120    1097.9968   -9861.7568   -9739.2736    5519.4852    13205.009    9.0808232 
    6130    1121.1062   -9865.3231   -9740.2621    5208.6918      13199.3    9.0654754 
    6140    1048.7214    -9858.243   -9741.2566    6042.0944    13195.663    9.0469708 
    6150    1045.7126   -9858.7919   -9742.1411    5120.9205    13194.348    9.0243291 
    6160    1066.7618   -9861.8879    -9742.889    2656.2935    13195.044    8.9981557 
    6170    1072.8871   -9863.2002    -9743.518    2230.9313    13196.927    8.9706873 
    6180    1081.6355   -9864.7131    -9744.055      2099.86    13199.747    8.9460607 
    6190    1067.3346   -9863.5594   -9744.4967    1641.0275    13203.465    8.9281466 
    6200     1071.869    -9864.417   -9744.8484    690.52844    13207.908     8.916401 
    6210     1082.875   -9865.9023    -9745.106     385.5988    13212.751     8.908783 
    6220    1103.1601   -9868.3886   -9745.3294    793.53951    13217.874    8.9049898 
    6230     1069.576    -9864.852   -9745.5392    1496.4611    13223.465    8.9067908 
    6240    1041.3205   -9861.8652   -9745.7044    1116.7083    13229.757    8.9156616 
    6250    1037.0944   -9861.4642   -9745.7748    124.04958    13236.621    8.9323777 
    6260    1055.4102   -9863.4839   -9745.7513   -1163.2157    13243.681    8.9566182 
    6270     1096.053   -9867.9365   -9745.6701   -3209.3597    13250.405     8.985916 
    6280    1105.1815   -9868.9037    -9745.619   -4662.4929    13255.972    9.0173887 
    6290    1047.2655   -9862.4004   -9745.5764   -3482.2931    13259.859    9.0490407 
    6300      1087.23   -9866.7844   -9745.5022    -4219.087    13262.313    9.0802691 
    6310    1101.5972   -9868.2868    -9745.402   -5055.9889    13263.098    9.1126766 
    6320    1060.0109   -9863.5799   -9745.3341   -4455.3912    13261.873    9.1475563 
    6330     1040.787   -9861.3333    -9745.232   -2959.1996    13258.836    9.1844811 
    6340       1084.7   -9866.0826   -9745.0827   -1649.7171    13254.514    9.2227075 
    6350    1077.1887   -9865.0458   -9744.8837    205.64693    13249.467    9.2608898 
    6360    1077.2695   -9864.8118   -9744.6408    1346.4721    13244.376    9.2970111 
    6370    1076.8095   -9864.4577    -9744.338     1498.756    13239.701    9.3297436 
    6380      1081.02   -9864.5998   -9744.0104     866.8636     13235.52     9.357492 
    6390    1108.2374    -9867.316   -9743.6905    547.44159    13231.645    9.3786239 
    6400    1098.6227   -9865.9871   -9743.4341    3140.5272    13228.027    9.3922916 
    6410    1046.4223   -9859.9404   -9743.2104    7001.7809     13225.69    9.3989067 
    6420     1092.539   -9864.8782   -9743.0038    6127.9183    13225.966    9.3999309 
    6430    1081.4628    -9863.438   -9742.7992    4878.2847    13228.749    9.3977139 
    6440    1068.4411   -9861.7944   -9742.6082    3485.1748    13233.573    9.3937633 
    6450    1106.3303   -9865.7993   -9742.3865    340.39449    13239.835    9.3886544 
    6460    1105.4541   -9865.4849   -9742.1699   -1174.5478    13246.433    9.3805406 
    6470    1072.6945   -9861.6438   -9741.9831   -1093.3904    13252.744    9.3674205 
    6480    1085.7533   -9862.8942   -9741.7767   -2975.6537    13258.649    9.3498679 
    6490    1107.3036   -9865.0485   -9741.5271   -4784.0351    13263.442    9.3289095 
    6500    1091.5289   -9863.0247   -9741.2631   -4539.8274     13266.43    9.3051177 
    6510    1123.7276    -9866.385   -9741.0315   -4747.4493     13267.56    9.2788427 
    6520    1063.8782   -9859.5046   -9740.8274   -1660.6452    13266.906    9.2517213 
    6530    1017.2769   -9854.0466   -9740.5678    835.61435    13265.552    9.2252511 
    6540    1116.0445     -9864.68   -9740.1836   -782.44967    13264.368    9.2009694 
    6550    1148.1789   -9867.8333   -9739.7522   -846.61209    13262.914    9.1814952 
    6560    1114.2442    -9863.689   -9739.3934    423.53034    13261.137    9.1684251 
    6570    1085.3973   -9860.1373   -9739.0596    1665.3345    13259.514    9.1620584 
    6580    1082.0233   -9859.3548   -9738.6535    1926.2559     13258.52    9.1644928 
    6590    1127.3609   -9863.8894   -9738.1306    1993.3686    13258.297    9.1786829 
    6600    1113.3787   -9861.6905   -9737.4914    3485.5841     13258.94    9.2051158 
    6610    1121.6967   -9861.8877   -9736.7607    3899.4455    13260.975    9.2403583 
    6620     1145.986   -9863.7518   -9735.9154    3695.6532    13264.609    9.2808386 
    6630    1093.7367    -9857.036   -9735.0281    5086.3277    13269.891    9.3262092 
    6640    1111.0323   -9858.0349   -9734.0975    3296.3156    13277.211    9.3763721 
    6650    1131.4282   -9859.3119   -9733.0994    1869.5128    13286.017    9.4284499 
    6660    1103.6556    -9855.257   -9732.1425    1768.1967    13295.762    9.4783903 
    6670    1153.2483   -9859.8854   -9731.2388   -1151.5501     13306.24    9.5244523 
    6680    1159.8595   -9859.8055   -9730.4214   -3607.9199    13316.417     9.568518 
    6690    1102.6831   -9852.7725   -9729.7665   -3975.0648    13325.326     9.611915 
    6700     1137.288    -9856.086   -9729.2198   -5820.8194    13332.622    9.6522402 
    6710      1172.52   -9859.5913    -9728.795   -6488.1884    13337.661    9.6858544 
    6720     1159.876   -9857.9832   -9728.5973   -5422.0545    13340.133     9.711511 
    6730    1107.7982   -9852.1529   -9728.5763   -3090.6284    13340.448    9.7312025 
    6740    1104.7719   -9851.8687   -9728.6297   -2460.6527    13339.412    9.7471061 
    6750     1126.743    -9854.422   -9728.7321   -1632.0811    13337.348    9.7607741 
    6760    1149.1498   -9857.1208   -9728.9314   -145.69586    13334.608    9.7741729 
    6770    1167.1299   -9859.4801    -9729.285    1500.5398     13331.78    9.7898549 
    6780    1134.5881   -9856.3679   -9729.8029    3265.6249     13329.54    9.8090376 
    6790    1128.4382   -9856.3217   -9730.4428    3445.5327    13328.588    9.8286757 
    6800    1150.1161   -9859.5168   -9731.2196    571.06991    13328.916    9.8437966 
    6810    1118.0377   -9856.8459   -9732.1271   -563.56102    13329.576    9.8495738 
    6820    1098.3847   -9855.5886   -9733.0622   -307.09384    13330.082    9.8436191 
    6830    1134.5731   -9860.5725   -9734.0092   -943.76302    13330.429    9.8296439 
    6840    1123.0443   -9860.2604   -9734.9831    -1142.717    13330.426    9.8149994 
    6850    1109.5232   -9859.6875   -9735.9186   -2388.6864    13329.912    9.8052652 
    6860    1116.3569   -9861.3381   -9736.8068   -3906.2673    13328.419    9.8012916 
    6870     1085.682   -9858.7054   -9737.5959    -4133.234    13325.368    9.8001683 
    6880    1094.6031   -9860.3899   -9738.2853   -3969.2505    13320.572    9.7976589 
    6890    1072.3757   -9858.4873   -9738.8622   -2020.0893    13314.141    9.7923754 
    6900    1070.2097   -9858.6977   -9739.3142    673.89939     13306.85    9.7870234 
    6910    1113.4555   -9863.8917   -9739.6841    1105.7739     13299.66    9.7850096 
    6920    1111.1421   -9863.9977   -9740.0482    3129.8656    13292.923    9.7856855 
    6930    1059.6711    -9858.577   -9740.3691    7166.4187    13287.484    9.7859538 
    6940    1085.9073   -9861.7683   -9740.6337     10090.64    13284.872     9.786254 
    6950    1109.9315    -9864.697   -9740.8825    9970.3276    13286.241    9.7925736 
    6960    1140.0248   -9868.3783   -9741.2068    6730.4716    13291.585    9.8089859 
    6970    1115.3235   -9866.0328   -9741.6168    3847.5784    13299.752    9.8324196 
    6980     1048.966   -9859.0349   -9742.0212    3384.3841    13309.705    9.8561727 
    6990    1055.0081   -9860.0218    -9742.334    923.86105    13321.073    9.8753105 
    7000     1083.497   -9863.4093   -9742.5436   -1850.6766    13332.935    9.8898067 
    7010     1094.858   -9864.8471   -9742.7141   -2424.3405    13344.235    9.9037735 
    7020    1065.4507   -9861.7444   -9742.8917   -1095.4012    13354.727    9.9211254 
    7030    1050.5706   -9860.2283   -9743.0356   -2038.5509    13364.778    9.9423651 
    7040      1089.66   -9864.6799   -9743.1267   -4525.3551    13374.028    9.9664056 
    7050     1068.241   -9862.3599    -9743.196   -5472.6747    13381.567    9.9930491 
    7060    1058.5879   -9861.3146   -9743.2276   -7616.7576    13386.859    10.019791 
    7070    1115.1836   -9867.6372   -9743.2368   -10500.225    13389.002    10.041884 
    7080    1084.4179   -9864.2566   -9743.2881   -9676.7457    13386.935    10.056675 
    7090    1059.8447   -9861.5769   -9743.3496   -7110.0695    13380.891    10.063318 
    7100     1085.369   -9864.4564   -9743.3819   -4633.9328    13371.816     10.06236 
    7110    1053.3949   -9860.8597   -9743.3519   -7.6306512    13360.838    10.055924 
    7120    1073.5425   -9863.0078   -9743.2525    2039.1012    13349.656    10.047573 
    7130    1093.8261    -9865.106   -9743.0881    3204.2614    13339.213     10.04148 
    7140    1092.4281   -9864.7751   -9742.9131    4020.7376    13329.974    10.039584 
    7150    1103.1852   -9865.8049   -9742.7429    5352.8169    13322.351    10.040029 
    7160    1083.2047   -9863.4006   -9742.5675    6602.2025    13316.879     10.04042 
    7170     1053.583   -9859.8879   -9742.3591    8024.0681    13314.106     10.04142 
    7180    1060.3187   -9860.3584   -9742.0783    8758.2961    13314.578    10.046099 
    7190    1077.7739   -9861.9213    -9741.694    8199.6387    13318.621    10.056918 
    7200    1133.2702   -9867.6645   -9741.2465    6082.2524    13326.018    10.075056 
    7210    1096.7061   -9863.1305   -9740.7913    6321.0049    13336.097      10.1005 
    7220    1053.2142   -9857.8197    -9740.332    5629.8053    13348.847    10.131073 
    7230    1095.2837   -9861.9322   -9739.7517    825.11503     13363.89    10.165207 
    7240    1081.8097   -9859.7149   -9739.0374   -2415.8669    13379.512     10.20503 
    7250    1066.1221   -9857.1837   -9738.2562   -3845.5091    13394.327    10.252668 
    7260    1105.1961   -9860.6548   -9737.3685   -4792.8315     13407.67    10.307333 
    7270    1137.5642    -9863.318    -9736.421   -5510.7032    13419.134    10.364657 
    7280    1122.2426   -9860.7269    -9735.539   -5511.9521    13428.426    10.420016 
    7290    1078.7688   -9855.0809   -9734.7426   -6621.1445    13435.447    10.471361 
    7300     1081.815   -9854.6489   -9733.9708   -9026.9628    13439.701    10.517734 
    7310    1124.1942   -9858.6216   -9733.2161   -11273.126    13440.189    10.558752 
    7320    1126.3925   -9858.2192   -9732.5684   -10815.431    13436.064    10.592626 
    7330    1118.2225   -9856.8249   -9732.0855   -9326.2206    13427.441    10.615561 
    7340    1122.0618   -9856.9076   -9731.7399   -6020.6975     13414.99    10.625945 
    7350     1121.117    -9856.525   -9731.4627   -844.03933    13400.099     10.62686 
    7360    1153.6559   -9859.9122   -9731.2202    3898.6243    13384.811    10.623495 
    7370    1152.2936   -9859.6091    -9731.069    7952.4316    13371.083    10.621731 
    7380    1098.1836   -9853.5257   -9731.0217    12397.222     13360.66    10.626325 
    7390    1112.6935   -9855.1716    -9731.049    14157.553    13355.237     10.63872 
    7400    1121.3501   -9856.2678   -9731.1796    13747.625    13355.569    10.658097 
    7410    1101.2722   -9854.2771   -9731.4286     13565.56     13361.61    10.682464 
    7420    1143.0178   -9859.3065   -9731.8012    10237.662    13373.158    10.711361 
    7430    1141.7211    -9859.635   -9732.2743    5952.5852     13388.95    10.744418 
    7440    1153.2114    -9861.507   -9732.8645    560.23101    13407.202    10.778904 
    7450    1145.5186   -9861.3404   -9733.5561   -4700.8004    13425.736    10.810797 
    7460    1114.6343   -9858.6782   -9734.3391   -7534.8823    13442.467    10.835703 
    7470    1095.7508   -9857.4023   -9735.1696   -9345.0595    13456.135    10.849904 
    7480    1073.5728   -9855.7409   -9735.9822   -9377.7637    13465.996    10.850264 
    7490    1079.5322   -9857.1391   -9736.7157    -9225.461    13471.933    10.836096 
    7500    1084.1255   -9858.2786   -9737.3427   -9294.7591    13474.001    10.810691 
    7510     1083.493   -9858.7692   -9737.9039   -9402.0196    13472.179    10.779112 
    7520    1067.2423   -9857.4515   -9738.3991   -8460.9265     13466.48      10.7453 
    7530    1071.8448   -9858.3658   -9738.7999   -6844.5369    13457.264    10.711645 
    7540    1101.8685   -9862.0528   -9739.1377   -4212.6598    13445.215    10.680906 
    7550    1068.9805   -9858.6499   -9739.4035   -463.12168    13431.472    10.656569 
    7560    1067.9809   -9858.7196   -9739.5847    2651.5132    13417.536    10.640804 
    7570     1091.308   -9861.4397   -9739.7026    5203.9445    13404.673    10.634713 
    7580    1108.1844   -9863.4259   -9739.8062    8330.9911    13394.011    10.637769 
    7590    1132.9223   -9866.3402   -9739.9611    10572.143     13386.76    10.649627 
    7600    1075.1979   -9860.1105   -9740.1705    12144.957    13383.861    10.673259 
    7610    1057.3255    -9858.325   -9740.3787    11970.344     13385.94    10.711575 
    7620    1105.3925   -9863.8711   -9740.5629    9025.1448    13392.871    10.765216 
    7630     1077.597   -9860.9003   -9740.6928    6017.5442    13403.572    10.831058 
    7640    1086.5298   -9861.9555   -9740.7515    1734.3738    13416.735    10.901746 
    7650    1109.1376   -9864.4802   -9740.7542   -2436.8874    13430.632    10.970356 
    7660    1057.9738   -9858.7678   -9740.7492   -3445.4242    13443.651    11.032342 
    7670    1060.0639   -9858.9761   -9740.7244   -4831.2012    13455.193    11.084674 
    7680    1101.7935   -9863.5767   -9740.6699   -5846.3924    13464.746    11.126795 
    7690    1106.5818   -9864.0773   -9740.6364   -5992.5097    13471.891    11.161309 
    7700    1122.9285   -9865.9437   -9740.6793   -6334.8122    13476.509    11.191061 
    7710    1099.3236   -9863.4214   -9740.7902   -6201.1922      13478.5    11.218613 
    7720    1104.1128   -9864.1322   -9740.9667   -5631.0681     13477.92    11.245907 
    7730     1092.936   -9863.1175   -9741.1988   -3845.5086    13475.025    11.274244 
    7740    1037.4087   -9857.1453   -9741.4208   -676.28647    13470.589    11.302747 
    7750    1070.8443   -9861.0391   -9741.5848    482.53357    13465.793    11.330478 
    7760    1095.6407   -9863.9262   -9741.7058    2458.6648    13461.246    11.359298 
    7770    1047.1937   -9858.5691   -9741.7531    4333.8002    13457.722    11.389989 
    7780    1094.0807   -9863.7884   -9741.7421     2427.511    13455.848    11.418632 
    7790    1109.0751    -9865.446    -9741.727    1119.2605     13455.03    11.440974 
    7800    1093.1715    -9863.718   -9741.7731    764.54537    13454.697    11.454911 
    7810    1083.1491   -9862.6721   -9741.8452    1262.9276    13454.741    11.462185 
    7820    1080.1187   -9862.4252   -9741.9363    898.63406    13455.286    11.465006 
    7830    1070.5735   -9861.4555   -9742.0314    1488.2754    13456.267    11.462184 
    7840    1081.9967   -9862.8083   -9742.1099    1255.7362    13457.865    11.452953 
    7850    1113.5383   -9866.4128   -9742.1959   -1058.7345    13459.912    11.438357 
    7860    1094.2927   -9864.3957   -9742.3257   -1963.5843    13461.579    11.419858 
    7870    1078.4182   -9862.8038   -9742.5046   -1382.9062    13462.488    11.399115 
    7880    1071.8869   -9862.2613   -9742.6907   -766.82811    13462.826     11.37866 
    7890    1082.1452   -9863.6055   -9742.8906   -667.39944    13462.848    11.360078 
    7900    1063.0317   -9861.6954   -9743.1127   -349.80037     13462.61    11.343468 
    7910    1048.1822   -9860.2392   -9743.3129   -79.913748    13462.222     11.32925 
    7920    1088.3062   -9864.8564   -9743.4542   -1486.7635     13461.73    11.321657 
    7930    1108.5121   -9867.2655   -9743.6093    -1823.506    13460.665    11.324873 
    7940    1060.1203   -9862.0642   -9743.8062    30.489855    13458.927    11.339424 
    7950    1050.7947   -9861.1975   -9743.9798    1742.7556    13457.197    11.363765 
    7960    1056.3182   -9861.9113   -9744.0774    2621.8472    13456.169    11.396906 
    7970    1082.9814   -9864.9434   -9744.1351    3194.5395    13456.233    11.437764 
    7980    1097.3704   -9866.6299   -9744.2166     4352.067    13457.666    11.485956 
    7990    1070.9798   -9863.8172   -9744.3478    6145.5206    13460.973    11.543808 
    8000    1101.9258   -9867.4334   -9744.5119    5006.8912    13466.738    11.614416 
    8010    1091.5641   -9866.4354   -9744.6698    3184.7872    13474.598    11.696626 
    8020    1063.9763   -9863.5114   -9744.8232    1427.6547    13483.784    11.784969 
    8030    1057.6895   -9862.9077   -9744.9209    214.37012     13493.59    11.874151 
    8040    1063.8794   -9863.5833   -9744.9059   -1931.3787    13503.443    11.959194 
    8050    1078.5425   -9865.1172   -9744.8042   -4720.7966    13512.449    12.035041 
    8060    1073.7367   -9864.4412   -9744.6643   -6196.6718    13519.513    12.099711 
    8070    1078.0742   -9864.7707   -9744.5099   -6951.3837    13523.969    12.153303 
    8080    1050.1792   -9861.4732   -9744.3242   -5958.3336    13525.567    12.194703 
    8090    1041.1127   -9860.2161   -9744.0784   -4080.8203    13524.685    12.221684 
    8100    1072.4726   -9863.3675   -9743.7315   -2672.5123    13522.081     12.23338 
    8110    1106.5235   -9866.7469   -9743.3126   -1944.4535    13518.343    12.232813 
    8120    1121.1378   -9867.9655   -9742.9009   -1135.0897    13513.807     12.22503 
    8130    1087.0862   -9863.7845   -9742.5184    974.28169    13508.866    12.213248 
    8140    1070.2149   -9861.5114   -9742.1273    3697.6034    13504.383    12.199332 
    8150    1085.5272   -9862.7754   -9741.6832    5720.5167    13501.467    12.185797 
    8160    1097.5262   -9863.6419   -9741.2112    6004.6146    13500.912    12.175823 
    8170    1130.7133   -9866.8994   -9740.7667    4877.5661     13502.84    12.172637 
    8180    1112.6851   -9864.5014   -9740.3797    4986.0012    13506.891    12.180243 
    8190    1078.6275   -9860.3704   -9740.0479    4477.9828     13513.02    12.201387 
    8200    1053.9082   -9857.2516   -9739.6866    2240.3018    13520.966    12.234588 
    8210    1050.2062    -9856.381   -9739.2289   -511.66861    13529.817    12.274411 
    8220    1063.3308   -9857.2576   -9738.6414   -3692.0841    13538.404    12.314563 
    8230     1125.042   -9863.4747   -9737.9745   -7628.0798    13545.373    12.351158 
    8240    1122.0246    -9862.481   -9737.3175   -9179.7634    13549.201    12.382083 
    8250    1075.6235   -9856.7262   -9736.7388   -7709.1166    13549.266    12.404746 
    8260    1108.5524   -9859.8388   -9736.1781   -6462.3207    13546.069    12.417499 
    8270    1155.0908   -9864.4955   -9735.6434   -5745.9179    13540.134    12.420139 
    8280    1132.2816   -9861.5295   -9735.2218   -3266.2031    13531.843    12.415784 
    8290    1078.1157   -9855.1372   -9734.8718    788.32808    13522.271    12.411093 
    8300    1112.0302   -9858.5741   -9734.5254    3214.8126    13512.984    12.410073 
    8310    1145.7536   -9862.0134   -9734.2029    5313.0681    13505.093     12.41427 
    8320    1167.4776   -9864.2731   -9734.0392    5677.9171    13499.404    12.425375 
    8330    1112.8849   -9858.1919    -9734.048    5378.1179    13496.075    12.443246 
    8340    1085.6279   -9855.2326   -9734.1292    5689.1295    13495.034    12.465741 
    8350    1132.0541   -9860.5222   -9734.2398    5520.0756    13496.359    12.492347 
    8360    1110.2236   -9858.2707   -9734.4236    7417.9457    13500.104    12.524138 
    8370    1088.9396   -9856.1512   -9734.6783    8776.2232    13506.938    12.561353 
    8380    1159.3662   -9864.3662   -9735.0372    6497.1351    13517.295    12.604229 
    8390    1159.6291   -9864.9446   -9735.5862    3973.2932    13530.402    12.651642 
    8400    1106.3956    -9859.768   -9736.3479    1184.4759    13545.161    12.700182 
    8410    1094.6675   -9859.3588    -9737.247   -1496.6958    13560.416    12.746336 
    8420    1114.5924   -9862.6308   -9738.2964   -4781.7503     13574.98    12.789547 
    8430    1069.4212   -9858.7434   -9739.4479   -6701.4907    13587.542    12.829703 
    8440    1057.8231   -9858.6002   -9740.5984    -8525.041    13597.234    12.862947 
    8450    1072.2757   -9861.3037   -9741.6897   -10903.043    13603.248    12.884119 
    8460    1089.5857   -9864.2575   -9742.7125   -12098.515    13604.661    12.891378 
    8470     1083.165   -9864.4796    -9743.651   -10907.348    13601.014    12.888335 
[...]
   22890    1051.9565   -9864.2087   -9746.8614    13861.879    15503.398    58.923788 
   22900    1097.5912   -9869.2001   -9746.7621    12486.244    15499.807    59.083351 
   22910    1076.4927   -9866.7323    -9746.648    11417.635    15503.194    59.279509 
   22920    1049.9754   -9863.6584   -9746.5321    9455.8825    15512.924     59.49724 
   22930    1092.2425   -9868.2098   -9746.3685    5983.8988    15527.917    59.725631 
   22940    1097.1088   -9868.5388   -9746.1547    2817.0959    15546.373    59.956217 
   22950    1077.2601   -9866.0714   -9745.9014   -714.67005    15566.516    60.174009 
   22960    1114.2243   -9869.8998   -9745.6064   -4595.0815     15586.36    60.359664 
   22970    1060.5792   -9863.5756   -9745.2664   -5105.3216    15603.919    60.504534 
   22980    1063.3431   -9863.4768   -9744.8592   -5127.5436    15618.728     60.61079 
   22990    1112.9423   -9868.4516   -9744.3012   -7389.9008    15630.587    60.679228 
   23000    1094.3344     -9865.71   -9743.6354   -8600.6433      15638.4    60.703538 
   23010    1110.5796   -9866.7915   -9742.9047   -8717.7071    15641.433    60.678271 
   23020    1077.1874   -9862.2229    -9742.061    -8294.014    15639.582     60.60488 
   23030    1071.5511   -9860.6509   -9741.1177   -7058.4307    15633.073    60.493918 
   23040    1077.1753   -9860.1863   -9740.0258    -4150.399    15622.637    60.364764 
   23050    1120.3511   -9863.8231   -9738.8463   -1778.8219    15609.753    60.240133 
   23060    1136.5252   -9864.4636   -9737.6825    1114.0014    15595.811    60.133442 
   23070    1116.4808   -9861.1927   -9736.6476    5026.9662    15582.502    60.051599 
   23080    1139.5068   -9862.8728   -9735.7591    6542.5216    15571.833    60.002432 
   23090    1139.8491   -9862.1961   -9735.0442     7433.984    15564.761    59.991977 
   23100    1114.9042   -9858.8922   -9734.5229    8405.0833    15561.806    60.029834 
   23110    1132.8841   -9860.5426   -9734.1676    8587.4194    15563.494    60.125836 
   23120    1119.9252   -9858.8755   -9733.9462    8278.8029    15570.005    60.274252 
   23130    1121.8403   -9858.9844   -9733.8414    5984.8884    15581.127    60.449881 
   23140    1144.1402   -9861.4507   -9733.8202    2171.9305    15595.603    60.628831 
   23150    1119.4984   -9858.7537    -9733.872    393.14446    15611.539    60.809658 
   23160    1122.4302   -9859.1911   -9733.9823   -1752.0418    15627.784    61.005184 
   23170    1142.9463   -9861.6503    -9734.153   -4323.0892     15643.16    61.220788 
   23180    1136.1785   -9861.1426   -9734.4002    -7454.021    15656.175    61.439663 
   23190    1152.9508   -9863.3824    -9734.769   -10019.733    15665.087    61.627351 
   23200     1120.284   -9860.2522   -9735.2828   -9796.4491    15668.518    61.761282 
   23210    1110.2977   -9859.7735   -9735.9181    -8555.705    15666.426    61.845441 
   23220    1107.6958   -9860.1985   -9736.6334   -5832.9202    15659.533    61.895816 
   23230    1079.6089   -9857.7829   -9737.3509   -2778.8939    15649.269    61.924856 
   23240    1091.9449    -9859.836   -9738.0279   -415.46472    15637.322    61.938925 
   23250    1109.1533   -9862.3979   -9738.6702    1975.4827    15625.069    61.936172 
   23260    1108.9946   -9862.9813   -9739.2712    3881.0249    15613.835      61.9133 
   23270    1139.6393   -9867.0287   -9739.9002     5330.026    15604.663    61.879644 
   23280    1088.4711   -9861.9663   -9740.5457     8568.693     15598.52    61.858999 
   23290    1077.0435    -9861.281   -9741.1352    9938.9362    15597.069    61.870298 
   23300    1115.6726   -9866.1507   -9741.6957    8531.9603    15601.084    61.917489 
   23310     1086.482    -9863.433   -9742.2343    7088.9881    15609.954    61.998936 
   23320    1099.5717   -9865.3931   -9742.7342    4786.5019    15622.869     62.11686 
   23330    1110.6801   -9867.0965   -9743.1985    1374.9349    15638.534    62.264272 
   23340    1073.1614   -9863.3211   -9743.6083    294.53065    15655.292    62.419729 
   23350    1059.2701    -9862.092   -9743.9288   -2343.2811    15672.284    62.562908 
   23360      1051.98   -9861.4514   -9744.1015   -6355.0497    15688.062    62.674662 
   23370    1105.6629   -9867.5326   -9744.1942     -9832.37    15700.413    62.740628 
   23380    1121.1372   -9869.3874   -9744.3229   -11114.755    15707.371    62.756348 
   23390     1073.478   -9864.2444   -9744.4963    -9558.913    15708.196    62.725941 
   23400    1067.4734   -9863.7181   -9744.6398   -7762.7342    15703.586    62.656717 
   23410    1069.4556   -9864.0259   -9744.7265   -6325.4967    15694.474    62.556635 
   23420    1098.3568   -9867.3029   -9744.7796    -4345.239    15681.687    62.437004 
   23430    1135.6333   -9871.5496    -9744.868   -3144.7549     15666.25    62.317391 
   23440    1103.4751   -9868.1249   -9745.0305   -529.99796    15648.987    62.214858 
   23450    1082.7374    -9866.002    -9745.221    2018.1245    15631.238    62.136066 
   23460       1070.2   -9864.7545   -9745.3721    4209.7132    15614.467    62.076456 
   23470    1079.4133   -9865.8846   -9745.4744    6013.8233     15599.89    62.026247 
   23480      1096.34   -9867.8452   -9745.5468    8742.6622    15588.627    61.984874 
   23490    1114.9927   -9870.0421    -9745.663    11324.341    15582.165    61.967198 
   23500    1083.1036   -9866.6751   -9745.8532    13964.519     15582.03    61.989587 
   23510    1043.0717   -9862.4175   -9746.0613    13905.235    15589.632    62.060879 
   23520    1088.7195   -9867.6978   -9746.2495    9300.4889    15604.946    62.182759 
   23530    1072.0486   -9865.9572   -9746.3685    5470.5097    15625.798    62.353188 
   23540    1079.1406   -9866.8284   -9746.4486    2693.8354    15650.048    62.565319 
   23550    1106.3575   -9869.9041   -9746.4882    548.63077    15676.155    62.803495 
   23560    1086.2765   -9867.7156   -9746.5398   -687.46188    15702.947    63.051316 
   23570    1038.8321    -9862.448   -9746.5647   -2906.0696    15729.609    63.301772 
   23580    1054.6729   -9864.1237   -9746.4734   -7070.1173    15754.793    63.545331 
   23590    1080.5418   -9866.8052   -9746.2692   -10286.858    15776.215    63.765813 
   23600    1067.2507   -9865.0832   -9746.0298   -12082.944    15792.004    63.954055 
   23610     1088.513   -9867.1949   -9745.7697   -15687.814    15800.856    64.105555 
   23620    1089.6304   -9867.0738   -9745.5239   -18028.227    15800.791    64.208264 
   23630    1042.3165   -9861.6035   -9745.3315   -17152.113    15790.469    64.255623 
   23640    1055.9239   -9862.8858   -9745.0959   -14880.115     15770.21    64.253168 
   23650    1107.2458   -9868.1992   -9744.6842   -10722.219     15741.33     64.20576 
   23660    1079.8922   -9864.5029   -9744.0393   -3979.8688     15706.28    64.116068 
   23670    1060.5073    -9861.391   -9743.0898    3607.3424    15668.893     63.99659 
   23680    1081.2198    -9862.413   -9741.8013    9496.2773    15633.392    63.872568 
   23690    1108.9227   -9864.0142   -9740.3122    14375.634    15603.161    63.772719 
   23700     1122.313   -9864.0268   -9738.8311    18745.897    15580.967    63.723405 
   23710    1129.4847   -9863.5392   -9737.5435    22249.778    15569.268    63.740759 
   23720    1148.9004   -9864.7522   -9736.5907    22973.923    15569.892    63.825388 
   23730     1151.439   -9864.4849   -9736.0401    20888.391    15583.253    63.964923 
   23740    1097.6174   -9858.2589   -9735.8181      16475.9    15608.283    64.148834 
   23750    1134.8033   -9862.3297   -9735.7407    9224.7094    15642.521    64.362954 
   23760    1111.8503   -9859.6639   -9735.6354    2915.4994     15682.11    64.584986 
   23770     1097.701   -9857.9284   -9735.4782   -3319.7115    15723.371    64.794372 
   23780    1114.1133    -9859.465   -9735.1839   -9950.2277    15762.667    64.970451 
   23790    1101.8051   -9857.7415   -9734.8335   -14428.684    15796.244     65.08995 
   23800     1101.324   -9857.3904   -9734.5361   -17030.596     15821.42    65.140627 
   23810    1108.4381   -9857.9819   -9734.3339   -18182.314    15836.673    65.123313 
   23820    1124.3833   -9859.7038   -9734.2772   -17869.002    15841.399     65.04175 
   23830    1127.7809   -9860.1949   -9734.3893   -17069.955    15835.777    64.901413 
   23840    1104.1888   -9857.8209    -9734.647   -14168.148     15820.51    64.716423 
   23850    1107.1693    -9858.494   -9734.9876   -9987.0539     15797.36    64.510877 
   23860    1120.5439   -9860.3618   -9735.3634   -4157.5588    15768.896    64.308191 
   23870    1105.2491   -9859.0154   -9735.7232    2151.3137    15738.473    64.129273 
   23880    1092.0976   -9857.8569   -9736.0318    8484.1869    15709.769    63.998341 
   23890    1121.5824   -9861.4555   -9736.3413    12055.674    15686.165    63.939121 
   23900    1139.4541   -9863.8816   -9736.7738    15002.689    15669.735    63.964038 
   23910         1137   -9864.2584   -9737.4244    16183.321    15661.922    64.082835 
   23920    1110.6143   -9862.1756   -9738.2849    15392.609    15663.238     64.29318 
   23930     1096.649   -9861.5814   -9739.2486    13312.704    15673.132    64.574567 
   23940    1124.9321   -9865.7733   -9740.2854    9473.0239    15690.246    64.907625 
   23950    1087.0266   -9862.5775    -9741.318    5838.0064    15712.429    65.281915 
   23960    1054.9766   -9859.8705   -9742.1863    1798.7073    15737.482    65.682979 
   23970    1092.9475   -9864.7717   -9742.8518   -3406.3187    15763.007    66.081314 
   23980     1090.645   -9865.0088   -9743.3457   -7364.2255    15786.156    66.438363 
   23990    1113.0785   -9867.9288   -9743.7632   -9879.7786    15804.685     66.72137 
   24000    1089.2626   -9865.6691   -9744.1602   -11413.946    15817.198     66.91175 
   24010    1038.9678   -9860.3991   -9744.5007   -12800.689    15822.871    67.009254 
   24020    1065.0747   -9863.5857    -9744.775   -14179.856    15821.106    67.017298 
   24030     1083.916   -9865.9569   -9745.0444   -15382.787    15811.302    66.929458 
   24040    1096.8558   -9867.7359     -9745.38   -14420.906    15793.113    66.739357 
   24050    1096.8984   -9868.1245   -9745.7638   -10835.311    15767.354    66.456227 
   24060    1092.0907    -9867.913   -9746.0886   -4473.8554    15736.356    66.107368 
   24070    1098.9334   -9868.8403   -9746.2526    3285.0737    15703.853    65.736848 
   24080    1102.7897   -9869.2714   -9746.2535    10848.663    15674.243    65.392217 
   24090    1109.2214   -9869.9551   -9746.2198    16257.654    15651.587    65.114365 
   24100    1070.6569   -9865.6775   -9746.2441     19791.12    15638.666    64.934369 
   24110    1066.2094   -9865.3052   -9746.3679    20988.541    15637.067    64.876906 
   24120    1086.7744   -9867.8151   -9746.5838    19441.208     15647.07    64.952985 
   24130    1111.8414   -9870.9116   -9746.8841    15423.256    15667.435    65.146546 
   24140    1090.4756   -9868.8618   -9747.2176    10942.721    15695.727    65.430291 
   24150    1080.7602   -9868.0522   -9747.4918    4827.9971     15729.11    65.771272 
   24160    1100.1319   -9870.3432   -9747.6218   -2197.4975    15763.986    66.128131 
   24170    1084.5598   -9868.6321   -9747.6478   -6544.1318     15796.53    66.467147 
   24180    1072.2694   -9867.2358   -9747.6225   -9736.7531    15824.222    66.772802 
   24190    1079.7374   -9868.0127   -9747.5664   -12429.369    15845.367    67.031271 
   24200     1070.449   -9866.9174   -9747.5072   -13985.011    15858.686    67.220044 
   24210    1080.8711   -9868.0734   -9747.5006   -14448.277    15863.588    67.324502 
   24220    1069.7868   -9866.8852   -9747.5488   -13827.342    15860.135     67.34764 
   24230    1059.1345   -9865.7784   -9747.6304   -12414.304    15848.975    67.303548 
   24240    1051.7768   -9864.9936   -9747.6664    -8869.026    15831.321     67.20774 
   24250    1092.1445   -9869.4475   -9747.6171   -4733.7501    15809.349    67.078456 
   24260    1070.2615   -9866.8632   -9747.4739    489.84745    15785.625    66.937297 
   24270    1047.5571   -9864.0594   -9747.2028    5635.2545    15763.129    66.811986 
   24280    1120.5899   -9871.8217   -9746.8182    8858.2812    15744.587    66.730566 
   24290    1092.3983   -9868.2651   -9746.4065    12351.783    15731.757    66.715276 
   24300    1026.9598   -9860.5564   -9745.9975    14190.814    15726.283    66.778748 
   24310    1094.6955   -9867.6287   -9745.5137    10141.437    15728.664    66.909581 
   24320     1110.236   -9868.7542   -9744.9057     6174.921    15736.694    67.071061 
   24330    1088.1635   -9865.6373    -9744.251      4447.75    15748.046    67.229347 
   24340     1133.495   -9869.9813   -9743.5382    2357.9364    15761.479    67.370378 
   24350    1084.2945   -9863.7407   -9742.7861    2494.5922    15775.937    67.498031 
   24360    1059.7551   -9860.2333    -9742.016    2497.1051    15791.349     67.62524 
   24370    1098.4811   -9863.6571   -9741.1199      731.135     15807.63    67.761927 
   24380    1106.5345   -9863.5781   -9740.1425   -738.53603    15823.875    67.906301 
   24390    1096.2411   -9861.4564    -9739.169   -2005.8766     15839.26    68.052797 
   24400    1141.5584   -9865.5584   -9738.2158   -4765.9172    15852.986    68.191041 
   24410    1155.8309   -9866.2968   -9737.3621   -6822.5911    15863.643    68.304082 
   24420    1111.0025   -9860.6439   -9736.7099   -6799.6277    15870.215    68.386617 
   24430    1082.2054   -9856.9144   -9736.1928   -6272.3528    15872.767    68.441353 
   24440    1105.6133   -9859.0568   -9735.7239   -6014.5185    15871.634    68.469028 
   24450    1132.5503   -9861.6576   -9735.3199   -4237.1809     15867.17    68.478234 
   24460    1146.6505   -9862.9429   -9735.0323    -1766.784    15860.412    68.483903 
   24470    1123.8427   -9860.2413    -9734.875    463.68697    15852.763    68.495588 
   24480    1103.3531   -9857.8809   -9734.8002    2422.9909    15845.575    68.523044 
   24490    1129.6307   -9860.8111   -9734.7991    2241.8659    15839.818    68.577099 
   24500    1096.9655   -9857.2283   -9734.8601    2437.3782    15835.519    68.657498 
   24510    1109.7215   -9858.7601    -9734.969    1962.3904    15832.679    68.757711 
   24520    1137.0816    -9861.967   -9735.1238    1691.0676    15831.053     68.86437 
   24530    1120.6855   -9860.3733   -9735.3592    1704.8446    15830.457    68.962849 
   24540    1114.1196   -9859.9477   -9735.6659    622.74537    15830.784     69.04376 
   24550    1115.3373   -9860.4485   -9736.0309   -20.929704    15831.492     69.09593 
   24560    1099.6274    -9859.111   -9736.4459    382.93048    15832.243    69.118314 
   24570     1108.806   -9860.5752   -9736.8863    57.550026     15833.18    69.124329 
   24580    1132.0289   -9863.6426   -9737.3631   -1565.5242    15834.091    69.120201 
   24590    1125.9777   -9863.5065    -9737.902   -2855.8868    15834.097    69.101641 
   24600    1098.5699    -9861.028   -9738.4808   -2193.9111    15832.583     69.06743 
   24610    1094.8392   -9861.1746   -9739.0436   -1884.0011    15829.796    69.021222 
   24620    1113.3913   -9863.8034   -9739.6029   -888.33601    15826.016    68.970078 
   24630    1102.6524   -9863.1511   -9740.1485    1022.3786    15821.836    68.929091 
   24640    1108.0354   -9864.2813   -9740.6782    2462.3096    15818.262    68.915106 
   24650     1103.532   -9864.2703   -9741.1696    3489.8924    15816.123    68.942358 
   24660    1105.1971   -9864.9022   -9741.6158    3760.6986    15815.978    69.013445 
   24670    1125.2482   -9867.5531     -9742.03    3576.7637    15817.983    69.117715 
   24680    1115.3597   -9866.8538   -9742.4338    3425.0925    15822.005    69.242779 
   24690    1090.2621   -9864.4218   -9742.8014     4294.852     15828.02    69.380399 
   24700    1088.4829   -9864.5357   -9743.1138    4259.5851    15836.436     69.52808 
   24710    1081.3287   -9863.9789    -9743.355    2297.9144    15847.165    69.685284 
   24720    1078.9833   -9863.8848   -9743.5226   -636.80132    15859.094    69.846071 
   24730    1094.5176   -9865.7201    -9743.625   -2999.5467     15870.63    69.995648 
   24740    1131.8971   -9870.0126   -9743.7478   -5524.8263    15880.314    70.116352 
   24750    1067.6142   -9863.0019    -9743.908   -6058.5854    15886.844    70.188295 
   24760    1045.4743   -9860.6625   -9744.0383   -6702.4012    15889.791    70.199832 
   24770    1102.3592   -9867.0974   -9744.1276   -6550.3494    15888.851    70.149126 
   24780    1090.1186   -9865.8205   -9744.2161   -4435.2514    15884.237    70.048355 
   24790    1099.9611    -9867.035   -9744.3327   -3319.4746     15877.05    69.917246 
   24800     1090.313   -9866.0895   -9744.4635   -1435.2905    15868.032    69.769884 
   24810    1051.4153   -9861.8464   -9744.5595    1611.7804     15858.27    69.614582 
   24820    1098.5128    -9867.121   -9744.5802    3772.7712    15849.474    69.464479 
   24830    1118.4295   -9869.3623   -9744.5998    5563.6388    15842.911    69.340132 
   24840    1066.4365    -9863.619   -9744.6564    6944.1605    15839.585    69.262462 
   24850    1080.3044   -9865.2441   -9744.7345    6395.5301    15840.198    69.247092 
   24860    1075.5667   -9864.7835   -9744.8024    5435.2268    15844.481    69.293848 
   24870    1084.9148   -9865.8926   -9744.8687    4508.6134    15851.896    69.394197 
   24880    1105.6936   -9868.2868   -9744.9451    3216.6913    15861.886    69.547914 
   24890    1105.3886   -9868.3688   -9745.0611    826.10465    15873.645    69.753875 
   24900    1081.5383   -9865.8469   -9745.1997   -1755.7778    15885.874    70.000506 
   24910    1098.1434   -9867.8461   -9745.3466   -4763.8554    15897.022    70.271607 
   24920    1088.2703   -9866.9116   -9745.5134   -5940.5157    15905.463    70.546156 
   24930    1042.9047   -9861.9895    -9745.652   -5188.2375    15910.515     70.79967 
   24940    1094.9241   -9867.8789   -9745.7384   -5671.0094    15912.423    71.015098 
   24950    1092.0752   -9867.6284   -9745.8058   -5389.9355    15911.044    71.182314 
   24960    1059.4807   -9864.0721   -9745.8855   -4528.5894    15906.553    71.298044 
   24970    1102.4167    -9868.953   -9745.9768   -4160.4919    15899.399    71.360948 
   24980    1081.5766   -9866.7462   -9746.0947   -1052.6816    15890.011    71.374677 
   24990    1053.9756   -9863.7736   -9746.2011    2520.8902    15880.082      71.3568 
   25000    1084.7161   -9867.2752   -9746.2734    4349.9436    15871.541    71.327074 
Loop time of 18106.1 on 16 procs for 20000 steps with 864 atoms

Performance: 0.095 ns/day, 251.473 hours/ns, 1.105 timesteps/s
96.4% CPU use with 16 MPI tasks x 1 OpenMP threads

MPI task timing breakdown:
Section |  min time  |  avg time  |  max time  |%varavg| %total
---------------------------------------------------------------
Pair    | 5522.1     | 13163      | 17662      |3639.9 | 72.70
Bond    | 0.0019701  | 0.0056526  | 0.015076   |   5.0 |  0.00
Neigh   | 0.18357    | 0.3746     | 0.52773    |  21.6 |  0.00
Comm    | 440.61     | 4866.8     | 12306      |5846.6 | 26.88
Output  | 1.1309     | 1.1581     | 1.557      |   9.6 |  0.01
Modify  | 1.1961     | 75.083     | 276.14     |1342.6 |  0.41
Other   |            | 0.08722    |            |       |  0.00

Nlocal:        54.0000 ave          83 max          17 min
Histogram: 3 1 0 4 0 0 0 0 4 4
Nghost:        593.875 ave         818 max         315 min
Histogram: 4 0 4 0 0 0 0 0 0 8
Neighs:         0.00000 ave           0 max           0 min
Histogram: 16 0 0 0 0 0 0 0 0 0
FullNghs:      3459.50 ave        5724 max         880 min
Histogram: 3 1 0 4 0 0 0 1 3 4

Total # of neighbors = 55352
Ave neighs/atom = 64.064815
Ave special neighs/atom = 0.0000000
Neighbor list builds = 2000
Dangerous builds = 2000
unfix   3
                
Total wall time: 6:12:30
