LAMMPS (2 Aug 2023)
OMP_NUM_THREADS environment is not set. Defaulting to 1 thread. (src/comm.cpp:98)
  using 1 OpenMP thread(s) per MPI task
Reading data file ...
  orthogonal box = (0 0 0) to (20.936728 20.936728 62.810183)
  1 by 1 by 1 MPI processor grid
  reading atoms ...
  1536 atoms
Finding 1-2 1-3 1-4 neighbors ...
  special bond factors lj:    0        0        0       
  special bond factors coul:  0        0        0       
     0 = max # of 1-2 neighbors
     0 = max # of 1-3 neighbors
     0 = max # of 1-4 neighbors
     1 = max # of special neighbors
  special bonds CPU = 0.000 seconds
  read_data CPU = 0.048 seconds
768 atoms in group gSolid
768 atoms in group gLiquid
Neighbor list info ...
  update: every = 1 steps, delay = 10 steps, check = yes
  max neighbors/atom: 2000, page size: 100000
  master list distance cutoff = 6.3
  ghost atom cutoff = 6.3
  binsize = 3.15, bins = 7 7 20
  1 neighbor lists, perpetual/occasional/extra = 1 0 0
  (1) pair chgnet/gpu, perpetual
      attributes: full, newton on
      pair build: full/bin
      stencil: full/bin/3d
      bin: standard
Setting up Verlet run ...
  Unit style    : metal
  Current step  : 0
  Time step     : 0.0005
Per MPI rank memory allocation (min/avg/max) = 6.511 | 6.511 | 6.511 Mbytes
   Step          Temp          PotEng         TotEng         Press          Volume        c_msd[4]   
         0   300           -5872.7754     -5813.2511      39628.941      27532.628      0            
        10   303.68152     -5875.2349     -5814.9801      38627.155      27603.289      0.0017325391 
        20   314.82835     -5882.3075     -5819.841       35772.739      27811.843      0.010286637  
        30   331.33984     -5892.6028     -5826.8602      31492.705      28141.958      0.034342477  
        40   350.54454     -5904.085      -5834.5319      26367.017      28552.58       0.082500228  
        50   369.84957     -5914.8029     -5841.4194      21134.782      28981.278      0.15493346   
        60   387.37319     -5923.8109     -5846.9505      16597.863      29374.709      0.24222843   
        70   402.82542     -5931.2194     -5851.293       12863.423      29714.34       0.33469417   
        80   416.67925     -5937.3713     -5854.6962      9808.6969      30008.105      0.42857515   
        90   428.33505     -5942.3917     -5857.4039      7300.3094      30269.414      0.52414498   
       100   435.5051      -5946.1381     -5859.7276      5298.7277      30506.818      0.62222357   
       110   435.53358     -5948.3302     -5861.9141      3721.8718      30723.677      0.72273067   
       120   427.01319     -5948.7469     -5864.0214      2423.702       30920.498      0.82463001   
       130   410.39743     -5947.4136     -5865.9848      1407.3234      31096.719      0.92611205   
       140   388.65947     -5944.8464     -5867.7308      623.90129      31251.939      1.0249476    
       150   366.85545     -5942.0325     -5869.2431      60.955402      31386.387      1.118872     
       160   349.91538     -5939.9777     -5870.5494     -365.5422       31501.052      1.2060061    
       170   340.67739     -5939.2943     -5871.699      -742.73188      31597.29       1.2850464    
       180   339.00998     -5940.0231     -5872.7586     -1049.7478      31676.461      1.3553062    
       190   342.43582     -5941.7358     -5873.7917     -1234.8994      31739.961      1.4167478    
       200   347.64395     -5943.8254     -5874.8479     -1307.2784      31789.368      1.4699099    
       210   351.82629     -5945.7653     -5875.9579     -1203.9951      31826.498      1.5157427    
       220   353.77996     -5947.3191     -5877.1241     -920.52147      31853.57       1.5554937    
       230   353.78951     -5948.5276     -5878.3307     -525.38769      31873.222      1.5906247    
       240   352.50964     -5949.4999     -5879.5569     -38.591911      31888.224      1.6227233    
       250   350.09335     -5950.2517     -5880.7882      511.39706      31901.35       1.6534611    
       260   346.37912     -5950.7344     -5882.0078      1103.0818      31915.339      1.6845134    
       270   340.77719     -5950.8215     -5883.2065      1740.3676      31932.838      1.7174545    
       280   332.6225      -5950.3656     -5884.3685      2414.9689      31956.414      1.7537088    
       290   321.9857      -5949.3666     -5885.48        3090.3757      31988.574      1.7945281    
       300   310.16854     -5948.0698     -5886.5279      3675.0184      32031.575      1.8409203    
       310   298.87271     -5946.8064     -5887.5058      4145.3261      32087.122      1.8935195    
       320   289.19782     -5945.7946     -5888.4136      4460.6569      32156.235      1.952676     
       330   282.01123     -5945.2039     -5889.2488      4586.2181      32239.124      2.018528     
       340   277.65813     -5945.1053     -5890.014       4585.5968      32335.105      2.0908948    
       350   275.86513     -5945.4371     -5890.7015      4401.4131      32442.789      2.1693385    
       360   276.43749     -5946.1483     -5891.2992      4074.3227      32559.978      2.2530583    
       370   279.54996     -5947.2704     -5891.8037      3667.0246      32683.885      2.3409358    
       380   284.92579     -5948.748      -5892.2147      3224.3842      32811.535      2.4316963    
       390   291.87238     -5950.4524     -5892.5407      2723.9291      32939.956      2.5239912    
       400   299.45458     -5952.2216     -5892.8055      2263.2669      33066.298      2.6164796    
       410   306.70226     -5953.8926     -5893.0385      1855.6413      33188.222      2.7081025    
       420   312.48414     -5955.2791     -5893.2777      1529.5322      33304.027      2.7981632    
       430   315.79184     -5956.2114     -5893.5538      1296.1389      33412.688      2.8862721    
       440   315.99553     -5956.5857     -5893.8877      1167.8437      33513.849      2.9723331    
       450   313.15124     -5956.4205     -5894.2868      1139.0954      33607.79       3.0565999    
       460   308.25311     -5955.899      -5894.7372      1195.6207      33695.312      3.1395679    
       470   302.53695     -5955.2443     -5895.2166      1290.9892      33777.536      3.2218949    
       480   296.9332      -5954.618      -5895.7022      1418.2091      33855.666      3.3043056    
       490   291.72949     -5954.0526     -5896.1693      1571.5975      33930.939      3.3875552    
       500   286.96984     -5953.5399     -5896.601       1705.4595      34004.535      3.4723275    
       510   282.50395     -5953.0367     -5896.9839      1847.763       34077.434      3.5590777    
       520   277.77339     -5952.4175     -5897.3033      1982.9461      34150.51       3.6481472    
       530   272.41551     -5951.5972     -5897.546       2107.5583      34224.474      3.7396548    
       540   266.59296     -5950.5956     -5897.6997      2212.4383      34299.937      3.8334593    
       550   261.74656     -5949.6771     -5897.7429      2278.8938      34377.311      3.9290758    
       560   259.48221     -5949.1479     -5897.663       2251.1219      34456.681      4.0258055    
       570   260.22922     -5949.0835     -5897.4503      2123.4315      34537.67       4.1227906    
       580   263.08213     -5949.3069     -5897.1076      1953.6476      34619.448      4.219019     
       590   267.05361     -5949.6379     -5896.6507      1749.3082      34701.041      4.3134722    
       600   271.38493     -5949.9529     -5896.1062      1501.6758      34781.416      4.4051472    
       610   275.56143     -5950.1763     -5895.5009      1243.2553      34859.437      4.4930951    
       620   278.87717     -5950.1931     -5894.8599      1014.9296      34934.074      4.5765784    
       630   281.11628     -5949.9771     -5894.1996      778.59147      35004.58       4.6552077    
       640   282.53929     -5949.5896     -5893.5298      573.96143      35070.285      4.7286476    
       650   283.7081      -5949.1512     -5892.8595      447.75099      35130.815      4.7968167    
       660   284.97079     -5948.7341     -5892.1918      378.78802      35186.232      4.8599276    
       670   286.4823      -5948.3712     -5891.529       357.05903      35236.89       4.9183165    
       680   288.46903     -5948.1083     -5890.8719      371.9239       35283.358      4.9724393    
       690   291.07982     -5947.9812     -5890.2268      406.71122      35326.327      5.0227212    
       700   294.2692      -5947.9805     -5889.5932      425.06131      35366.494      5.06949      
       710   297.47609     -5948.0054     -5888.9819      456.55538      35404.407      5.1130039    
       720   300.37145     -5947.9937     -5888.3957      469.65396      35440.57       5.1536285    
       730   302.97531     -5947.9585     -5887.8439      473.92134      35475.338      5.1917413    
       740   305.43985     -5947.9332     -5887.3296      474.04169      35508.969      5.227642     
       750   307.46868     -5947.8651     -5886.8589      460.01455      35541.662      5.261535     
       760   308.9754      -5947.7358     -5886.4307      452.54673      35573.494      5.2934765    
       770   309.92515     -5947.5447     -5886.0511      450.24672      35604.57       5.3235546    
       780   310.5932      -5947.3462     -5885.7201      487.70098      35635.069      5.3519701    
       790   311.45074     -5947.2356     -5885.4393      484.42692      35665.271      5.3790913    
       800   311.99162     -5947.1118     -5885.2082      447.65728      35695.251      5.4052414    
       810   311.85849     -5946.9034     -5885.0263      395.42854      35724.892      5.4305973    
       820   311.41965     -5946.6844     -5884.8943      310.75153      35753.953      5.4551364    
       830   310.90835     -5946.4962     -5884.8075      226.41947      35782.078      5.4787012    
       840   310.28952     -5946.3296     -5884.7637      119.24159      35808.899      5.5012822    
       850   309.60969     -5946.1912     -5884.7602     -12.498813      35833.922      5.5229341    
       860   309.30511     -5946.1641     -5884.7935     -135.77197      35856.615      5.5437107    
       870   309.06442     -5946.1868     -5884.864      -299.78671      35876.465      5.5635933    
       880   308.24229     -5946.1271     -5884.9674     -420.61683      35892.862      5.5823223    
       890   306.47116     -5945.9158     -5885.1075     -493.22533      35905.431      5.5996988    
       900   304.03998     -5945.599      -5885.2731     -534.26531      35914.092      5.6155454    
       910   301.65877     -5945.3108     -5885.4574     -567.6333       35918.93       5.6297143    
       920   298.94895     -5944.9629     -5885.6471     -583.46891      35920.076      5.6419082    
       930   295.70591     -5944.504      -5885.8317     -560.72509      35917.755      5.6518789    
       940   292.69452     -5944.0763     -5886.0015     -509.30529      35912.373      5.6596971    
       950   290.49123     -5943.78       -5886.1424     -460.09551      35904.453      5.6658445    
       960   289.5765      -5943.7039     -5886.2477     -404.21147      35894.5        5.6709963    
       970   290.76108     -5944.0067     -5886.3156     -365.6763       35882.967      5.6758024    
       980   294.21222     -5944.726      -5886.35       -390.16558      35870.17       5.680737     
       990   299.13878     -5945.7151     -5886.3617     -419.85293      35856.111      5.6859171    
      1000   303.65465     -5946.6178     -5886.3684     -462.55071      35840.674      5.6912004    
      1010   306.22628     -5947.1477     -5886.388      -483.89163      35823.726      5.6961264    
      1020   306.4417      -5947.2316     -5886.4291     -430.00044      35805.299      5.7000143    
      1030   304.99082     -5947.0078     -5886.4933     -305.32811      35785.806      5.7024468    
      1040   303.32512     -5946.7573     -5886.5733     -170.76101      35766.017      5.7033812    
      1050   302.0437      -5946.5929     -5886.6631     -44.994698      35746.717      5.702862     
      1060   301.28885     -5946.5413     -5886.7612      71.455557      35728.571      5.7010779    
      1070   301.17952     -5946.6204     -5886.862       156.81643      35712.144      5.6983148    
      1080   301.76156     -5946.8438     -5886.9699      163.76656      35697.763      5.6948885    
      1090   302.40372     -5947.0862     -5887.085       193.84745      35685.38       5.6909684    
      1100   302.538       -5947.2393     -5887.2114      211.17077      35674.995      5.6867038    
      1110   302.00775     -5947.2715     -5887.3488      200.91471      35666.537      5.6821377    
      1120   300.44836     -5947.1074     -5887.4942      230.34225      35659.856      5.6772236    
      1130   298.05077     -5946.7797     -5887.6421      276.12996      35654.984      5.6719231    
      1140   295.40743     -5946.3948     -5887.7817      318.55281      35652.04       5.6661313    
      1150   293.33412     -5946.1062     -5887.9045      303.73063      35651.072      5.6595065    
      1160   292.3744      -5946.0135     -5888.0023      277.78126      35651.908      5.6517512    
      1170   292.36937     -5946.0824     -5888.0721      218.2593       35654.274      5.6426681    
      1180   292.8538      -5946.2205     -5888.1141      143.82088      35657.735      5.6320325    
      1190   293.86304     -5946.4354     -5888.1288      39.423937      35661.795      5.6196916    
      1200   295.84507     -5946.8199     -5888.12       -99.138796      35665.81       5.6054967    
      1210   298.76563     -5947.3744     -5888.095      -231.80287      35669.005      5.5893953    
      1220   301.70096     -5947.9226     -5888.0608     -327.02145      35670.683      5.5715655    
      1230   303.79439     -5948.3112     -5888.034      -387.10054      35670.361      5.5522427    
      1240   304.37356     -5948.413      -5888.0209     -379.21499      35667.84       5.5316689    
      1250   303.33975     -5948.2115     -5888.0246     -360.44613      35663.271      5.5101097    
      1260   301.30607     -5947.8237     -5888.0403     -319.00549      35656.886      5.487887     
      1270   299.09031     -5947.4052     -5888.0614     -276.16486      35649.013      5.4654493    
      1280   297.4987      -5947.1063     -5888.0783     -239.69687      35639.985      5.4432966    
      1290   296.80378     -5946.9767     -5888.0866     -203.67438      35630.093      5.4219288    
      1300   296.44164     -5946.8994     -5888.0811     -167.50802      35619.586      5.4018005    
      1310   295.97784     -5946.7903     -5888.064      -113.07618      35608.716      5.3833916    
      1320   295.54235     -5946.6702     -5888.0303     -93.638595      35597.768      5.3671901    
      1330   295.63154     -5946.6383     -5887.9808     -70.39819       35586.895      5.35351      
      1340   296.68701     -5946.783      -5887.916      -114.10836      35576.171      5.3426114    
      1350   298.55952     -5947.0763     -5887.8378     -174.73027      35565.363      5.3344901    
      1360   300.6005      -5947.4019     -5887.7584     -270.30721      35554.094      5.32921      
      1370   302.27935     -5947.6567     -5887.6802     -338.60186      35541.875      5.3267903    
      1380   303.49007     -5947.8303     -5887.6135     -357.99164      35528.393      5.327234     
      1390   304.41509     -5947.9629     -5887.5626     -374.90308      35513.546      5.3304879    
      1400   305.22194     -5948.0874     -5887.527      -327.29791      35497.344      5.3363057    
      1410   306.10295     -5948.2529     -5887.5177     -266.60825      35480.127      5.3446635    
      1420   307.30414     -5948.506      -5887.5324     -190.7374       35462.305      5.3557884    
      1430   308.8215      -5948.8535     -5887.5789     -125.87767      35444.322      5.3700229    
      1440   310.27501     -5949.2256     -5887.6626     -84.98672       35426.555      5.3876959    
      1450   310.96042     -5949.4878     -5887.7888     -82.580806      35409.23       5.4089963    
      1460   310.57135     -5949.5815     -5887.9597     -103.56679      35392.354      5.4338638    
      1470   309.30583     -5949.5416     -5888.1709     -142.03196      35375.783      5.4618015    
      1480   307.04781     -5949.3409     -5888.4183     -165.64054      35359.3        5.4919718    
      1490   303.97041     -5948.9978     -5888.6857     -173.9267       35342.79       5.5233284    
      1500   300.95385     -5948.6741     -5888.9605     -201.67746      35326.194      5.5546281    
      1510   299.08492     -5948.5752     -5889.2325     -248.19347      35309.367      5.5848067    
      1520   298.92342     -5948.8099     -5889.4992     -338.62503      35292.038      5.6130562    
      1530   299.96061     -5949.275      -5889.7585     -441.81671      35273.745      5.6387072    
      1540   300.80356     -5949.6995     -5890.0157     -555.44635      35253.959      5.6611308    
      1550   300.75642     -5949.9489     -5890.2745     -642.47147      35232.16       5.6799622    
      1560   300.14269     -5950.0884     -5890.5358     -703.20867      35207.985      5.6952297    
      1570   299.76123     -5950.2733     -5890.7964     -767.62056      35181.223      5.7072156    
      1580   299.7609      -5950.5333     -5891.0565     -786.4718       35151.715      5.7162448    
      1590   300.14026     -5950.8673     -5891.3152     -772.9803       35119.509      5.7224865    
      1600   300.47003     -5951.1866     -5891.5691     -664.88328      35084.899      5.7259742    
      1610   300.09095     -5951.3613     -5891.819      -507.13995      35048.611      5.7268784    
      1620   298.8577      -5951.3584     -5892.0607     -338.05262      35011.612      5.7254872    
      1630   296.89149     -5951.1954     -5892.2879     -96.327499      34974.972      5.7221883    
      1640   294.37581     -5950.9006     -5892.4923      138.62405      34939.983      5.7177162    
      1650   291.86557     -5950.578      -5892.6677      366.66961      34907.887      5.7127618    
      1660   290.06921     -5950.3601     -5892.8062      527.85127      34879.725      5.7078972    
      1670   289.8651      -5950.4191     -5892.9057      633.79662      34856.158      5.7034912    
      1680   291.88583     -5950.8853     -5892.9709      636.11529      34837.453      5.6998373    
      1690   295.69557     -5951.6799     -5893.0097      559.40705      34823.335      5.6969891    
      1700   300.06699     -5952.5717     -5893.0341      443.8764       34813.114      5.6948068    
      1710   303.38715     -5953.2579     -5893.0616      325.84057      34805.93       5.6930679    
      1720   304.9058      -5953.6018     -5893.1041      208.26707      34800.955      5.6914856    
      1730   304.42631     -5953.5707     -5893.1681      127.02975      34797.438      5.6898105    
      1740   302.04146     -5953.1777     -5893.2484      57.855648      34794.814      5.6877714    
      1750   298.47015     -5952.5563     -5893.3355      7.9529884      34792.651      5.6849092    
      1760   295.02771     -5951.9553     -5893.4176     -45.502271      34790.638      5.6805805    
      1770   292.86454     -5951.5887     -5893.4802     -112.49258      34788.463      5.6742035    
      1780   292.50627     -5951.5547     -5893.5173     -182.99743      34785.782      5.6653828    
      1790   293.51061     -5951.7642     -5893.5275     -273.48825      34782.222      5.6539032    
      1800   295.11218     -5952.0674     -5893.5129     -343.25668      34777.348      5.6398078    
      1810   296.73637     -5952.356      -5893.4792     -380.27071      34770.837      5.6234304    
      1820   297.96924     -5952.5537     -5893.4323     -399.61779      34762.554      5.6054586    
      1830   298.33877     -5952.5684     -5893.3737     -372.57636      34752.503      5.5868069    
      1840   297.64429     -5952.3677     -5893.3108     -335.05887      34740.901      5.5685922    
      1850   296.42729     -5952.0509     -5893.2355     -267.28821      34728.041      5.5520218    
      1860   295.54429     -5951.785      -5893.1448     -174.55056      34714.352      5.5382343    
      1870   295.6209      -5951.6917     -5893.0362     -118.64224      34700.349      5.5281198    
      1880   296.61789     -5951.7645     -5892.9113     -86.178691      34686.368      5.521989     
      1890   298.56328     -5952.0099     -5892.7707     -32.610434      34672.606      5.5198929    
      1900   301.294       -5952.4058     -5892.6247      7.9163999      34659.301      5.5218224    
      1910   303.88156     -5952.7764     -5892.4819      28.480828      34646.658      5.5277744    
      1920   305.21716     -5952.9108     -5892.3513      65.573814      34634.796      5.5375773    
      1930   304.6456      -5952.6881     -5892.2421      142.1906       34623.896      5.5509189    
      1940   302.33308     -5952.1362     -5892.149       204.49021      34614.293      5.5674927    
      1950   299.51454     -5951.4928     -5892.0648      290.41201      34606.286      5.5870071    
      1960   297.75914     -5951.0585     -5891.9788      321.32211      34600.219      5.6091729    
      1970   297.7019      -5950.9526     -5891.8843      294.84506      34596.186      5.6335707    
      1980   298.70255     -5951.0446     -5891.7777      223.35946      34593.931      5.6594851    
      1990   300.01356     -5951.1899     -5891.663       158.56891      34593.006      5.6860625    
      2000   301.46029     -5951.3569     -5891.5429      109.39433      34592.999      5.7125433    
      2010   303.00983     -5951.5477     -5891.4262      46.612925      34593.572      5.7383214    
      2020   304.11914     -5951.6587     -5891.3171     -22.939997      34594.356      5.7629002    
      2030   304.36054     -5951.6133     -5891.2238     -58.294515      34595.004      5.7860531    
      2040   303.88011     -5951.4382     -5891.1441     -66.039652      34595.322      5.8078348    
      2050   303.27478     -5951.2559     -5891.0818     -52.934775      34595.279      5.8285273    
      2060   303.3246      -5951.217      -5891.0331     -59.655076      34594.93       5.8484922    
      2070   304.44376     -5951.4042     -5890.9982     -62.128422      34594.268      5.8680662    
      2080   306.52549     -5951.8004     -5890.9814     -77.667398      34593.285      5.8875915    
      2090   309.06287     -5952.3135     -5890.991      -112.26         34591.904      5.9072838    
      2100   311.02282     -5952.7507     -5891.0394     -145.29204      34589.987      5.9273644    
      2110   311.60888     -5952.9631     -5891.1355     -210.16406      34587.334      5.9479172    
      2120   310.7898      -5952.9463     -5891.2811     -243.15906      34583.658      5.9687549    
      2130   309.07831     -5952.8013     -5891.4757     -264.70254      34578.801      5.9895432    
      2140   307.41943     -5952.7031     -5891.7067     -315.79632      34572.672      6.0099354    
      2150   306.17596     -5952.72       -5891.9703     -372.05809      34565.07       6.0295917    
      2160   305.12378     -5952.798      -5892.257      -433.85929      34555.752      6.0480487    
      2170   304.10513     -5952.8965     -5892.5577     -467.06712      34544.485      6.0649459    
      2180   303.2131      -5953.0272     -5892.8654     -455.96894      34531.173      6.0801165    
      2190   302.20391     -5953.136      -5893.1744     -420.39721      34515.937      6.0934852    
      2200   300.56943     -5953.1111     -5893.4738     -287.80262      34499.123      6.1051515    
      2210   298.37239     -5952.9576     -5893.7563     -110.39975      34481.484      6.1156021    
      2220   296.40091     -5952.8221     -5894.012       113.45185      34464.04       6.1254657    
      2230   295.43501     -5952.8551     -5894.2366      336.40541      34447.974      6.1352722    
      2240   295.79819     -5953.125      -5894.4344      500.19427      34434.401      6.1454365    
      2250   296.81379     -5953.4985     -5894.6064      650.93897      34424.158      6.1561264    
      2260   298.01346     -5953.8977     -5894.7676      747.44845      34417.866      6.1673401    
      2270   299.2333      -5954.2921     -5894.9199      796.29678      34415.897      6.1790978    
      2280   300.03361     -5954.6045     -5895.0735      812.78276      34418.357      6.1914311    
      2290   300.05674     -5954.7667     -5895.2312      751.30923      34425.114      6.204481     
      2300   299.45966     -5954.8074     -5895.3903      645.22987      34435.674      6.2184117    
      2310   298.70017     -5954.814      -5895.5476      493.48745      34449.295      6.2333268    
      2320   298.2686      -5954.8762     -5895.6955      302.81787      34465.03       6.2491681    
      2330   298.41377     -5955.0403     -5895.8307      83.33          34481.745      6.2657073    
      2340   298.98482     -5955.2772     -5895.9544     -122.9314       34498.207      6.2824753    
      2350   299.56398     -5955.5072     -5896.0694     -283.13607      34513.301      6.2991372    
      2360   299.84398     -5955.6731     -5896.1798     -409.50287      34526.205      6.315664     
      2370   299.84695     -5955.783      -5896.289      -457.79176      34536.345      6.3321097    
      2380   299.8562      -5955.8947     -5896.3989     -490.85323      34543.522      6.3488391    
      2390   299.67963     -5955.9716     -5896.5108     -488.98713      34547.703      6.3662646    
      2400   298.74723     -5955.9023     -5896.6266     -451.13085      34549.021      6.3848319    
      2410   296.7941      -5955.6321     -5896.7439     -394.65644      34547.801      6.404979     
      2420   294.23107     -5955.2336     -5896.854      -292.20931      34544.491      6.4271033    
      2430   291.78264     -5954.8425     -5896.9487     -180.34753      34539.718      6.4516305    
      2440   290.0211      -5954.5609     -5897.0166     -50.394178      34534.174      6.478802     
      2450   289.40355     -5954.4727     -5897.0508      72.853626      34528.611      6.50887      
      2460   290.04418     -5954.5942     -5897.0453      180.42589      34523.695      6.5419007    
      2470   291.72506     -5954.8824     -5897           242.74776      34519.982      6.5777026    
      2480   294.32994     -5955.3131     -5896.9138      252.00796      34517.757      6.6157213    
      2490   297.28034     -5955.7786     -5896.7939      253.15592      34517.003      6.655081     
      2500   299.34453     -5956.0393     -5896.6451      279.56166      34517.705      6.6949262    
      2510   300.27158     -5956.0518     -5896.4736      317.53384      34519.921      6.7346983    
      2520   300.56556     -5955.9192     -5896.2827      365.02703      34523.769      6.7741831    
      2530   300.60495     -5955.7167     -5896.0723      413.51429      34529.446      6.8134695    
      2540   300.95487     -5955.5574     -5895.8436      448.97998      34537.136      6.852918     
      2550   302.10588     -5955.5361     -5895.594       453.02791      34546.942      6.8930425    
      2560   303.57488     -5955.5662     -5895.3326      394.89804      34558.762      6.9344499    
      2570   304.31185     -5955.4453     -5895.0655      379.34174      34572.267      6.9776783    
      2580   304.26878     -5955.1714     -5894.8001      352.46777      34587.259      7.0232554    
      2590   303.69165     -5954.7986     -5894.5418      341.61322      34603.557      7.0715408    
      2600   302.96898     -5954.4053     -5894.2919      293.02865      34621.01       7.1228896    
      2610   302.55297     -5954.0808     -5894.05        230.69099      34639.324      7.1773993    
      2620   302.35107     -5953.808      -5893.8172      169.34688      34658.136      7.2347835    
      2630   302.27656     -5953.5688     -5893.5928      83.342867      34677.071      7.2946442    
      2640   302.49941     -5953.4        -5893.3798      28.478926      34695.687      7.3562334    
      2650   303.21437     -5953.3411     -5893.179      -50.832488      34713.638      7.4185749    
      2660   304.32349     -5953.374      -5892.9919     -160.40252      34730.51       7.4803089    
      2670   305.30859     -5953.4004     -5892.8228     -272.91486      34745.732      7.5398548    
      2680   305.56756     -5953.3066     -5892.6777     -371.47332      34758.74       7.5957728    
      2690   304.78451     -5953.028      -5892.5543     -421.22537      34769.119      7.6469159    
      2700   303.29478     -5952.6299     -5892.4519     -462.16197      34776.679      7.6926202    
      2710   301.93981     -5952.2776     -5892.3684     -501.69724      34781.32       7.7327267    
      2720   301.55493     -5952.1278     -5892.295      -547.91112      34782.96       7.7675122    
      2730   302.03115     -5952.1578     -5892.2305     -559.09992      34781.492      7.7973197    
      2740   302.89467     -5952.2725     -5892.1738     -543.32403      34777.011      7.8225292    
      2750   304.03418     -5952.4534     -5892.1286     -532.41551      34769.733      7.8434525    
      2760   305.36814     -5952.6874     -5892.098      -490.96126      34759.869      7.8602834    
      2770   306.65571     -5952.9316     -5892.0868     -454.81426      34747.747      7.8733126    
      2780   307.29316     -5953.0726     -5892.1013     -379.68395      34733.726      7.8828489    
      2790   306.73795     -5953.0056     -5892.1444     -244.41764      34718.344      7.8894565    
      2800   305.44076     -5952.8225     -5892.2187     -117.64367      34702.379      7.8939885    
      2810   304.0221      -5952.6442     -5892.3218      16.792807      34686.593      7.8971824    
      2820   302.97066     -5952.5709     -5892.4572      122.23629      34671.694      7.8996652    
      2830   302.25826     -5952.6042     -5892.6319      204.31881      34658.22       7.9020412    
      2840   302.04348     -5952.7885     -5892.8587      207.9776       34646.519      7.9050419    
      2850   302.19852     -5953.1162     -5893.1557      232.65982      34636.584      7.9092609    
      2860   302.12583     -5953.4883     -5893.5422      234.77781      34628.41       7.9152794    
      2870   301.13204     -5953.778      -5894.029       238.45552      34621.939      7.923554     
      2880   299.19084     -5953.9611     -5894.5973      260.85001      34617.132      7.9345578    
      2890   296.95232     -5954.1105     -5895.1909      215.20625      34613.971      7.9485082    
      2900   295.2229      -5954.3207     -5895.7442      130.46988      34612.134      7.9648376    
      2910   294.61675     -5954.6638     -5896.2076      41.491108      34611.105      7.9823714    
      2920   294.70921     -5955.0425     -5896.568      -61.707476      34610.346      7.9995979    
      2930   294.96769     -5955.3615     -5896.8356     -134.86921      34609.295      8.0150309    
      2940   295.57801     -5955.6775     -5897.0306     -154.5318       34607.581      8.0274705    
      2950   296.97933     -5956.1008     -5897.1759     -170.65314      34605.102      8.0361169    
      2960   298.74896     -5956.5637     -5897.2876     -190.17988      34601.799      8.040393     
      2970   299.7644      -5956.8578     -5897.3802     -141.81337      34597.661      8.0401814    
      2980   299.54341     -5956.8977     -5897.464      -62.379442      34592.963      8.0359181    
      2990   298.28491     -5956.7212     -5897.5372      44.545375      34588.166      8.0284182    
      3000   296.41416     -5956.4143     -5897.6015      110.92186      34583.808      8.0185587    
      3010   294.58696     -5956.1001     -5897.6498      168.04797      34580.265      8.0071879    
      3020   293.42539     -5955.8954     -5897.6756      213.42322      34577.814      7.995195     
      3030   293.36895     -5955.8826     -5897.674       269.56797      34576.677      7.983442     
      3040   294.70458     -5956.1221     -5897.6485      316.37858      34577.104      7.9729524    
      3050   297.21088     -5956.5718     -5897.6009      327.08604      34579.251      7.9646435    
      3060   300.11508     -5957.0892     -5897.5421      307.03574      34583.091      7.9591561    
      3070   302.61566     -5957.5247     -5897.4814      278.24124      34588.459      7.9569589    
      3080   304.26839     -5957.8004     -5897.4292      266.37291      34595.149      7.9580754    
      3090   304.8814      -5957.885      -5897.3922      253.31943      34603.011      7.9623924    
      3100   304.31053     -5957.7543     -5897.3747      237.51064      34611.927      7.9694797    
      3110   302.92716     -5957.4778     -5897.3727      217.54939      34621.787      7.9785966    
      3120   301.72818     -5957.2507     -5897.3835      200.97937      34632.44       7.9887879    
      3130   301.45949     -5957.2167     -5897.4028      134.78856      34643.716      7.9992353    
      3140   301.94899     -5957.3427     -5897.4316     -4.9346197      34655.233      8.0092013    
      3150   302.40779     -5957.4712     -5897.4692     -153.37123      34666.25       8.0177093    
      3160   302.44375     -5957.5294     -5897.5202     -296.28536      34675.956      8.0239147    
      3170   302.26322     -5957.5569     -5897.5835     -421.56901      34683.622      8.0274009    
      3180   302.06218     -5957.5917     -5897.6582     -514.43478      34688.659      8.0280157    
      3190   301.99567     -5957.6711     -5897.7509     -576.22564      34690.639      8.0259393    
      3200   302.17468     -5957.814      -5897.8582     -604.95234      34689.338      8.021675     
      3210   302.45182     -5957.9945     -5897.9837     -616.56536      34684.724      8.0158357    
      3220   302.08739     -5958.0736     -5898.1351     -572.50162      34676.903      8.0089509    
      3230   300.90521     -5958.0117     -5898.3078     -478.33569      34666.259      8.0016898    
      3240   299.12638     -5957.8542     -5898.5033     -350.0615       34653.429      7.9949604    
      3250   297.63055     -5957.766      -5898.7118     -213.85519      34639.21       7.9898873    
      3260   296.62235     -5957.7825     -5898.9283     -103.04517      34624.381      7.9874473    
      3270   295.49834     -5957.7773     -5899.1462      42.118209      34609.611      7.9885081    
      3280   293.74954     -5957.6459     -5899.3618      169.07561      34595.661      7.994205     
      3290   291.73419     -5957.4496     -5899.5653      278.45798      34583.217      8.005548     
      3300   290.07335     -5957.3024     -5899.7477      336.98958      34572.8        8.0230403    
      3310   289.13023     -5957.269      -5899.9015      402.86788      34564.688      8.0464873    
      3320   289.44264     -5957.4507     -5900.0211      446.0567       34559.126      8.075307     
      3330   291.26472     -5957.9008     -5900.1097      440.45577      34556.214      8.1086082    
      3340   294.04019     -5958.5105     -5900.1687      415.03727      34555.838      8.145379     
      3350   296.87519     -5959.1133     -5900.209       377.84843      34557.767      8.184451     
      3360   298.95155     -5959.5549     -5900.2387      307.88277      34561.689      8.2246407    
      3370   300.00271     -5959.7926     -5900.2678      232.38375      34567.17       8.2646791    
      3380   300.39741     -5959.9003     -5900.2971      121.3988       34573.718      8.3034765    
      3390   300.54843     -5959.9688     -5900.3356     -3.1845107      34580.683      8.3401957    
      3400   301.21084     -5960.1442     -5900.3796     -207.55777      34587.296      8.3740706    
      3410   302.61573     -5960.4825     -5900.4392     -388.99946      34592.511      8.4041337    
      3420   303.77659     -5960.7924     -5900.5187     -585.98713      34595.339      8.4294338    
      3430   303.63496     -5960.8748     -5900.6292     -711.35261      34594.859      8.4488883    
      3440   301.71923     -5960.6396     -5900.7742     -788.85455      34590.461      8.4617021    
      3450   298.36467     -5960.1489     -5900.9491     -761.48472      34581.918      8.4673101    
      3460   294.49879     -5959.5736     -5901.1408     -679.30908      34569.521      8.4655709    
      3470   291.16179     -5959.103      -5901.3324     -561.78832      34553.866      8.4569397    
      3480   288.90692     -5958.8313     -5901.508      -386.26302      34535.731      8.4424459    
      3490   287.65437     -5958.728      -5901.6533     -223.1774       34516.135      8.4235081    
      3500   287.16284     -5958.7397     -5901.7625     -40.530377      34496.083      8.4015202    
      3510   287.32167     -5958.8379     -5901.8292      122.95179      34476.587      8.3777157    
      3520   288.00258     -5958.9932     -5901.8493      314.53905      34458.554      8.3531631    
      3530   289.41827     -5959.2495     -5901.8248      444.94635      34442.898      8.3289923    
      3540   291.10627     -5959.5132     -5901.7535      539.05754      34430.252      8.3060562    
      3550   292.40702     -5959.6611     -5901.6434      588.2985       34421.001      8.2850767    
      3560   293.17259     -5959.6611     -5901.4915      621.34224      34415.317      8.2667021    
      3570   293.32037     -5959.4989     -5901.2999      626.05863      34413.243      8.2515645    
      3580   293.4962      -5959.3008     -5901.0669      601.74706      34414.671      8.2403055    
      3590   294.7861      -5959.2836     -5900.7938      511.44136      34419.303      8.2334589    
      3600   297.56093     -5959.526      -5900.4857      382.51503      34426.566      8.2310926    
      3610   301.57349     -5959.9958     -5900.1593      234.05905      34435.68       8.2328947    
      3620   306.01584     -5960.5525     -5899.8346      104.25238      34445.776      8.2383393    
      3630   309.75039     -5960.9974     -5899.5385      15.407162      34456.112      8.2468943    
      3640   312.06188     -5961.2091     -5899.2916     -56.267077      34466.182      8.2581427    
      3650   312.97324     -5961.2007     -5899.1023     -105.1726       34475.607      8.2715617    
      3660   312.27441     -5960.9344     -5898.9747     -107.19237      34484.165      8.2867557    
      3670   309.84817     -5960.3807     -5898.9024     -87.203651      34491.851      8.3036306    
      3680   306.48143     -5959.6824     -5898.8721     -82.949622      34498.776      8.3221583    
      3690   303.42369     -5959.0737     -5898.8701     -82.082071      34505.016      8.3421888    
      3700   301.42455     -5958.6877     -5898.8808     -116.76556      34510.572      8.3634339    
      3710   300.47178     -5958.516      -5898.8981     -169.35094      34515.305      8.385524     
      3720   300.37255     -5958.5167     -5898.9185     -253.6406       34518.944      8.4081007    
      3730   301.04318     -5958.6716     -5898.9404     -381.34511      34521.032      8.4304326    
      3740   302.13622     -5958.9155     -5898.9674     -499.26203      34520.949      8.4515841    
      3750   303.09486     -5959.147      -5899.0086     -574.24135      34518.133      8.4706976    
      3760   303.22098     -5959.2264     -5899.0631     -620.6245       34512.225      8.4869297    
      3770   302.192       -5959.0931     -5899.1339     -620.40429      34503.079      8.4996216    
      3780   300.249       -5958.7943     -5899.2206     -576.04385      34490.802      8.5084901    
      3790   298.08246     -5958.4585     -5899.3147     -470.26445      34475.746      8.5135462    
      3800   296.39452     -5958.2183     -5899.4093     -310.58353      34458.591      8.515232     
      3810   295.77059     -5958.1824     -5899.4973     -146.08337      34440.264      8.5147884    
      3820   296.42152     -5958.394      -5899.5798      0.47199163     34421.677      8.5140286    
      3830   297.58773     -5958.7064     -5899.6608      151.74857      34403.653      8.5149955    
      3840   298.06249     -5958.8859     -5899.746       291.14969      34387.001      8.5197293    
      3850   297.48863     -5958.8654     -5899.8394      426.61364      34372.45       8.5299797    
      3860   295.79569     -5958.635      -5899.9449      589.13369      34360.702      8.5472945    
      3870   293.41635     -5958.2743     -5900.0563      741.36156      34352.513      8.5730728    
      3880   291.41746     -5957.9861     -5900.1647      866.65895      34348.604      8.6084428    
      3890   290.52258     -5957.9055     -5900.2617      928.99033      34349.526      8.6539939    
      3900   290.52773     -5957.9817     -5900.3368      919.4634       34355.472      8.7096399    
      3910   290.91849     -5958.1084     -5900.386       852.59181      34366.249      8.7745325    
      3920   291.64242     -5958.2717     -5900.4057      796.48572      34381.399      8.8473735    
      3930   292.75085     -5958.4746     -5900.3886      691.07989      34400.455      8.9266963    
      3940   294.18901     -5958.7086     -5900.3373      561.21009      34422.741      9.0109277    
      3950   295.74808     -5958.9309     -5900.2503      465.2949       34447.479      9.0984791    
      3960   297.61959     -5959.1829     -5900.1309      340.19925      34474.04       9.1878661    
      3970   299.70095     -5959.4509     -5899.986       243.46183      34501.715      9.2774861    
      3980   301.44158     -5959.6322     -5899.8219      105.56275      34529.862      9.3659051    
      3990   302.49458     -5959.667      -5899.6477     -7.0872187      34557.746      9.451772     
      4000   302.67254     -5959.5242     -5899.4696     -97.915047      34584.722      9.5338896    
      4010   302.04334     -5959.2202     -5899.2905     -139.43722      34610.318      9.6112131    
      4020   301.20042     -5958.8756     -5899.1131     -168.03938      34634.319      9.6827623    
      4030   301.0648      -5958.6687     -5898.9331     -160.32153      34656.639      9.7476532    
      4040   302.05597     -5958.6848     -5898.7526     -176.06717      34677.348      9.8052146    
      4050   304.10913     -5958.9148     -5898.5752     -268.25035      34696.377      9.8548283    
      4060   307.11707     -5959.3429     -5898.4065     -336.26821      34713.304      9.8955712    
      4070   310.47877     -5959.8684     -5898.265      -377.59263      34727.813      9.9268171    
      4080   313.24126     -5960.3156     -5898.164      -440.84855      34739.732      9.9485534    
      4090   314.67008     -5960.5518     -5898.1167     -478.50327      34748.797      9.9613957    
      4100   314.25246     -5960.4829     -5898.1307     -474.46171      34754.91       9.9664015    
      4110   311.78916     -5960.0713     -5898.2079     -452.72868      34758.193      9.9648832    
      4120   307.86323     -5959.422      -5898.3375     -392.95319      34758.866      9.9581922    
      4130   303.40411     -5958.7057     -5898.506      -340.05698      34757.294      9.9474836    
      4140   298.88477     -5957.9971     -5898.6941     -262.16124      34753.871      9.9334697    
      4150   294.74585     -5957.3654     -5898.8836     -181.82305      34749.074      9.9166307    
      4160   291.45303     -5956.886      -5899.0575     -103.9793       34743.409      9.8973258    
      4170   289.34045     -5956.6135     -5899.2042     -42.970768      34737.348      9.8759222    
      4180   288.51431     -5956.5593     -5899.314      -23.976626      34731.221      9.8527489    
      4190   288.7681      -5956.6816     -5899.3859     -41.15419       34725.131      9.8278672    
      4200   289.36324     -5956.8311     -5899.4172     -53.130808      34719.014      9.8013493    
      4210   289.541       -5956.8582     -5899.4091     -32.14228       34712.834      9.7736941    
      4220   289.45074     -5956.7871     -5899.3559     -12.007834      34706.663      9.7453945    
      4230   289.39357     -5956.6754     -5899.2556      39.785553      34700.623      9.7169402    
      4240   289.58046     -5956.559      -5899.102       91.405305      34694.98       9.6889516    
      4250   289.97214     -5956.422      -5898.8874      167.04735      34690.044      9.6621152    
      4260   290.93804     -5956.3385     -5898.6122      208.84243      34686.165      9.6372225    
      4270   292.94679     -5956.3978     -5898.273       239.12505      34683.573      9.6150412    
      4280   295.56574     -5956.53       -5897.8856      245.44668      34682.397      9.5963574    
      4290   298.2668      -5956.6487     -5897.4683      245.87016      34682.638      9.5816006    
      4300   301.05083     -5956.7864     -5897.0536      201.66359      34684.209      9.5708777    
      4310   303.67541     -5956.9233     -5896.6698      137.70441      34686.85       9.5638806    
      4320   305.86606     -5957.0277     -5896.3395      77.767633      34690.18       9.5599576    
      4330   307.80481     -5957.1464     -5896.0735      13.544742      34693.831      9.5585036    
      4340   309.9732      -5957.3796     -5895.8765     -67.425132      34697.458      9.5588875    
      4350   312.25419     -5957.7023     -5895.7466     -175.13368      34700.611      9.5607515    
      4360   313.64937     -5957.9158     -5895.6832     -268.40832      34702.713      9.5639035    
      4370   313.52154     -5957.8901     -5895.683      -320.83383      34703.286      9.5681837    
      4380   311.93573     -5957.6279     -5895.7354     -357.61218      34702.039      9.5731732    
      4390   309.88009     -5957.3141     -5895.8294     -383.32996      34698.825      9.5783726    
      4400   308.15136     -5957.0958     -5895.9542     -420.04459      34693.544      9.5832296    
      4410   306.92703     -5956.9977     -5896.099      -420.4839       34686.068      9.5869431    
      4420   306.43218     -5957.0592     -5896.2587     -416.29122      34676.425      9.5887797    
      4430   306.46609     -5957.2361     -5896.4288     -390.36502      34664.713      9.5879562    
      4440   306.26717     -5957.3807     -5896.6129     -352.49561      34651.121      9.5839568    
      4450   305.32838     -5957.387      -5896.8054     -247.32574      34635.962      9.5765667    
      4460   303.79195     -5957.2797     -5897.003      -125.48702      34619.821      9.56612      
      4470   302.15693     -5957.1508     -5897.1985      43.908129      34603.43       9.5534163    
      4480   300.59695     -5957.0281     -5897.3853      214.68922      34587.698      9.5397046    
      4490   298.76716     -5956.8402     -5897.5605      398.0635       34573.559      9.5262918    
      4500   296.49863     -5956.5436     -5897.714       583.44118      34561.989      9.5144955    
      4510   294.44305     -5956.2656     -5897.8439      704.87283      34553.92       9.5057393    
      4520   293.19456     -5956.118      -5897.944       778.35928      34549.979      9.5009868    
      4530   292.86946     -5956.1246     -5898.0151      775.49609      34550.426      9.5007954    
      4540   293.25486     -5956.2433     -5898.0573      727.57815      34555.146      9.5052727    
      4550   294.57645     -5956.5223     -5898.0742      641.73986      34563.769      9.5140586    
      4560   296.88925     -5956.9783     -5898.0712      508.6516       34575.731      9.5265082    
      4570   299.80438     -5957.5415     -5898.056       336.49627      34590.228      9.5419038    
      4580   302.70015     -5958.0989     -5898.0388      161.80847      34606.266      9.5594036    
      4590   305.47805     -5958.6438     -5898.0326      9.9723211      34622.864      9.5781373    
      4600   308.37975     -5959.2356     -5898.0486     -132.01146      34639.159      9.5971332    
      4610   311.26406     -5959.856      -5898.0967     -282.7079       34654.346      9.6157449    
      4620   313.13478     -5960.324      -5898.1935     -414.34995      34667.621      9.6336242    
      4630   313.31182     -5960.5137     -5898.3481     -536.79764      34678.29       9.6505409    
      4640   312.27984     -5960.5261     -5898.5653     -622.71912      34685.75       9.666208     
      4650   310.86128     -5960.521      -5898.8417     -676.5762       34689.579      9.6804609    
      4660   309.55516     -5960.5939     -5899.1737     -717.19408      34689.543      9.693207     
      4670   308.51119     -5960.7631     -5899.55       -772.4503       34685.454      9.7043525    
      4680   307.34306     -5960.9344     -5899.9532     -762.29339      34677.16       9.7138733    
      4690   306.19796     -5961.1157     -5900.3617     -723.78313      34664.78       9.7218415    
      4700   305.25159     -5961.3142     -5900.7479     -655.28286      34648.616      9.7282001    
      4710   304.0946      -5961.4285     -5901.0917     -533.79538      34629.154      9.7325358    
      4720   302.18419     -5961.3387     -5901.3811     -405.03305      34607.121      9.7343789    
      4730   300.06168     -5961.1458     -5901.6092     -271.76101      34583.303      9.733366     
      4740   298.28527     -5960.9659     -5901.7819     -127.61527      34558.486      9.7293052    
      4750   296.9327      -5960.8206     -5901.9049      22.504668      34533.486      9.7224202    
      4760   295.6788      -5960.6558     -5901.9889      210.6724       34509.171      9.7131905    
      4770   294.42606     -5960.4565     -5902.0382      380.35631      34486.529      9.7025344    
      4780   293.48214     -5960.2896     -5902.0585      578.20868      34466.509      9.6917669    
      4790   293.34995     -5960.2551     -5902.0503      747.92455      34450.103      9.6825334    
      4800   294.41963     -5960.4364     -5902.0193      856.77552      34438.148      9.6765271    
      4810   296.16365     -5960.7352     -5901.9721      957.79888      34431.183      9.6749833    
      4820   297.8754      -5961.0187     -5901.9159      969.9565       34429.605      9.6788075    
      4830   299.35887     -5961.2516     -5901.8545      912.04915      34433.389      9.6883124    
      4840   300.86184     -5961.49       -5901.7947      814.92635      34442.133      9.7033917    
      4850   302.3479      -5961.7284     -5901.7382      619.40383      34455.168      9.7237073    
      4860   303.7278      -5961.9543     -5901.6904      384.64959      34471.375      9.7485358    
      4870   304.80696     -5962.1334     -5901.6554      175.80189      34489.425      9.7770691    
      4880   305.34765     -5962.2209     -5901.6356     -48.297533      34508.081      9.8082423    
      4890   304.93561     -5962.1396     -5901.6361     -202.00993      34526.145      9.8404436    
      4900   303.47461     -5961.8683     -5901.6546     -337.11067      34542.748      9.872173     
      4910   301.41732     -5961.4944     -5901.6889     -463.9093       34557.184      9.9022687    
      4920   299.64616     -5961.186      -5901.7319     -510.52421      34568.844      9.9298545    
      4930   298.7535      -5961.0535     -5901.7765     -545.72543      34577.453      9.9546294    
      4940   298.76036     -5961.1014     -5901.8231     -537.53897      34582.882      9.9764756    
      4950   299.80456     -5961.3541     -5901.8686     -522.97252      34585.211      9.995475     
      4960   301.3169      -5961.7039     -5901.9183     -464.2345       34584.612      10.012017    
      4970   302.79941     -5962.0591     -5901.9793     -347.23814      34581.461      10.026693    
      4980   303.75273     -5962.3246     -5902.0557     -234.33747      34576.416      10.0403      
      4990   303.61786     -5962.3964     -5902.1542     -112.90625      34570.141      10.053472    
      5000   302.07607     -5962.2092     -5902.273       49.084527      34563.36       10.066428    
      5010   299.76205     -5961.8844     -5902.4073      228.99238      34556.987      10.079356    
      5020   297.79959     -5961.6394     -5902.5517      342.92664      34551.967      10.092755    
      5030   296.56681     -5961.5413     -5902.6982      403.13377      34548.934      10.107146    
      5040   295.93913     -5961.5654     -5902.8469      415.07274      34548.199      10.123094    
      5050   295.61326     -5961.6453     -5902.9914      373.37652      34549.785      10.141368    
      5060   295.14933     -5961.6951     -5903.1332      321.15467      34553.444      10.16305     
      5070   294.2845      -5961.6617     -5903.2715      218.65434      34558.804      10.189158    
      5080   293.15688     -5961.5669     -5903.4004      135.30233      34565.299      10.220006    
      5090   291.7625      -5961.4043     -5903.5144      12.965723      34572.403      10.255207    
      5100   290.43326     -5961.2311     -5903.605      -90.900663      34579.465      10.293475    
      5110   289.70631     -5961.1465     -5903.6646     -177.20372      34585.883      10.333169    
      5120   289.85931     -5961.1974     -5903.6851     -256.93773      34591.169      10.37271     
      5130   290.64715     -5961.3311     -5903.6625     -311.36551      34594.908      10.410898    
      5140   291.87666     -5961.5032     -5903.5907     -306.68581      34596.862      10.446829    
      5150   293.32622     -5961.6702     -5903.47       -276.05653      34597.08       10.479763    
      5160   294.99994     -5961.8317     -5903.2995     -214.50591      34595.782      10.509529    
      5170   296.8758      -5961.991      -5903.0866     -126.19004      34593.345      10.536412    
      5180   298.78736     -5962.1158     -5902.8322     -30.457369      34590.273      10.561183    
      5190   300.28717     -5962.1309     -5902.5496      59.29607       34587.107      10.584735    
      5200   301.12386     -5961.9928     -5902.2455      149.72476      34584.348      10.607958    
      5210   301.24155     -5961.7013     -5901.9307      243.78354      34582.496      10.631636    
      5220   301.00513     -5961.3365     -5901.6128      305.23034      34582.043      10.656339    
      5230   300.99936     -5961.0198     -5901.2972      319.24969      34583.267      10.682246    
      5240   301.26713     -5960.7656     -5900.9899      311.07378      34586.223      10.709105    
      5250   301.96794     -5960.6125     -5900.6978      258.19722      34590.818      10.736387    
      5260   303.14298     -5960.5756     -5900.4277      182.87391      34596.751      10.763214    
      5270   304.68053     -5960.6364     -5900.1834      95.555913      34603.576      10.78842     
      5280   305.76463     -5960.6404     -5899.9723      22.693096      34610.779      10.811107    
      5290   305.89528     -5960.4928     -5899.7988     -18.099141      34617.958      10.830832    
      5300   305.12095     -5960.1995     -5899.6591     -65.52127       34624.852      10.847436    
      5310   303.90568     -5959.8494     -5899.5501     -85.989178      34631.242      10.860963    
      5320   302.73979     -5959.5308     -5899.4629     -68.504464      34637.04       10.871798    
      5330   302.09208     -5959.3326     -5899.3932     -57.409285      34642.314      10.880323    
      5340   302.14838     -5959.2858     -5899.3352     -23.767161      34647.171      10.887137    
      5350   302.9038      -5959.389      -5899.2886     -32.998755      34651.757      10.893228    
      5360   303.91224     -5959.5549     -5899.2544     -11.060571      34656.08       10.899393    
      5370   304.43255     -5959.6406     -5899.2368      45.925604      34660.277      10.906349    
      5380   304.34007     -5959.6241     -5899.2387      133.68914      34664.673      10.914642    
      5390   304.04466     -5959.5835     -5899.2567      207.82068      34669.724      10.92467     
      5400   304.17935     -5959.6447     -5899.2911      270.45817      34675.848      10.936761    
      5410   305.0851      -5959.8768     -5899.3436      224.82598      34683.301      10.950997    
      5420   306.69816     -5960.2712     -5899.4179      144.96635      34691.861      10.966753    
      5430   308.68069     -5960.7671     -5899.5204      28.984343      34701.045      10.983351    
      5440   310.10819     -5961.1945     -5899.6646     -104.22131      34710.188      11.00021     
      5450   310.41148     -5961.4442     -5899.8541     -221.57184      34718.572      11.01682     
      5460   309.59695     -5961.5255     -5900.097      -322.73479      34725.572      11.032688    
      5470   308.19975     -5961.5413     -5900.39       -409.22578      34730.644      11.04727     
      5480   306.42607     -5961.5273     -5900.728      -510.82925      34733.306      11.060028    
      5490   304.08184     -5961.4263     -5901.0921     -535.67751      34733.1        11.070231    
      5500   301.34424     -5961.2567     -5901.4657     -509.97246      34729.908      11.077409    
      5510   298.88189     -5961.1234     -5901.821      -432.78258      34723.929      11.08167     
      5520   297.30588     -5961.1289     -5902.1392     -317.38496      34715.638      11.08349     
      5530   296.54827     -5961.241      -5902.4015     -175.43248      34705.71       11.083684    
      5540   295.99437     -5961.338      -5902.6085     -47.740736      34694.941      11.083468    
      5550   295.55469     -5961.4025     -5902.7602      78.678226      34684.085      11.08412     
      5560   295.52743     -5961.5002     -5902.8634      165.95701      34673.823      11.086743    
      5570   295.70797     -5961.6017     -5902.929       295.72402      34664.688      11.092016    
      5580   295.68891     -5961.6365     -5902.9676      401.74257      34657.337      11.100412    
      5590   295.64735     -5961.6438     -5902.9831      471.14635      34652.339      11.112409    
      5600   295.38068     -5961.5878     -5902.98        554.19968      34650.091      11.128456    
      5610   294.77345     -5961.449      -5902.9617      594.01691      34650.958      11.149134    
      5620   293.8675      -5961.2351     -5902.9276      632.71597      34655.139      11.174964    
      5630   292.90091     -5960.9905     -5902.8747      673.14398      34662.811      11.206348    
      5640   292.44775     -5960.8268     -5902.801       667.54136      34674.129      11.24333     
      5650   293.17766     -5960.8744     -5902.7037      595.56884      34688.995      11.285567    
      5660   294.62854     -5961.0439     -5902.5854      492.75831      34706.965      11.332214    
      5670   296.229       -5961.2234     -5902.4473      349.6219       34727.424      11.382271    
      5680   297.63622     -5961.3523     -5902.297       187.54627      34749.527      11.434057    
      5690   298.94086     -5961.4512     -5902.137       21.774595      34772.325      11.485591    
      5700   300.33198     -5961.5625     -5901.9723     -142.97454      34794.878      11.535113    
      5710   301.77024     -5961.6859     -5901.8104     -286.09797      34816.284      11.581072    
      5720   302.4705      -5961.6709     -5901.6564     -371.69306      34835.767      11.6223      
      5730   301.66889     -5961.368      -5901.5126     -427.10001      34852.83       11.658336    
      5740   299.43399     -5960.7905     -5901.3785     -432.6178       34867.205      11.689497    
      5750   296.41076     -5960.0574     -5901.2452     -357.11602      34878.948      11.716394    
      5760   293.74811     -5959.3839     -5901.1001     -274.77376      34888.477      11.740051    
      5770   292.82963     -5959.032      -5900.9304     -190.25381      34896.283      11.761682    
      5780   294.0452      -5959.0778     -5900.735      -152.20682      34902.843      11.782331    
      5790   296.7797      -5959.3997     -5900.5143     -139.20465      34908.412      11.802505    
      5800   300.02796     -5959.8094     -5900.2796     -139.49903      34913.085      11.822472    
      5810   302.76229     -5960.1178     -5900.0454     -136.72316      34916.903      11.842472    
      5820   304.17196     -5960.1764     -5899.8243     -148.74878      34919.867      11.862779    
      5830   304.24118     -5959.9882     -5899.6224     -121.09283      34921.948      11.883593    
      5840   303.40407     -5959.6436     -5899.4438     -69.682946      34923.304      11.90509     
      5850   302.475       -5959.3004     -5899.285       2.9617737      34924.266      11.92719     
      5860   302.10265     -5959.0818     -5899.1403      57.057482      34925.23       11.949561    
      5870   302.57556     -5959.0415     -5899.0062      19.106265      34926.436      11.971468    
      5880   303.92789     -5959.1898     -5898.8862     -42.254282      34927.739      11.991578    
      5890   305.82309     -5959.463      -5898.7833     -137.04136      34928.783      12.008508    
      5900   307.48743     -5959.715      -5898.7051     -248.55314      34929.029      12.021014    
      5910   308.4658      -5959.8604     -5898.6563     -430.379        34927.802      12.027895    
      5920   308.62648     -5959.8816     -5898.6457     -588.22212      34924.145      12.027794    
      5930   307.71103     -5959.7249     -5898.6706     -674.38157      34917.211      12.020032    
      5940   306.05123     -5959.4535     -5898.7285     -714.05177      34906.536      12.004772    
      5950   304.54414     -5959.2429     -5898.817      -711.63926      34891.924      11.982581    
      5960   304.05429     -5959.2561     -5898.9274     -656.35498      34873.458      11.954555    
      5970   304.28291     -5959.4381     -5899.064      -583.02484      34851.48       11.92226     
      5980   304.25885     -5959.6011     -5899.2318     -426.60337      34826.494      11.887446    
      5990   302.77327     -5959.5037     -5899.4291     -199.18079      34799.426      11.851969    
      6000   299.53293     -5959.0906     -5899.659       45.996026      34771.554      11.817494    
      6010   295.51634     -5958.5446     -5899.9099      323.93522      34744.292      11.785411    
      6020   292.25138     -5958.1567     -5900.1699      548.78253      34719.163      11.756941    
      6030   290.61769     -5958.0989     -5900.4362      740.6526       34697.447      11.732791    
      6040   290.56509     -5958.3567     -5900.7044      838.62183      34680.11       11.713258    
      6050   291.16705     -5958.75       -5900.9783      900.19049      34667.682      11.698153    
      6060   291.20485     -5959.0404     -5901.2612      895.49496      34660.417      11.687137    
      6070   290.03978     -5959.0994     -5901.5513      874.23108      34658.252      11.679796    
      6080   287.89059     -5958.9661     -5901.8444      827.68053      34661.019      11.675827    
      6090   285.77734     -5958.828      -5902.1257      758.28634      34668.4        11.674712    
      6100   284.72455     -5958.8778     -5902.3844      646.28489      34679.951      11.675848    
      6110   285.52036     -5959.2638     -5902.6125      482.45774      34695.024      11.678585    
      6120   288.18558     -5959.9882     -5902.808       309.79363      34712.684      11.682474    
      6130   291.73291     -5960.863      -5902.979       120.58045      34731.926      11.687324    
      6140   294.61566     -5961.5918     -5903.1358     -36.240943      34751.693      11.692747    
      6150   295.41765     -5961.9045     -5903.2894     -146.71333      34771.081      11.698613    
      6160   293.63045     -5961.705      -5903.4445     -209.57872      34789.471      11.704738    
      6170   290.2284      -5961.1813     -5903.5958     -228.26888      34806.519      11.711174    
      6180   287.33728     -5960.7404     -5903.7285     -232.29735      34822.131      11.718036    
      6190   286.34802     -5960.6503     -5903.8347     -282.12786      34836.27       11.72527     
      6200   287.67913     -5960.9832     -5903.9035     -385.20689      34848.653      11.732677    
      6210   290.52112     -5961.5775     -5903.934      -482.82929      34858.731      11.739809    
      6220   293.50133     -5962.1656     -5903.9308     -555.7167       34865.972      11.746166    
      6230   295.41153     -5962.5146     -5903.9008     -597.95514      34869.995      11.751357    
      6240   295.69299     -5962.5146     -5903.8449     -551.77113      34870.641      11.754834    
      6250   294.54715     -5962.203      -5903.7606     -486.16504      34868.138      11.75617     
      6260   292.89732     -5961.7559     -5903.6408     -381.0672       34862.901      11.755061    
      6270   292.04966     -5961.4222     -5903.4754     -239.40129      34855.549      11.751517    
      6280   293.01176     -5961.3911     -5903.2534     -132.03747      34846.863      11.745914    
      6290   295.89877     -5961.6881     -5902.9776     -46.685724      34837.484      11.738454    
      6300   300.16869     -5962.2195     -5902.6617      28.913257      34827.894      11.729602    
      6310   304.55722     -5962.7556     -5902.3271      99.844479      34818.529      11.719857    
      6320   307.56961     -5963.0273     -5902.0011      157.23054      34809.79       11.709953    
      6330   308.63018     -5962.9417     -5901.705       233.42618      34802.01       11.700763    
      6340   308.25894     -5962.6135     -5901.4505      302.5091       34795.598      11.693425    
      6350   307.0443      -5962.1587     -5901.2367      354.57778      34790.943      11.689105    
      6360   305.68964     -5961.7126     -5901.0594      374.86134      34788.304      11.689254    
      6370   304.8786      -5961.4036     -5900.9113      378.43504      34787.794      11.69526     
      6380   304.59478     -5961.2234     -5900.7874      326.04292      34789.393      11.707906    
      6390   304.35106     -5961.0725     -5900.6849      243.09971      34792.825      11.727189    
      6400   304.2707      -5960.9733     -5900.6016      128.1782       34797.596      11.752684    
      6410   304.64019     -5960.981      -5900.536       55.044293      34803.124      11.783593    
      6420   305.65419     -5961.1362     -5900.4901     -31.690198      34808.946      11.818934    
      6430   306.91337     -5961.3607     -5900.4647     -104.08542      34814.574      11.857807    
      6440   307.74329     -5961.5288     -5900.4681     -138.30849      34819.603      11.899734    
      6450   307.26409     -5961.4698     -5900.5043     -125.49855      34823.844      11.944709    
      6460   304.78998     -5961.0465     -5900.5718     -51.952927      34827.378      11.992849    
      6470   300.79961     -5960.3434     -5900.6604      78.16248       34830.646      12.044315    
      6480   296.95886     -5959.6765     -5900.7556      207.95644      34834.358      12.099234    
      6490   295.18028     -5959.411      -5900.843       265.67107      34839.217      12.157171    
      6500   296.07442     -5959.6637     -5900.9183      230.81629      34845.551      12.216932    
      6510   298.60515     -5960.2313     -5900.9838      159.6319       34853.169      12.27667     
      6520   300.6688      -5960.7063     -5901.0493      56.169415      34861.643      12.334559    
      6530   300.73242     -5960.7938     -5901.1242     -46.136882      34870.425      12.388624    
      6540   298.85423     -5960.5067     -5901.2098     -146.4963       34878.933      12.436871    
      6550   296.47991     -5960.1295     -5901.3037     -247.35162      34886.566      12.477383    
      6560   295.00196     -5959.9314     -5901.3988     -317.32943      34892.761      12.508416    
      6570   294.67948     -5959.9603     -5901.4917     -365.71203      34897.127      12.528622    
      6580   295.05744     -5960.1233     -5901.5797     -420.77637      34899.379      12.536939    
      6590   295.89796     -5960.3782     -5901.6678     -434.24111      34899.241      12.532849    
      6600   296.97401     -5960.681      -5901.7571     -428.1479       34896.637      12.516812    
      6610   297.73419     -5960.9253     -5901.8506     -373.46907      34891.627      12.489542    
      6620   297.67692     -5961.0121     -5901.9487     -310.79178      34884.485      12.451928    
      6630   296.94756     -5960.9714     -5902.0528     -219.76225      34875.593      12.405309    
      6640   296.15248     -5960.915      -5902.1541     -121.26239      34865.457      12.351528    
      6650   295.44012     -5960.8696     -5902.2501     -18.299274      34854.652      12.292566    
      6660   294.74809     -5960.8184     -5902.3361      83.482813      34843.774      12.230704    
      6670   294.64456     -5960.87       -5902.4083      171.02089      34833.392      12.167932    
      6680   295.78984     -5961.1542     -5902.4652      217.63063      34824.014      12.105865    
      6690   297.94846     -5961.631      -5902.5137      221.49493      34815.896      12.045396    
      6700   299.58042     -5962.0001     -5902.5591      236.43627      34809.063      11.986914    
      6710   299.81695     -5962.0979     -5902.6099      292.17357      34803.614      11.930665    
      6720   298.96321     -5961.9836     -5902.6651      329.9922       34799.827      11.876866    
      6730   297.80359     -5961.8093     -5902.7208      323.70985      34797.908      11.825573    
      6740   296.95866     -5961.6954     -5902.7746      341.03921      34797.865      11.776675    
      6750   296.85237     -5961.7207     -5902.8209      319.0528       34799.74       11.730248    
      6760   297.33993     -5961.8558     -5902.8593      281.31909      34803.413      11.68628     
      6770   298.07521     -5962.0316     -5902.8892      215.89726      34808.647      11.644396    
      6780   298.81871     -5962.2037     -5902.9138      151.77513      34815.115      11.60416     
      6790   299.32904     -5962.3271     -5902.936       107.55283      34822.466      11.565162    
      6800   299.42432     -5962.3671     -5902.957       53.850071      34830.429      11.527236    
      6810   298.89469     -5962.2814     -5902.9764     -31.090695      34838.658      11.490207    
      6820   298.11758     -5962.1437     -5902.9929     -93.817941      34846.694      11.453797    
      6830   297.52513     -5962.0334     -5903.0002     -185.84346      34854.138      11.417726    
      6840   297.51643     -5962.0276     -5902.9961     -247.34962      34860.512      11.381718    
      6850   297.88519     -5962.0891     -5902.9844     -331.61111      34865.426      11.345895    
      6860   298.53872     -5962.1927     -5902.9584     -387.24959      34868.436      11.310419    
      6870   299.48628     -5962.3477     -5902.9253     -392.81773      34869.241      11.27561     
      6880   300.37894     -5962.4883     -5902.8888     -399.92332      34867.777      11.241942    
      6890   300.60217     -5962.4938     -5902.85       -374.83456      34864.052      11.210168    
      6900   300.07205     -5962.3484     -5902.8098     -322.57959      34858.21       11.181314    
      6910   298.95023     -5962.0833     -5902.7672     -221.43137      34850.571      11.156256    
      6920   297.38201     -5961.7214     -5902.7166     -88.591839      34841.71       11.135785    
      6930   295.78941     -5961.342      -5902.6532      18.654108      34832.347      11.120312    
      6940   294.73887     -5961.0469     -5902.5665      104.35117      34823.099      11.109782    
      6950   294.93958     -5960.9714     -5902.4512      165.66857      34814.471      11.103703    
      6960   296.76761     -5961.1871     -5902.3042      195.71817      34806.805      11.101251    
      6970   300.08232     -5961.6702     -5902.1295      148.04151      34800.206      11.101459    
      6980   304.27799     -5962.3132     -5901.9401      97.286042      34794.449      11.103345    
      6990   307.93563     -5962.8501     -5901.7513      61.852091      34789.255      11.106433    
      7000   309.76064     -5963.0416     -5901.5807      27.491831      34784.396      11.110704    
      7010   309.50237     -5962.8479     -5901.4382      45.220457      34779.713      11.116585    
      7020   307.71423     -5962.3824     -5901.3275      79.882807      34775.296      11.125176    
      7030   305.57858     -5961.873      -5901.2419      104.47397      34771.333      11.1377      
      7040   303.70813     -5961.4351     -5901.175       146.39342      34767.985      11.154853    
      7050   302.45436     -5961.1285     -5901.1173      141.93182      34765.422      11.176951    
      7060   301.9129      -5960.9692     -5901.0654      157.42098      34763.654      11.203811    
      7070   301.78323     -5960.8967     -5901.0186      195.78585      34762.778      11.235165    
      7080   301.89899     -5960.8718     -5900.9707      248.39347      34763.03       11.270717    
      7090   302.27661     -5960.9008     -5900.9247      254.37764      34764.669      11.310022    
      7100   303.12158     -5961.026      -5900.8823      238.85962      34767.739      11.352334    
      7110   304.08523     -5961.1827     -5900.8479      218.68455      34772.156      11.396808    
      7120   304.65799     -5961.275      -5900.8265      199.80286      34777.819      11.442363    
      7130   304.64673     -5961.267      -5900.8207      179.11602      34784.635      11.488112    
      7140   303.97122     -5961.1476     -5900.8353      166.8067       34792.494      11.533518    
      7150   302.67093     -5960.922      -5900.8677      131.34248      34801.311      11.578251    
      7160   300.87603     -5960.6158     -5900.9177      105.04021      34810.894      11.622258    
      7170   298.67949     -5960.2419     -5900.9797      114.08894      34821.104      11.665605    
      7180   296.57161     -5959.8856     -5901.0416      104.08163      34831.957      11.708582    
      7190   295.32062     -5959.697      -5901.1012      100.72628      34843.434      11.751303    
      7200   295.2438      -5959.7307     -5901.1501      44.783287      34855.466      11.793874    
      7210   295.88236     -5959.8915     -5901.1842     -32.833539      34867.768      11.836268    
      7220   296.3641      -5960.0105     -5901.2076     -119.90236      34879.91       11.878206    
      7230   296.52491     -5960.0504     -5901.2156     -227.12056      34891.391      11.918879    
      7240   296.41787     -5960.0244     -5901.2109     -349.04872      34901.586      11.957153    
      7250   295.96842     -5959.9146     -5901.1902     -472.47715      34909.791      11.991522    
      7260   295.65747     -5959.8146     -5901.1519     -548.40227      34915.337      12.02045     
      7270   296.39898     -5959.9021     -5901.0923     -624.87087      34917.753      12.042738    
      7280   298.65956     -5960.2701     -5901.0118     -691.54278      34916.581      12.05739     
      7290   301.78079     -5960.7975     -5900.9199     -704.52623      34911.45       12.063557    
      7300   304.81453     -5961.3047     -5900.8251     -675.96573      34902.251      12.060756    
      7310   307.11293     -5961.676      -5900.7404     -581.13602      34889.175      12.048992    
      7320   308.29537     -5961.8481     -5900.6779     -436.47515      34872.754      12.028854    
      7330   307.87451     -5961.7306     -5900.6439     -268.21177      34853.789      12.001563    
      7340   306.06581     -5961.3647     -5900.6369     -64.655429      34833.248      11.968686    
      7350   303.571       -5960.8861     -5900.6533      166.61933      34812.282      11.932139    
      7360   301.23953     -5960.4532     -5900.683       368.51556      34792.174      11.893996    
      7370   300.162       -5960.2771     -5900.7207      519.14204      34774.077      11.856109    
      7380   300.86401     -5960.4573     -5900.7615      616.28923      34758.85       11.819947    
      7390   303.06521     -5960.9465     -5900.8141      635.34774      34747.034      11.786535    
      7400   305.99449     -5961.5999     -5900.8862      580.29121      34738.754      11.756308    
      7410   308.52591     -5962.2085     -5900.9925      501.07071      34733.747      11.729242    
      7420   309.82154     -5962.6198     -5901.1467      423.82051      34731.575      11.704856    
      7430   309.42561     -5962.7498     -5901.3553      330.8882       34731.798      11.682456    
      7440   307.78568     -5962.689      -5901.6199      221.90302      34733.902      11.66097     
      7450   305.60062     -5962.5663     -5901.9307      106.04985      34737.286      11.639211    
      7460   303.6532      -5962.5176     -5902.2684     -32.192109      34741.291      11.616447    
      7470   302.09977     -5962.5634     -5902.6224     -128.61289      34745.173      11.592077    
      7480   300.96837     -5962.6904     -5902.974      -213.52907      34748.344      11.565781    
      7490   300.39955     -5962.9142     -5903.3106     -290.07141      34750.322      11.537342    
      7500   300.17203     -5963.1844     -5903.626      -318.27997      34750.697      11.506453    
      7510   299.99009     -5963.4349     -5903.9126     -357.07587      34749.245      11.473061    
      7520   299.0045      -5963.4965     -5904.1697     -332.80723      34745.775      11.437115    
      7530   296.96811     -5963.3167     -5904.3939     -277.07251      34740.395      11.398689    
      7540   293.98342     -5962.912      -5904.5815     -179.43664      34733.422      11.357705    
      7550   290.28152     -5962.3224     -5904.7264     -56.301466      34725.374      11.313997    
      7560   286.57251     -5961.679      -5904.8189      82.464047      34716.948      11.267545    
      7570   284.25315     -5961.2549     -5904.855       199.37505      34708.917      11.218313    
      7580   284.25184     -5961.2322     -5904.8325      292.87841      34701.949      11.16638     
      7590   286.33614     -5961.5691     -5904.7559      384.49126      34696.596      11.112344    
      7600   289.46077     -5962.0642     -5904.631       461.64226      34693.391      11.057358    
      7610   292.73843     -5962.5557     -5904.4722      515.25226      34692.79       11.002967    
      7620   295.88647     -5962.9962     -5904.2881      493.1731       34695.075      10.950781    
      7630   298.39485     -5963.3002     -5904.0944      470.56226      34700.205      10.902552    
      7640   299.78086     -5963.3822     -5903.9014      420.33519      34708.036      10.860251    
      7650   299.69456     -5963.1757     -5903.712       374.71289      34718.311      10.82564     
      7660   298.19383     -5962.6985     -5903.5326      303.34558      34730.783      10.80005     
      7670   295.90106     -5962.066      -5903.355       222.61291      34745.101      10.784193    
      7680   294.09826     -5961.5288     -5903.1755      111.5396       34760.804      10.778326    
      7690   293.62966     -5961.2446     -5902.9843     -27.137432      34777.269      10.782067    
[...]
     18200   1287.6961     -5715.8331     -5460.3358      841.25326      41906.315      76.145109    
     18210   1287.4692     -5714.9696     -5459.5173      931.10595      41917.611      76.316163    
     18220   1277.6978     -5712.252      -5458.7384      1187.2349      41930.727      76.500932    
     18230   1270.1293     -5709.9855     -5457.9736      1443.5626      41946.633      76.707045    
     18240   1269.7479     -5709.1377     -5457.2015      1601.682       41965.893      76.941237    
     18250   1268.4006     -5708.0881     -5456.4193      1728.7694      41988.697      77.208523    
     18260   1271.3482     -5707.8812     -5455.6275      1531.8181      42015.126      77.511273    
     18270   1287.8791     -5710.3792     -5454.8455      1272.3123      42044.466      77.842159    
     18280   1306.2907     -5713.3048     -5454.118       956.35321      42075.74       78.190725    
     18290   1314.9752     -5714.4232     -5453.5133      868.29461      42107.94       78.546114    
     18300   1309.6872     -5712.9133     -5453.0526      966.11513      42140.539      78.902874    
     18310   1298.4297     -5710.3359     -5452.7089      1160.7988      42173.384      79.260419    
     18320   1293.1242     -5709.004      -5452.4297      1395.3488      42206.629      79.62157     
     18330   1291.1644     -5708.3756     -5452.1901      1605.1161      42240.871      79.994115    
     18340   1287.6857     -5707.4689     -5451.9736      1797.375       42277.273      80.392655    
     18350   1284.1756     -5706.564      -5451.7651      1833.0176      42317.202      80.833022    
     18360   1287.4272     -5706.9924     -5451.5484      1765.8355      42361.465      81.321181    
     18370   1299.6638     -5709.1853     -5451.3134      1562.99        42409.817      81.849462    
     18380   1317.7196     -5712.5369     -5451.0824      1179.1838      42460.953      82.400006    
     18390   1337.6507     -5716.3011     -5450.8921      677.26285      42512.793      82.949492    
     18400   1350.6082     -5718.7866     -5450.8066      318.0027       42563.313      83.478494    
     18410   1346.3963     -5718.0022     -5450.8579      128.03379      42611.089      83.976535    
     18420   1328.0367     -5714.5192     -5451.0177      26.148047      42655.349      84.440219    
     18430   1320.9024     -5713.3125     -5451.2265     -225.70416      42695.637      84.866742    
     18440   1327.3067     -5714.8184     -5451.4617     -542.15096      42731.455      85.251026    
     18450   1324.6316     -5714.5569     -5451.731      -685.1324       42762.236      85.587968    
     18460   1309.1117     -5711.7693     -5452.0228     -712.1782       42787.85       85.87777     
     18470   1285.264      -5707.303      -5452.2882     -593.98358      42808.687      86.126175    
     18480   1263.1217     -5703.063      -5452.4416     -412.06524      42825.85       86.345996    
     18490   1259.0205     -5702.231      -5452.4233     -479.17898      42840.432      86.549843    
     18500   1264.2231     -5703.0502     -5452.2102     -558.205        42852.165      86.73461     
     18510   1266.4874     -5703.0956     -5451.8063     -594.39401      42860.191      86.890693    
     18520   1267.7482     -5702.7554     -5451.216      -474.23632      42864.06       87.01254     
     18530   1270.1135     -5702.4474     -5450.4387     -322.10341      42864.222      87.103125    
     18540   1269.6786     -5701.3934     -5449.471      -220.65493      42861.299      87.165443    
     18550   1276.0465     -5701.5103     -5448.3243     -80.601452      42856.04       87.203004    
     18560   1295.9407     -5704.1594     -5447.0262     -167.5418       42849.804      87.226537    
     18570   1316.955      -5706.9727     -5445.6699     -420.56922      42844.083      87.25121     
     18580   1330.6266     -5708.3815     -5444.3661     -560.48307      42839.804      87.288743    
     18590   1338.7786     -5708.8374     -5443.2046     -619.94618      42837.076      87.342734    
     18600   1345.754      -5709.2417     -5442.2248     -626.54802      42835.025      87.407043    
     18610   1354.6264     -5710.2195     -5441.4422     -527.41309      42832.317      87.46873     
     18620   1349.3082     -5708.5789     -5440.8568     -148.72001      42828.003      87.516161    
     18630   1322.6343     -5702.8418     -5440.4122      288.36751      42822.288      87.548391    
     18640   1303.4015     -5698.6172     -5440.0037      429.97822      42816.092      87.571954    
     18650   1316.6995     -5700.8218     -5439.5697      202.56144      42809.988      87.59011     
     18660   1338.4673     -5704.6974     -5439.1263     -189.29029      42804.053      87.601199    
     18670   1345.5715     -5705.7034     -5438.7227     -507.95798      42797.966      87.600505    
     18680   1341.4746     -5704.5509     -5438.3831     -619.4791       42791.132      87.582838    
     18690   1336.1618     -5703.1948     -5438.0812     -523.45305      42783.584      87.551841    
     18700   1332.3381     -5702.1317     -5437.7767     -272.08182      42776.731      87.527747    
     18710   1329.4807     -5701.2444     -5437.4564     -7.7281624      42772.871      87.539617    
     18720   1333.8998     -5701.7736     -5437.1087      240.24331      42773.993      87.61017     
     18730   1351.7051     -5704.9402     -5436.7425      398.50143      42780.845      87.745447    
     18740   1373.4262     -5708.9132     -5436.4058      350.91214      42792.735      87.935959    
     18750   1378.192      -5709.6068     -5436.1538      537.42773      42808.389      88.168106    
     18760   1360.8493     -5706.0135     -5436.0016      845.6068       42827.479      88.438845    
     18770   1334.6229     -5700.6962     -5435.8879      1073.4005      42850.068      88.747884    
     18780   1314.5421     -5696.5386     -5435.7146      1072.7706      42875.743      89.08848     
     18790   1318.718      -5697.0641     -5435.4116      638.66215      42903.668      89.449632    
     18800   1343.2981     -5701.5073     -5434.9777     -19.547754      42932.83       89.8211      
     18810   1353.7607     -5703.0806     -5434.4751     -522.1206       42962.632      90.19946     
     18820   1334.8706     -5698.7981     -5433.9406     -641.59666      42993.276      90.588911    
     18830   1316.2654     -5694.4882     -5433.3223     -700.48096      43025.323      90.995558    
     18840   1319.3602     -5694.3274     -5432.5474     -947.26608      43058.843      91.419397    
     18850   1333.8801     -5696.2529     -5431.592      -1200.7224      43093.108      91.851241    
     18860   1350.1833     -5698.3938     -5430.4981     -1305.8186      43127.077      92.277543    
     18870   1361.5724     -5699.4803     -5429.3249     -1404.9375      43159.965      92.69064     
     18880   1368.8908     -5699.7437     -5428.1361     -1199.2357      43191.006      93.086607    
     18890   1370.8298     -5698.9856     -5426.9933     -869.27748      43220.638      93.473604    
     18900   1361.0963     -5695.9808     -5425.9198     -481.84107      43250.255      93.866825    
     18910   1358.8759     -5694.5149     -5424.8945     -376.44584      43281.214      94.275633    
     18920   1370.7017     -5695.8801     -5423.9133     -648.20551      43313.725      94.696536    
     18930   1377.6474     -5696.3445     -5422.9995     -850.55419      43346.452      95.114605    
     18940   1384.6775     -5696.9363     -5422.1964     -961.794        43378.133      95.517662    
     18950   1389.177      -5697.1586     -5421.526      -1106.6088      43408.525      95.905879    
     18960   1387.132      -5696.2178     -5420.9909     -1200.8198      43437.607      96.281686    
     18970   1376.7904     -5693.7389     -5420.564      -1100.0584      43465.042      96.641882    
     18980   1361.2052     -5690.2826     -5420.2        -865.15957      43490.658      96.983356    
     18990   1344.118      -5686.537      -5419.8447     -699.22189      43515.153      97.311675    
     19000   1333.1735     -5683.9592     -5419.4385     -660.05151      43539.188      97.632413    
     19010   1335.1777     -5683.864      -5418.9456     -529.12942      43562.732      97.946108    
     19020   1349.2324     -5686.0807     -5418.3736     -603.12832      43585.068      98.247872    
     19030   1365.4498     -5688.6929     -5417.7681     -679.63524      43605.022      98.52869     
     19040   1375.1154     -5690.0244     -5417.1818     -741.09031      43621.838      98.781887    
     19050   1363.9302     -5687.2555     -5416.6322     -568.62561      43635.522      99.00585     
     19060   1348.5133     -5683.6531     -5416.0887     -240.22382      43647.128      99.20948     
     19070   1342.3794     -5681.8425     -5415.4952     -89.965432      43658.475      99.41143     
     19080   1354.559      -5683.5886     -5414.8247     -178.60886      43670.863      99.626863    
     19090   1375.1208     -5686.9482     -5414.1046     -336.57204      43684.874      99.863482    
     19100   1382.8057     -5687.7576     -5413.3891     -252.0939       43701.012      100.12602    
     19110   1378.8064     -5686.2887     -5412.7138     -65.561125      43720.425      100.42302    
     19120   1373.3152     -5684.5496     -5412.0642      164.59008      43744.697      100.76744    
     19130   1367.8491     -5682.8049     -5411.4041      253.76895      43774.957      101.16961    
     19140   1371.6805     -5682.8745     -5410.7134      174.09222      43811.048      101.62862    
     19150   1384.0214     -5684.584      -5409.9743     -5.5167996      43851.505      102.1311     
     19160   1389.8166     -5684.9777     -5409.2181     -132.77668      43894.291      102.65706    
     19170   1378.5311     -5681.9894     -5408.4691     -106.28201      43937.983      103.1916     
     19180   1365.0717     -5678.5594     -5407.7097      15.477725      43982.465      103.73321    
     19190   1375.3917     -5679.8057     -5406.9082     -178.76494      44028.893      104.29709    
     19200   1398.1452     -5683.4736     -5406.0616     -518.17621      44077.701      104.89236    
     19210   1403.7558     -5683.7571     -5405.2318     -762.4773       44128.392      105.51585    
     19220   1395.8166     -5681.3921     -5404.4421     -1016.1425      44180.264      106.15883    
     19230   1393.6096     -5680.1766     -5403.6645     -1293.2187      44231.874      106.80153    
     19240   1400.8957     -5680.8373     -5402.8795     -1611.6981      44281.211      107.41722    
     19250   1410.3535     -5681.9396     -5402.1052     -1713.3828      44326.226      107.9813     
     19260   1412.7366     -5681.692      -5401.3848     -1703.5336      44366.048      108.48649    
     19270   1410.1421     -5680.519      -5400.7267     -1528.9744      44400.871      108.93926    
     19280   1413.5615     -5680.5919     -5400.1211     -1346.643       44431.703      109.35494    
     19290   1417.6678     -5680.842      -5399.5564     -1160.326       44459.523      109.74757    
     19300   1417.9331     -5680.3729     -5399.0347     -1055.8594      44484.431      110.11921    
     19310   1425.6655     -5681.4236     -5398.5511     -1140.5158      44506.043      110.46288    
     19320   1439.4657     -5683.7406     -5398.13       -1329.3324      44523.888      110.76957    
     19330   1437.3718     -5682.9906     -5397.7954     -1459.7871      44537.49       111.03179    
     19340   1419.1552     -5679.1194     -5397.5387     -1401.2457      44546.345      111.24259    
     19350   1400.4801     -5675.1738     -5397.2985     -1324.7064      44550.341      111.39913    
     19360   1388.541      -5672.5107     -5397.0043     -1285.3425      44549.902      111.50395    
     19370   1388.906      -5672.1899     -5396.6111     -1352.2658      44545.827      111.56486    
     19380   1396.0881     -5673.1146     -5396.1108     -1334.9794      44538.679      111.58784    
     19390   1392.1128     -5671.7267     -5395.5116     -1205.361       44529.242      111.58127    
     19400   1382.7577     -5669.1628     -5394.8039     -868.94577      44518.88       111.55899    
     19410   1390.4921     -5669.8616     -5393.968      -717.35292      44509.342      111.53928    
     19420   1409.0661     -5672.6023     -5393.0234     -646.02392      44501.35       111.53091    
     19430   1420.7394     -5673.9199     -5392.0249     -520.91889      44494.305      111.5316     
     19440   1431.087      -5674.9816     -5391.0334     -364.81955      44486.821      111.52785    
     19450   1444.1475     -5676.6478     -5390.1083     -131.07778      44477.257      111.49692    
     19460   1461.7901     -5679.3329     -5389.2928      31.702978      44465.128      111.43088    
     19470   1464.616      -5679.2402     -5388.6394      260.69656      44451.028      111.33699    
     19480   1450.2237     -5675.8909     -5388.1457      512.60054      44436.396      111.23407    
     19490   1441.2533     -5673.7233     -5387.758       608.69729      44423.009      111.14397    
     19500   1449.7125     -5675.0775     -5387.4338      563.43475      44412.412      111.08229    
     19510   1457.0506     -5676.2845     -5387.1848      499.19543      44405.532      111.05788    
     19520   1455.935      -5675.9041     -5387.0257      421.20774      44402.229      111.07049    
     19530   1450.8337     -5674.8014     -5386.9352      384.77828      44401.825      111.11667    
     19540   1440.9091     -5672.7762     -5386.8792      311.33759      44403.98       111.19706    
     19550   1433.7393     -5671.2935     -5386.819       233.85096      44408.8        111.31345    
     19560   1441.3172     -5672.7136     -5386.7356      98.053574      44416.374      111.46226    
     19570   1456.7347     -5675.6876     -5386.6506     -276.7066       44426.315      111.63482    
     19580   1462.768      -5676.8291     -5386.595      -569.36263      44437.194      111.81515    
     19590   1448.5005     -5673.9803     -5386.5771     -649.70208      44447.592      111.98887    
     19600   1427.9044     -5669.866      -5386.5493     -664.59165      44456.8        112.14884    
     19610   1424.3691     -5669.0702     -5386.455      -814.53859      44464.438      112.29323    
     19620   1429.2095     -5669.8506     -5386.2749     -845.45459      44469.813      112.41793    
     19630   1438.2038     -5671.3824     -5386.0222     -950.97182      44472.068      112.51241    
     19640   1451.501      -5673.7397     -5385.7412     -996.44276      44470.176      112.56099    
     19650   1450.7009     -5673.297      -5385.4572     -828.97855      44463.635      112.55551    
     19660   1434.9261     -5669.8722     -5385.1623     -504.8424       44453.119      112.50352    
     19670   1422.19       -5666.9875     -5384.8047     -107.97359      44440.716      112.43032    
     19680   1415.441      -5665.1733     -5384.3296      16.46012       44429.155      112.37109    
     19690   1420.1214     -5665.4934     -5383.721      -4.2818042      44419.912      112.34616    
     19700   1421.011      -5664.9298     -5382.9809     -61.254097      44413.007      112.35502    
     19710   1418.3697     -5663.5386     -5382.1137     -101.95771      44408.218      112.39045    
     19720   1425.0853     -5663.8876     -5381.1302     -203.82703      44405.025      112.44277    
     19730   1429.4688     -5663.6759     -5380.0488     -255.83477      44402.456      112.50126    
     19740   1427.8944     -5662.214      -5378.8993     -332.17617      44399.759      112.55987    
     19750   1427.572      -5660.9535     -5377.7028     -396.24631      44396.467      112.61545    
     19760   1430.2103     -5660.2573     -5376.4831     -450.54639      44392.339      112.66499    
     19770   1441.8306     -5661.3475     -5375.2677     -586.40248      44387.318      112.70392    
     19780  CHGNet v0.3.0 initialized with 412,525 parameters
CHGNet will run on cuda:0
CHGNet will run on cuda:0
 1458.7982     -5663.5543     -5374.1079     -701.72036      44381.59       112.72891    
     19790   1482.0343     -5667.1179     -5373.0611     -856.57069      44376.022      112.7459     
     19800   1508.1834     -5671.441      -5372.1958     -982.00029      44371.851      112.76845    
     19810   1513.584      -5671.8816     -5371.5648     -984.50215      44370.27       112.81261    
     19820   1497.2237     -5668.2169     -5371.1463     -797.00128      44372.294      112.8931     
     19830   1486.3371     -5665.7772     -5370.8666     -615.65286      44378.831      113.02319    
     19840   1482.6257     -5664.8265     -5370.6524     -623.20083      44390.252      113.20996    
     19850   1469.8612     -5662.1056     -5370.4641     -571.58702      44406.131      113.45102    
     19860   1451.1805     -5658.1934     -5370.2584     -450.40824      44426.624      113.7502     
     19870   1446.7735     -5657.0442     -5369.9836     -554.43968      44452.546      114.11712    
     19880   1448.765      -5657.0607     -5369.6049     -820.40502      44483.712      114.54712    
     19890   1437.588      -5654.3467     -5369.1086     -1071.0361      44518.641      115.01951    
     19900   1425.0769     -5651.2251     -5368.4694     -1226.3555      44555.499      115.50889    
     19910   1426.6552     -5650.7249     -5367.656      -1448.4966      44593.019      115.99848    
     19920   1430.6641     -5650.5238     -5366.6596     -1682.6756      44630.172      116.48015    
     19930   1420.0393     -5647.2576     -5365.5014     -1645.4707      44665.399      116.94113    
     19940   1414.0854     -5644.771      -5364.1962     -1621.734       44697.831      117.3754     
     19950   1433.3746     -5647.1448     -5362.7427     -1744.5083      44727.26       117.782      
     19960   1463.4696     -5651.5887     -5361.2154     -1935.8384      44753.423      118.15621    
     19970   1480.8534     -5653.5634     -5359.7408     -2016.4528      44775.456      118.48545    
     19980   1477.5084     -5651.5679     -5358.409      -1827.7287      44792.448      118.75637    
     19990   1474.1435     -5649.7145     -5357.2233     -1676.308       44804.395      118.96627    
     20000   1487.0504     -5651.2009     -5356.1488     -1653.0871      44811.835      119.11985    
Loop time of 5205.38 on 1 procs for 10000 steps with 1536 atoms

Performance: 0.083 ns/day, 289.188 hours/ns, 1.921 timesteps/s, 2.951 katom-step/s
101.0% CPU use with 1 MPI tasks x 1 OpenMP threads

MPI task timing breakdown:
Section |  min time  |  avg time  |  max time  |%varavg| %total
---------------------------------------------------------------
Pair    | 5081.6     | 5081.6     | 5081.6     |   0.0 | 97.62
Bond    | 0.041588   | 0.041588   | 0.041588   |   0.0 |  0.00
Neigh   | 2.9195     | 2.9195     | 2.9195     |   0.0 |  0.06
Comm    | 0.46799    | 0.46799    | 0.46799    |   0.0 |  0.01
Output  | 119.41     | 119.41     | 119.41     |   0.0 |  2.29
Modify  | 0.89271    | 0.89271    | 0.89271    |   0.0 |  0.02
Other   |            | 0.09216    |            |       |  0.00

Nlocal:           1536 ave        1536 max        1536 min
Histogram: 1 0 0 0 0 0 0 0 0 0
Nghost:           2791 ave        2791 max        2791 min
Histogram: 1 0 0 0 0 0 0 0 0 0
Neighs:              0 ave           0 max           0 min
Histogram: 1 0 0 0 0 0 0 0 0 0
FullNghs:        55118 ave       55118 max       55118 min
Histogram: 1 0 0 0 0 0 0 0 0 0

Total # of neighbors = 55118
Ave neighs/atom = 35.884115
Ave special neighs/atom = 0
Neighbor list builds = 987
Dangerous builds = 906
System init for write_data ...
System init for write_restart ...
Total wall time: 3:11:47
