LAMMPS (29 Sep 2021 - Update 3)
OMP_NUM_THREADS environment is not set. Defaulting to 1 thread. (src/comm.cpp:98)
  using 1 OpenMP thread(s) per MPI task
Reading data file ...
  orthogonal box = (0.0000000 0.0000000 0.0000000) to (18.492711 18.368364 83.044081)
  2 by 1 by 8 MPI processor grid
  reading atoms ...
  864 atoms
Finding 1-2 1-3 1-4 neighbors ...
  special bond factors lj:    0        0        0       
  special bond factors coul:  0        0        0       
     0 = max # of 1-2 neighbors
     0 = max # of 1-3 neighbors
     0 = max # of 1-4 neighbors
     1 = max # of special neighbors
  special bonds CPU = 0.001 seconds
  read_data CPU = 0.009 seconds
Neighbor list info ...
  update every 1 steps, delay 10 steps, check yes
  max neighbors/atom: 2000, page size: 100000
  master list distance cutoff = 6.22
  ghost atom cutoff = 6.22
  binsize = 3.11, bins = 6 6 27
  1 neighbor lists, perpetual/occasional/extra = 1 0 0
  (1) pair quip, perpetual
      attributes: full, newton on
      pair build: full/bin
      stencil: full/bin/3d
      bin: standard
Setting up Verlet run ...
  Unit style    : metal
  Current step  : 0
  Time step     : 0.001
Per MPI rank memory allocation (min/avg/max) = 8.888 | 8.895 | 8.900 Mbytes
Step Temp PotEng TotEng Press Volume c_msd[4] 
       0            0   -7973.6696   -7973.6696   -2874.2394    28208.484            0 
      10    41.278351   -7978.2784   -7973.6737   -2959.4518    28208.484 0.00023887099 
      20    117.01377   -7986.7312   -7973.6782   -2971.9336    28208.484 0.0029537371 
      30    174.81925   -7993.1785   -7973.6771   -2824.2466    28208.484  0.010160551 
      40    218.44962    -7998.045   -7973.6766   -2720.6333    28208.484  0.020641735 
      50    256.00476   -8002.2349   -7973.6771   -2700.3711    28208.484  0.032489043 
      60    281.23595   -8005.0509   -7973.6786   -2720.3164    28208.484  0.045481137 
      70    279.84796   -8004.8936   -7973.6762   -2497.2427    28208.484  0.060875411 
      80    275.57271   -8004.4166   -7973.6761   -2346.6282    28208.484  0.078472831 
      90    275.14134   -8004.3684    -7973.676   -2375.5075    28208.484  0.097756432 
     100    277.97329   -8004.6843   -7973.6759   -2450.2098    28208.484   0.11838341 
     110    284.32121   -8005.3929   -7973.6764   -2585.3887    28208.484    0.1397563 
     120    288.42818   -8005.8514   -7973.6768   -2555.7238    28208.484   0.16133553 
     130    287.27066   -8005.7216   -7973.6761   -2379.8786    28208.484   0.18293983 
     140    286.58177   -8005.6454   -7973.6767   -2199.4073    28208.484   0.20440576 
     150    283.09159    -8005.256   -7973.6767   -2058.8623    28208.484   0.22545748 
     160    281.87093     -8005.12   -7973.6769   -2002.9487    28208.484   0.24504756 
     170    281.00839    -8005.024   -7973.6771   -2057.3307    28208.484   0.26222423 
     180    282.68046     -8005.21   -7973.6765   -2118.7926    28208.484   0.27648184 
     190    291.53832   -8006.1995   -7973.6779   -2237.0667    28208.484   0.28923786 
     200    293.64302   -8006.4325   -7973.6762   -2373.3356    28208.484   0.30372277 
     210    298.64228   -8006.9936   -7973.6796   -2435.1957    28208.484   0.32052492 
     220    292.65421   -8006.3221   -7973.6761   -2273.8456    28208.484   0.33666335 
     230    296.18967   -8006.7198   -7973.6794   -2277.4624    28208.484   0.34931106 
     240    282.07352   -8005.1401   -7973.6743   -2198.7147    28208.484   0.36070053 
     250    293.47873    -8006.417    -7973.679   -2346.9356    28208.484   0.37209929 
     260    294.86866   -8006.5718   -7973.6788   -2406.0825    28208.484   0.38456478 
     270    292.66954   -8006.3399   -7973.6921   -2371.6679    28208.484   0.39632792 
     280    288.22645   -8005.8424   -7973.6903   -2343.9303    28208.484   0.40740341 
     290    280.03766   -8004.9272   -7973.6886   -2399.6918    28208.484   0.41930862 
     300    280.42672   -8004.9707   -7973.6886   -2493.7264    28208.484   0.43203295 
     310    287.66524   -8005.7795     -7973.69   -2540.7382    28208.484   0.44617059 
     320    287.59248   -8005.7709   -7973.6895   -2479.6365    28208.484   0.46153129 
     330    287.30367   -8005.7384   -7973.6892   -2430.7941    28208.484   0.47558463 
     340      291.107   -8006.1632   -7973.6897   -2433.3574    28208.484   0.48761679 
     350    290.07985   -8006.0486   -7973.6898   -2407.8749    28208.484   0.49931209 
     360    283.46216   -8005.3096    -7973.689    -2324.857    28208.484   0.51138392 
     370    283.31611   -8005.2933    -7973.689   -2223.9029    28208.484   0.52363749 
     380    293.81781   -8006.4657   -7973.6899   -2201.7975    28208.484   0.53571675 
     390    300.79692   -8007.2454   -7973.6911   -2203.1603    28208.484   0.54763687 
     400    296.63974     -8006.78   -7973.6894   -2207.2978    28208.484   0.55946952 
     410     295.9675   -8006.7055   -7973.6899    -2389.454    28208.484   0.57119336 
     420    296.34311   -8006.7466   -7973.6891   -2528.2941    28208.484   0.58115249 
     430    302.08464   -8007.3879   -7973.6899   -2546.6384    28208.484   0.58802692 
     440    300.89773   -8007.2566    -7973.691   -2408.1467    28208.484   0.59313659 
     450    295.75798   -8006.6815   -7973.6893   -2201.4544    28208.484   0.59704421 
     460    298.71554   -8007.0127   -7973.6905   -2097.6901    28208.484   0.60034051 
     470    293.57038   -8006.4367   -7973.6885   -1853.8963    28208.484   0.60455383 
     480    299.68957   -8007.1205   -7973.6897   -1687.1392    28208.484   0.60898733 
     490    304.28303    -8007.634   -7973.6908   -1569.5251    28208.484   0.61372446 
     500    297.76534   -8006.9049   -7973.6887   -1520.9163    28208.484   0.61909997 
     510     298.0343    -8006.936   -7973.6898   -1578.3555    28208.484     0.624484 
     520    298.51386   -8006.9892   -7973.6895   -1617.2528    28208.484   0.63055005 
     530    299.67651    -8007.119   -7973.6896   -1583.6011    28208.484   0.63765456 
     540    301.93935   -8007.3714   -7973.6896    -1486.536    28208.484   0.64551302 
     550    304.04909   -8007.6074   -7973.6903   -1392.2763    28208.484    0.6536082 
     560    304.32541   -8007.6381   -7973.6901   -1287.1967    28208.484   0.66116979 
     570    303.65289   -8007.5627   -7973.6898   -1155.3607    28208.484   0.66831766 
     580    306.61685   -8007.8931   -7973.6895   -1197.3354    28208.484   0.67540713 
     590    314.13334   -8008.7329   -7973.6909   -1349.2051    28208.484   0.68183493 
     600    314.58012   -8008.7816   -7973.6897   -1383.1623    28208.484   0.68848067 
     610    313.36382   -8008.6461   -7973.6899   -1339.6031    28208.484   0.69624527 
     620     312.9428   -8008.5985   -7973.6893   -1300.0364    28208.484   0.70606469 
     630    317.72028    -8009.132   -7973.6899   -1341.7477    28208.484   0.71807814 
     640    322.57063   -8009.6733   -7973.6901   -1410.5145    28208.484   0.73069429 
     650    323.60168   -8009.7886   -7973.6903   -1540.2113    28208.484   0.74223138 
     660    318.39172   -8009.2068   -7973.6897   -1568.6259    28208.484   0.75263353 
     670    316.27474   -8008.9702   -7973.6892   -1586.0839    28208.484    0.7619451 
     680    320.95534   -8009.4935   -7973.6904   -1558.4885    28208.484   0.77150239 
     690    319.85933   -8009.3708     -7973.69    -1459.468    28208.484   0.78296875 
     700    315.81982   -8008.9199   -7973.6897   -1330.2989    28208.484   0.79605918 
     710    316.18394   -8008.9601   -7973.6893   -1285.6029    28208.484   0.80930055 
     720    321.99795   -8009.6098   -7973.6904   -1374.2337    28208.484   0.82124899 
     730    320.60154   -8009.4538   -7973.6902   -1440.5044    28208.484   0.83277534 
     740    316.58517   -8009.0043   -7973.6888   -1452.0725    28208.484    0.8439361 
     750    321.27163   -8009.5293    -7973.691   -1655.1798    28208.484     0.854338 
     760    314.38368   -8008.7598   -7973.6899   -1838.5562    28208.484   0.86584884 
     770     305.9368   -8007.8166   -7973.6889   -1999.9526    28208.484   0.87941766 
     780    305.71483   -8007.7927   -7973.6897   -2140.7584    28208.484   0.89394007 
     790    305.84031   -8007.8065   -7973.6896   -2209.2571    28208.484   0.90782838 
     800    306.48205   -8007.8784   -7973.6899   -2275.1918    28208.484   0.92026204 
     810    304.33355   -8007.6388   -7973.6899   -2343.4421    28208.484   0.93178116 
     820    297.82924   -8006.9125   -7973.6892   -2314.2529    28208.484    0.9431626 
     830    296.11711   -8006.7216   -7973.6893   -2340.1192    28208.484   0.95457823 
     840    299.50491   -8007.0998   -7973.6896   -2406.4366    28208.484   0.96506277 
     850    304.52466   -8007.6597   -7973.6895   -2460.7845    28208.484   0.97329313 
     860     310.8399   -8008.3649   -7973.6902   -2449.0401    28208.484   0.97916609 
     870    310.67413   -8008.3459   -7973.6897   -2327.6881    28208.484   0.98350092 
     880    309.42712   -8008.2065   -7973.6894   -2225.4629    28208.484   0.98651824 
     890    311.26126   -8008.4116   -7973.6899    -2248.854    28208.484   0.98981853 
     900    313.26109   -8008.6341   -7973.6893   -2271.1415    28208.484     0.995508 
     910    320.18937   -8009.4082   -7973.6906   -2399.0494    28208.484    1.0049166 
     920    319.06768   -8009.2826   -7973.6901    -2517.896    28208.484    1.0179539 
     930    311.48412   -8008.4358   -7973.6893   -2630.8665    28208.484    1.0322955 
     940    307.33364   -8007.9728   -7973.6893   -2692.4224    28208.484    1.0452919 
     950    306.79072   -8007.9125   -7973.6895   -2690.0291    28208.484    1.0559933 
     960    307.40028   -8007.9805   -7973.6895    -2685.778    28208.484    1.0648912 
     970    308.12458   -8008.0613   -7973.6895   -2650.3957    28208.484    1.0729687 
     980    308.40186   -8008.0924   -7973.6897   -2580.8757    28208.484    1.0808973 
     990    307.35297   -8007.9752   -7973.6895    -2481.356    28208.484    1.0887898 
    1000    307.21435     -8007.96   -7973.6898   -2353.6684    28208.484    1.0961224 
    1010    306.76152   -8007.9091   -7973.6894   -2248.7956    28208.484    1.1027335 
    1020    309.26646    -8008.189   -7973.6898   -2286.0041    28208.484    1.1099454 
    1030    310.25342   -8008.2989   -7973.6897   -2305.1256    28208.484    1.1183111 
    1040    307.62812   -8008.0062   -7973.6898    -2294.831    28208.484    1.1271276 
    1050    300.85261   -8007.2498   -7973.6892   -2274.7356    28208.484    1.1353455 
    1060    298.03491   -8006.9356   -7973.6894   -2274.0022    28208.484    1.1412949 
    1070     298.1827   -8006.9525   -7973.6898   -2240.2755    28208.484    1.1449307 
    1080    298.32389   -8006.9674   -7973.6889   -2186.0158    28208.484    1.1478628 
    1090    304.12167   -8007.6156   -7973.6903   -2224.5843    28208.484    1.1507358 
    1100    303.21342   -8007.5135   -7973.6896   -2273.1413    28208.484    1.1542182 
    1110    302.55349   -8007.4391   -7973.6888   -2350.8777    28208.484    1.1583885 
    1120    311.89752   -8008.4827   -7973.6901   -2437.4889    28208.484     1.162828 
    1130    317.78566     -8009.14   -7973.6905   -2446.8483    28208.484     1.167408 
    1140    311.56568   -8008.4454   -7973.6898   -2410.0182    28208.484    1.1717043 
    1150    303.07264   -8007.4971   -7973.6889   -2380.3816    28208.484    1.1751291 
    1160    303.70308   -8007.5677   -7973.6892    -2470.872    28208.484    1.1775178 
    1170    310.51899   -8008.3284   -7973.6895   -2617.7569    28208.484    1.1788381 
    1180    316.91994   -8009.0426   -7973.6898   -2682.3818    28208.484    1.1790698 
    1190    320.34041   -8009.4241   -7973.6896   -2666.8258    28208.484    1.1789053 
    1200    321.06279   -8009.5055   -7973.6905   -2603.0061    28208.484    1.1796194 
    1210    314.26027   -8008.7456   -7973.6894   -2485.4053    28208.484    1.1821764 
    1220    309.32884    -8008.196   -7973.6899    -2464.998    28208.484    1.1865082 
    1230    306.19371   -8007.8458   -7973.6895   -2530.8384    28208.484    1.1911967 
    1240    306.63151   -8007.8948   -7973.6896   -2616.4378    28208.484    1.1944331 
    1250    309.06475   -8008.1663   -7973.6897   -2607.8093    28208.484    1.1957913 
    1260    312.48643   -8008.5482   -7973.6898    -2462.899    28208.484    1.1957707 
    1270    312.94072   -8008.5995   -7973.6905   -2234.5909    28208.484    1.1949586 
    1280    309.44145   -8008.2076   -7973.6889   -2027.1289    28208.484    1.1941489 
    1290    314.87458   -8008.8149   -7973.6902   -1974.2087    28208.484    1.1943163 
    1300    319.36818   -8009.3159   -7973.6899   -1982.4404    28208.484     1.195877 
    1310    321.84143   -8009.5922   -7973.6903   -1943.5386    28208.484    1.1987306 
    1320    321.73486     -8009.58     -7973.69    -1845.706    28208.484    1.2036004 
    1330    320.53672   -8009.4466   -7973.6902   -1700.8294    28208.484    1.2106875 
    1340    314.45984   -8008.7682   -7973.6898   -1509.1942    28208.484    1.2186301 
    1350    308.88407   -8008.1459   -7973.6894   -1443.5528    28208.484    1.2257175 
    1360    308.85021   -8008.1421   -7973.6894   -1546.3935    28208.484    1.2310073 
    1370    314.64585   -8008.7893   -7973.6901   -1721.3694    28208.484     1.234708 
    1380    316.29012   -8008.9734   -7973.6908   -1817.9195    28208.484    1.2377498 
    1390    307.32275   -8007.9718   -7973.6895   -1803.5548    28208.484    1.2409119 
    1400    301.76471   -8007.3515   -7973.6892   -1859.1426    28208.484    1.2443267 
    1410    303.86241   -8007.5861   -7973.6897   -1936.9087    28208.484    1.2481193 
    1420    306.88628   -8007.9231   -7973.6894   -1917.1497    28208.484    1.2526965 
    1430    311.21927   -8008.4068   -7973.6898   -1887.7633    28208.484    1.2583105 
    1440    313.42496   -8008.6528   -7973.6898   -1851.4527    28208.484    1.2642026 
    1450     313.3569   -8008.6451   -7973.6897   -1798.7574    28208.484     1.269636 
    1460    313.21275   -8008.6295   -7973.6901   -1825.1156    28208.484    1.2754342 
    1470    309.64761   -8008.2313   -7973.6896   -1804.0626    28208.484    1.2823313 
    1480    309.40126   -8008.2029   -7973.6887   -1783.0935    28208.484    1.2890305 
    1490    320.42565   -8009.4341   -7973.6901   -1893.3186    28208.484    1.2938055 
    1500    328.10175   -8010.2905   -7973.6903   -1974.4184    28208.484    1.2976917 
    1510    327.81197   -8010.2577   -7973.6898    -1937.058    28208.484    1.3022885 
    1520     324.2243   -8009.8576   -7973.6899   -1828.5619    28208.484    1.3070588 
    1530    318.99753   -8009.2739   -7973.6893   -1744.3097    28208.484    1.3111416 
    1540    315.99968   -8008.9401   -7973.6899   -1679.5222    28208.484    1.3147163 
    1550    311.82694   -8008.4737   -7973.6889   -1676.3191    28208.484     1.318865 
    1560    315.99733   -8008.9396   -7973.6896   -1782.1266    28208.484    1.3245612 
    1570    321.70035   -8009.5765   -7973.6904   -1943.6277    28208.484    1.3315419 
    1580    318.91113   -8009.2648   -7973.6898   -1980.5418    28208.484     1.338424 
    1590    316.40503   -8008.9842   -7973.6888   -1871.1257    28208.484    1.3448929 
    1600    323.69059   -8009.7984   -7973.6903   -1863.2593    28208.484    1.3517889 
    1610    324.55521    -8009.895   -7973.6903   -1926.3043    28208.484    1.3589892 
    1620    317.22283   -8009.0757    -7973.689    -2033.451    28208.484    1.3640281 
    1630    315.56944   -8008.8917   -7973.6895   -2189.5743    28208.484    1.3650114 
    1640          316   -8008.9396   -7973.6894   -2246.5115    28208.484     1.363698 
    1650     317.3618   -8009.0917   -7973.6895   -2167.3771    28208.484    1.3628757 
    1660    317.92845   -8009.1553   -7973.6899   -2101.0814    28208.484    1.3639966 
    1670    314.61233   -8008.7852   -7973.6897   -2010.9785    28208.484    1.3669961 
    1680    312.18324   -8008.5133   -7973.6888   -2055.2147    28208.484     1.371293 
    1690    317.45918   -8009.1028   -7973.6897    -2191.224    28208.484    1.3761955 
    1700    321.08797   -8009.5076   -7973.6898   -2266.1824    28208.484    1.3813209 
    1710    322.36089   -8009.6492   -7973.6893   -2262.0514    28208.484    1.3861808 
    1720    325.18317   -8009.9643   -7973.6896   -2258.3202    28208.484    1.3904451 
    1730    326.15411   -8010.0728   -7973.6898    -2317.316    28208.484     1.394947 
    1740     323.8725   -8009.8181   -7973.6896   -2287.8062    28208.484    1.4007384 
    1750    320.41839   -8009.4325   -7973.6894   -2200.4994    28208.484    1.4075406 
    1760     319.2517   -8009.3028   -7973.6898   -2148.7833    28208.484     1.414045 
    1770    317.70647   -8009.1306     -7973.69    -2060.265    28208.484    1.4199919 
    1780    313.91842   -8008.7076   -7973.6895   -1900.1987    28208.484    1.4259827 
    1790    313.00692   -8008.6058   -7973.6894   -1752.6987    28208.484    1.4322179 
    1800     316.3606   -8008.9805     -7973.69   -1656.4741    28208.484    1.4376798 
    1810    317.06323    -8009.059   -7973.6901   -1611.9912    28208.484    1.4414287 
    1820    314.75826    -8008.801   -7973.6892    -1594.078    28208.484    1.4434919 
    1830    319.39788   -8009.3191   -7973.6898   -1580.2478    28208.484    1.4448335 
    1840    326.94741   -8010.1618   -7973.6903   -1586.0007    28208.484    1.4478206 
    1850     328.2751   -8010.3099   -7973.6903   -1510.9657    28208.484    1.4534245 
    1860    325.54844   -8010.0044    -7973.689   -1434.8489    28208.484    1.4597334 
    1870    330.22766   -8010.5276   -7973.6902   -1485.8246    28208.484    1.4649668 
    1880    331.47708   -8010.6665   -7973.6897   -1548.2944    28208.484    1.4702024 
    1890    330.21474   -8010.5256   -7973.6896   -1516.0861    28208.484    1.4764703 
    1900    331.58833   -8010.6782    -7973.689   -1442.8287    28208.484    1.4834549 
    1910    337.92691   -8011.3872    -7973.691   -1475.0881    28208.484    1.4904186 
    1920     332.3277   -8010.7614   -7973.6897   -1417.3686    28208.484    1.4973123 
    1930    326.40875   -8010.1005   -7973.6891    -1294.946    28208.484    1.5028962 
    1940    327.61985   -8010.2367   -7973.6902   -1344.4187    28208.484    1.5071937 
    1950    326.33555   -8010.0933   -7973.6901   -1454.2005    28208.484    1.5117741 
    1960    320.98412   -8009.4961   -7973.6898    -1539.947    28208.484    1.5179832 
    1970    316.38994    -8008.983   -7973.6892   -1494.5471    28208.484    1.5266599 
    1980    318.66568   -8009.2379   -7973.6903    -1430.619    28208.484     1.537506 
    1990    319.09324   -8009.2848   -7973.6895   -1383.3475    28208.484     1.548395 
    2000    324.20331   -8009.8559   -7973.6905   -1553.3118    28208.484     1.556546 
Loop time of 1564.14 on 16 procs for 2000 steps with 864 atoms

Performance: 0.110 ns/day, 217.242 hours/ns, 1.279 timesteps/s
98.1% CPU use with 16 MPI tasks x 1 OpenMP threads

MPI task timing breakdown:
Section |  min time  |  avg time  |  max time  |%varavg| %total
---------------------------------------------------------------
Pair    | 1207.8     | 1409.2     | 1542.1     | 277.5 | 90.09
Bond    | 0.00014877 | 0.00049014 | 0.0013363  |   0.0 |  0.00
Neigh   | 0.020612   | 0.024341   | 0.02851    |   1.7 |  0.00
Comm    | 21.746     | 150.5      | 355.11     | 837.4 |  9.62
Output  | 0.16615    | 4.3308     | 12.483     | 194.3 |  0.28
Modify  | 0.010144   | 0.01159    | 0.016784   |   1.5 |  0.00
Other   |            | 0.07129    |            |       |  0.00

Nlocal:        54.0000 ave          63 max          48 min
Histogram: 5 0 1 2 2 1 1 2 0 2
Nghost:        409.688 ave         449 max         386 min
Histogram: 3 3 1 3 2 1 1 0 0 2
Neighs:         0.00000 ave           0 max           0 min
Histogram: 16 0 0 0 0 0 0 0 0 0
FullNghs:      1604.62 ave        2106 max        1301 min
Histogram: 5 0 2 2 2 0 2 1 1 1

Total # of neighbors = 25674
Ave neighs/atom = 29.715278
Ave special neighs/atom = 0.0000000
Neighbor list builds = 199
Dangerous builds = 198
Setting up Verlet run ...
  Unit style    : metal
  Current step  : 2000
  Time step     : 0.001
Per MPI rank memory allocation (min/avg/max) = 8.893 | 8.897 | 8.900 Mbytes
Step Temp PotEng TotEng Press Volume c_msd[4] 
    2000        412.5   -8009.8559   -7963.8409   -1180.3545    28208.484     1.556546 
    2010    401.62927   -8008.6422   -7963.8399   -1161.7964     28205.65    1.5555343 
    2020    386.87684   -8006.9774   -7963.8207   -1120.8472    28197.205    1.5528788 
    2030    379.31332   -8006.0671   -7963.7541    -921.5479    28183.415    1.5493499 
    2040    377.26901   -8005.7044   -7963.6195   -606.52408    28165.225    1.5469636 
    2050    377.56115    -8005.524   -7963.4065   -348.90273    28144.078    1.5478185 
    2060    379.14457   -8005.4086   -7963.1144   -153.39864    28121.227    1.5525197 
    2070    376.77062   -8004.7796   -7962.7503   -72.425842    28097.596    1.5595589 
    2080    379.86029   -8004.7071   -7962.3331   -219.06633    28073.526    1.5664447 
    2090    380.15257   -8004.2982   -7961.8916   -417.88317    28048.394    1.5727034 
    2100    372.78054   -8003.0485   -7961.4643    -423.6072    28021.361    1.5793365 
    2110    369.24394   -8002.2557    -7961.066   -269.85621    27992.396    1.5862302 
    2120    369.91716   -8001.9603   -7960.6955   -99.624088    27962.188    1.5932101 
    2130    373.86032   -8002.0567   -7960.3521   -58.677414    27931.476    1.6007989 
    2140    374.57074   -8001.8112   -7960.0273   -83.724581    27900.522    1.6090489 
    2150    382.33399   -8002.3612   -7959.7113   -181.12637    27869.204    1.6164146 
    2160    395.16563   -8003.4769   -7959.3956   -233.25783    27837.122    1.6219598 
    2170    403.99156   -8004.1561   -7959.0902   -232.55807    27804.047    1.6269796 
    2180    406.83426   -8004.1872   -7958.8042   -203.47916    27769.998    1.6336061 
    2190    401.47909   -8003.3182   -7958.5326   -11.254393    27735.223    1.6433363 
    2200    394.08546   -8002.2169   -7958.2561    161.35409    27700.547    1.6555869 
    2210    395.14991   -8002.0405    -7957.961    145.22915     27666.71    1.6681788 
    2220    396.12508   -8001.8314    -7957.643    116.79067    27633.745    1.6791403 
    2230    401.13188   -8002.0568     -7957.31    171.20402    27601.559    1.6877163 
    2240    403.78954   -8002.0104   -7956.9671    360.72924    27570.421    1.6957286 
    2250    403.16757    -8001.599    -7956.625    613.66429    27541.173    1.7055305 
    2260    399.03341   -8000.7987   -7956.2859    847.94047    27514.951    1.7179091 
    2270    394.71353   -7999.9767   -7955.9458    1002.3189     27492.78    1.7325824 
    2280    398.50501   -8000.0522   -7955.5984    1023.2037    27475.303    1.7488783 
    2290    406.42028   -8000.5816   -7955.2448    1020.5955    27462.632    1.7658504 
    2300    405.62828   -8000.1474    -7954.899    1005.4546    27454.716    1.7818007 
    2310    403.56755   -7999.5848   -7954.5662    952.52343    27451.428    1.7941536 
    2320    413.26595   -8000.3425    -7954.242    870.00296    27452.515    1.8019617 
    2330     419.0183   -8000.6776   -7953.9355    636.79519    27457.523    1.8068093 
    2340    417.06637   -8000.1856   -7953.6612    405.10784    27465.449    1.8097085 
    2350    413.07364    -7999.494    -7953.415    273.00131    27475.246    1.8106091 
    2360    412.82872   -7999.2376   -7953.1859    196.70477    27486.272    1.8100623 
    2370    415.70608   -7999.3411   -7952.9685    171.26244    27498.188     1.808996 
    2380    415.53049   -7999.1177   -7952.7647     197.2395    27510.868      1.80781 
    2390    413.14935   -7998.6628   -7952.5753    243.35823    27524.425    1.8059276 
    2400    413.76253   -7998.5515   -7952.3957    228.97983    27539.038    1.8026629 
    2410    414.97041   -7998.5116    -7952.221    186.69046     27554.66    1.7990624 
    2420    417.99666   -7998.6829   -7952.0547    129.78105    27571.077    1.7962744 
    2430    415.94541   -7998.2969   -7951.8976    105.49607    27588.077    1.7935854 
    2440    420.59931   -7998.6701   -7951.7516   -120.94053    27605.426    1.7890868 
    2450    426.18356   -7999.1612   -7951.6198    -297.2031    27622.206    1.7835186 
    2460    426.17373   -7999.0572   -7951.5169   -333.35911    27637.633    1.7791162 
    2470    426.22828   -7998.9923   -7951.4459   -407.67956    27651.462    1.7768485 
    2480    426.94946   -7999.0339   -7951.4071   -495.12708    27663.379    1.7767104 
    2490    422.71716   -7998.5528   -7951.3981   -568.52136    27672.986    1.7777509 
    2500    423.20141   -7998.6239   -7951.4152    -673.6329    27679.924    1.7784857 
    2510    431.71209   -7999.6211    -7951.463   -746.91242    27683.747    1.7784746 
    2520    433.28783   -7999.8925   -7951.5586   -596.06428    27684.197    1.7786915 
    2530    423.94826   -7998.9929   -7951.7008   -302.26108    27681.961    1.7797253 
    2540    424.37068   -7999.2145   -7951.8753   -280.93216    27678.208    1.7811768 
    2550    432.77758   -8000.3658   -7952.0888   -410.46747    27673.096    1.7833054 
    2560    433.36217   -8000.6991   -7952.3569   -437.47777    27666.129    1.7869269 
    2570    429.66597    -8000.608   -7952.6781   -343.93042    27657.177    1.7913905 
    2580    422.03389   -8000.1092   -7953.0307   -157.67226    27646.683    1.7951135 
    2590    418.73369   -8000.1072   -7953.3968   -11.944954    27635.466    1.7973145 
    2600    406.84615   -7999.1344   -7953.7501    108.73234    27624.201    1.7992709 
    2610    392.50101   -7997.8368   -7954.0527     154.2568    27613.434     1.801957 
    2620    392.50911   -7998.0751   -7954.2901   -75.886977    27603.293    1.8051361 
    2630    394.25273   -7998.4469   -7954.4674   -318.14722    27592.847    1.8093526 
    2640    393.33625   -7998.4696   -7954.5923   -512.51492     27580.96    1.8149928 
    2650    394.89964   -7998.7224   -7954.6707   -703.29389     27566.72    1.8216485 
    2660    396.63556   -7998.9557   -7954.7104   -751.08996    27549.335    1.8291676 
    2670    397.99374   -7999.1125   -7954.7157   -663.36154    27528.582    1.8375823 
    2680    402.73853   -7999.6159   -7954.6898   -484.84749    27504.871    1.8463329 
    2690    405.73935   -7999.8993   -7954.6385   -338.46093    27478.999     1.854701 
    2700    409.83825   -8000.2912   -7954.5731     -390.969    27451.574    1.8622602 
    2710    410.78289   -8000.3262   -7954.5028   -398.18585    27422.508    1.8694752 
    2720    405.42582   -7999.6537   -7954.4278   -401.56273    27391.764    1.8773301 
    2730    405.24536   -7999.5491   -7954.3434   -448.81755    27359.321     1.886317 
    2740    405.35086     -7999.46   -7954.2425    -355.4725    27325.073    1.8970753 
    2750    403.94786   -7999.1819   -7954.1209   -182.47194    27289.443    1.9096387 
    2760    407.70804   -7999.4566   -7953.9761   -93.644858    27253.168    1.9233736 
    2770    407.77939   -7999.2971   -7953.8087   -15.917594    27216.716    1.9385545 
    2780    408.16717   -7999.1519   -7953.6203    90.113974    27180.468    1.9550114 
    2790    410.25737   -7999.1731   -7953.4083    203.94222    27144.906    1.9713854 
    2800    414.64493    -7999.436   -7953.1818    285.23637    27110.521     1.986608 
    2810    412.41571   -7998.9558   -7952.9502     410.4187    27077.707     2.000998 
    2820     409.4689   -7998.3896   -7952.7127    569.71865    27047.003    2.0145578 
    2830    413.08037   -7998.5455   -7952.4657     582.5249    27019.013    2.0270548 
    2840    412.76936    -7998.257   -7952.2119    649.09861    26993.867    2.0384649 
    2850     414.9665   -7998.2449   -7951.9548    773.55869    26971.831    2.0481662 
    2860    428.98209   -7999.5564   -7951.7028    779.99723    26953.339    2.0558196 
    2870    437.48306   -8000.2841   -7951.4822    737.83717    26938.421    2.0620467 
    2880    437.77057   -8000.1531   -7951.3192    738.97625    26926.898    2.0676956 
    2890     438.7421   -8000.1595   -7951.2171    718.93732    26918.708     2.072529 
    2900    440.47635   -8000.3108    -7951.175    705.05529    26913.746    2.0757212 
    2910    435.85263   -7999.8147   -7951.1947    717.64651    26911.939    2.0770327 
    2920    428.13946   -7999.0293   -7951.2697    679.19257    26913.281    2.0770934 
    2930    424.29175   -7998.7213   -7951.3909    671.74346    26917.626    2.0760133 
    2940    425.91918   -7999.0684   -7951.5565    709.09272    26924.903    2.0727728 
    2950    429.02164   -7999.6393   -7951.7813    835.99488      26935.3     2.068205 
    2960    419.48009    -7998.868   -7952.0744    1079.9106    26949.384     2.064691 
    2970    404.50256   -7997.5417   -7952.4188     1333.186    26968.156    2.0617432 
    2980    404.76899    -7997.953   -7952.8004    1317.7475    26992.584    2.0573817 
    2990    405.95717   -7998.5055   -7953.2203    1144.6148    27022.632    2.0520357 
    3000    402.33071   -7998.5522   -7953.6716    868.90449    27057.521    2.0466831 
    3010     400.6263    -7998.826   -7954.1355    539.70219    27095.995     2.041764 
    3020    400.79727   -7999.3003   -7954.5907    322.50705    27136.628    2.0370636 
    3030    402.45991   -7999.9129   -7955.0179    210.35228     27178.39    2.0320333 
    3040    406.93553    -8000.798   -7955.4037    181.70822    27220.751    2.0261676 
    3050    411.94546   -8001.6951   -7955.7419    80.748436    27263.457    2.0199636 
    3060    412.88104   -8002.0863   -7956.0288   -33.738606    27306.061    2.0151449 
    3070    413.38648   -8002.3759    -7956.262   -191.21379    27348.004    2.0127047 
    3080    414.36195   -8002.6678   -7956.4451   -379.60443    27388.545    2.0125379 
    3090    407.25147   -8002.0138   -7956.5843   -456.19311    27426.878    2.0137641 
    3100    394.66244    -8000.699   -7956.6738   -417.80216    27462.649     2.014405 
    3110    395.30478   -8000.8094   -7956.7126   -397.21658    27496.006    2.0128473 
    3120     400.7696   -8001.4164   -7956.7099   -410.89318    27527.056     2.009969 
    3130    401.27717   -8001.4451   -7956.6821   -459.35056    27555.727    2.0076116 
    3140    398.96017   -8001.1373   -7956.6327     -524.871    27581.823    2.0065393 
    3150    402.38805   -8001.4501   -7956.5631   -602.40592    27605.089    2.0062472 
    3160    401.59677   -8001.2737    -7956.475   -691.65165    27625.194    2.0061542 
    3170    399.08704   -8000.8903   -7956.3716   -731.95796    27641.796    2.0058157 
    3180    393.70707   -8000.1644   -7956.2458   -697.59684    27654.771    2.0051497 
    3190    390.79469   -7999.6835   -7956.0897   -669.27497      27664.3    2.0035042 
    3200    400.08329   -8000.5298   -7955.8999   -735.89416    27670.536    2.0000185 
    3210    405.29613    -8000.898   -7955.6866   -755.11079    27673.289    1.9951505 
    3220    402.11775   -8000.3218    -7955.465   -707.32584     27672.53    1.9890656 
    3230    403.92824   -8000.2941   -7955.2353   -664.58112    27668.527    1.9819845 
    3240    405.72523   -8000.2556   -7954.9963   -566.37305    27661.568    1.9751886 
    3250    407.38367   -8000.1969   -7954.7527   -424.73336    27652.132    1.9696592 
    3260    412.36715   -8000.5084   -7954.5082   -206.41049    27640.937     1.966271 
    3270    412.91171    -8000.332   -7954.2711    17.748026    27629.002    1.9656948 
    3280    410.10159   -7999.7944   -7954.0469    81.030063    27617.306    1.9670016 
    3290    408.60033   -7999.4131   -7953.8332    33.789774    27606.168    1.9684435 
    3300    407.59976   -7999.0937   -7953.6253   -12.321001    27595.387    1.9690358 
    3310    410.16018    -7999.173    -7953.419    28.859408    27584.791    1.9688739 
    3320    423.47299   -8000.4591     -7953.22   -63.634067    27574.457    1.9690886 
    3330    425.97035   -8000.5652   -7953.0476   -143.32058     27564.02    1.9718795 
    3340    422.05465   -7999.9941   -7952.9133   -112.53733    27553.165    1.9775364 
    3350    425.72894   -8000.3014   -7952.8107    11.916111    27542.036    1.9843081 
    3360    426.78023   -8000.3483   -7952.7403    225.83771    27531.201    1.9910817 
    3370    418.93082   -7999.4329   -7952.7005    444.04573    27521.602    1.9969037 
    3380    418.42743   -7999.3563   -7952.6801    494.96669    27514.141    1.9999023 
    3390    426.90215   -8000.3001   -7952.6785    320.00211    27508.975    1.9997466 
    3400    430.76548    -8000.763   -7952.7105    94.321928    27505.348    1.9979702 
    3410    427.03412   -8000.4218   -7952.7855    2.1552741    27502.303    1.9962264 
    3420    422.20176   -7999.9949   -7952.8976   -115.45145    27499.305    1.9955201 
    3430    416.67846   -7999.5157   -7953.0346   -303.29751    27495.811    1.9956402 
    3440       412.27   -7999.1717   -7953.1824   -404.80388    27491.048    1.9954928 
    3450    415.50991   -7999.6864   -7953.3357   -521.40107    27484.514    1.9948808 
    3460    419.02003   -8000.2434   -7953.5011   -645.10414    27475.721    1.9950936 
    3470    414.75569   -7999.9506   -7953.6839   -658.28126    27464.186     1.996949 
    3480    407.29913   -7999.3134   -7953.8786   -535.34757    27449.884    1.9996874 
    3490     399.5127   -7998.6324   -7954.0661   -354.31896    27433.412    2.0027058 
    3500     401.0378   -7998.9735   -7954.2371   -273.74245    27415.574    2.0063607 
    3510    404.16876   -7999.4796   -7954.3939   -260.61154    27396.751     2.011296 
    3520    400.22176   -7999.1862   -7954.5408   -107.87387     27377.13    2.0170302 
    3530    394.48658   -7998.6727   -7954.6671    90.529916    27357.394    2.0213837 
    3540    399.30074   -7999.3152   -7954.7726    212.30534    27338.381    2.0227205 
    3550    398.13034   -7999.2711   -7954.8591    333.42836    27320.648    2.0221358 
    3560    397.98832   -7999.3235   -7954.9273    498.86538    27304.739    2.0206691 
    3570    404.52532   -8000.1037   -7954.9783    585.89202     27291.31    2.0192052 
    3580    409.61225   -8000.7175   -7955.0246     608.6217    27280.712    2.0186705 
    3590    409.64688   -8000.7713   -7955.0745    721.45393    27273.069    2.0183872 
    3600    413.83211      -8001.3   -7955.1364    718.98357    27268.742    2.0171465 
    3610    412.10511   -8001.1875   -7955.2166    634.40625    27267.694    2.0153944 
    3620    409.76186   -8001.0257   -7955.3161    504.33078    27269.523     2.013878 
    3630    413.73101   -8001.5893    -7955.437    291.65724    27273.551    2.0127025 
    3640    412.40732   -8001.5882   -7955.5835    273.61741    27278.914     2.011874 
    3650    406.58848   -8001.1088   -7955.7532    313.07134    27285.445    2.0110671 
    3660    398.85061   -8000.4219   -7955.9295     377.0221    27293.316    2.0095008 
    3670    391.54029   -7999.7678   -7956.0909    536.36353    27302.837    2.0067362 
    3680    392.33889   -7999.9868   -7956.2208    661.08374    27314.624    2.0025403 
    3690     405.5406   -8001.5656   -7956.3269    715.70542    27329.218    1.9979255 
    3700    404.42021   -8001.5356   -7956.4219    733.46439    27346.842     1.995137 
    3710    396.84194   -8000.7719   -7956.5036    684.50602    27367.527    1.9933652 
    3720    401.93259    -8001.397   -7956.5608     552.5191    27391.006    1.9910435 
    3730    405.87047   -8001.8708   -7956.5953     572.3286    27416.754    1.9888576 
    3740    406.43655   -8001.9559   -7956.6172    612.88804     27444.79    1.9875551 
    3750    408.45296   -8002.1908   -7956.6273    477.32962    27475.195    1.9879696 
    3760    409.26168   -8002.2788   -7956.6251    383.12017    27507.424    1.9909967 
    3770    412.81969    -8002.665   -7956.6144    299.19125    27540.995    1.9954249 
    3780    416.39187   -8003.0527   -7956.6036     161.0836    27575.495    1.9997706 
    3790    406.75179   -8001.9668    -7956.593    43.278287      27610.3    2.0039791 
    3800     399.1741   -8001.1004   -7956.5719    73.635446    27644.919    2.0077813 
    3810    398.70422   -8001.0007   -7956.5247    120.02115    27679.431    2.0114335 
    3820    393.54135   -8000.3418   -7956.4416    69.303396    27713.975    2.0156605 
    3830    382.50134   -7998.9785   -7956.3099    69.971206    27748.385    2.0200603 
    3840    382.41178   -7998.7714   -7956.1128   -26.439579    27782.576    2.0237318 
    3850    389.12823   -7999.2459    -7955.838   -215.94935    27816.097    2.0273721 
    3860    392.03973   -7999.2302   -7955.4976   -298.69745    27848.151     2.032455 
    3870    400.68006   -7999.8074    -7955.111   -357.92311    27878.321    2.0397237 
    3880     419.4843   -8001.4949   -7954.7008   -451.44744    27906.318    2.0493772 
    3890     431.7967   -8002.4814   -7954.3138   -410.47892    27931.796    2.0610023 
    3900    432.95011   -8002.2936   -7953.9973   -299.97823    27954.943    2.0734361 
    3910    429.15413     -8001.63   -7953.7572   -339.49442    27976.204    2.0850501 
    3920    428.69079   -8001.3993   -7953.5781   -430.80604    27995.491    2.0948599 
    3930     425.8823   -8000.9569   -7953.4491    -624.6333    28012.341    2.1035077 
    3940    416.57905   -7999.8277   -7953.3577   -742.47594    28025.983    2.1114552 
    3950    414.10514   -7999.4811    -7953.287   -768.87455    28035.906    2.1183308 
    3960    420.00102   -8000.0822   -7953.2304   -771.37095    28042.001    2.1244308 
    3970    417.96027   -7999.8177   -7953.1936   -645.78235    28044.382    2.1304825 
    3980    405.58149   -7998.4101   -7953.1668   -394.70275    28043.731    2.1353913 
    3990    407.22999   -7998.5619   -7953.1348    -312.9039    28041.141    2.1372792 
    4000    410.15509   -7998.8437   -7953.0902   -385.62867    28037.036    2.1364318 
    4010    415.13939   -7999.3514    -7953.042   -464.53759    28031.192    2.1338489 
    4020    420.55871   -7999.9146   -7953.0006   -545.71583    28023.247    2.1306302 
    4030    415.44586   -7999.3157    -7952.972   -622.43217    28012.846    2.1273881 
    4040    415.14283   -7999.2645   -7952.9547   -638.33724     27999.72    2.1236292 
    4050    415.12127   -7999.2513   -7952.9439   -620.14022    27983.803    2.1202011 
    4060    404.63566   -7998.0727    -7952.935   -425.43563      27965.3    2.1187975 
    4070    392.93659   -7996.7363   -7952.9036   -179.85021     27945.13    2.1194824 
    4080     402.3231   -7997.7138    -7952.834   -180.21732    27924.347    2.1211926 
    4090    416.72244   -7999.2207   -7952.7347   -226.02633    27903.058    2.1238339 
    4100     419.7523   -7999.4512   -7952.6272   -150.76145    27881.148    2.1270742 
    4110    426.88253   -8000.1477   -7952.5283   -229.83879    27858.818    2.1295644 
    4120    434.00528    -8000.867   -7952.4531   -371.82003    27835.752    2.1312068 
    4130    429.43983   -8000.3221   -7952.4174   -298.27614    27811.425    2.1327609 
    4140    420.72198   -7999.3467   -7952.4145    -34.58744    27786.171    2.1342627 
    4150    419.08303   -7999.1794   -7952.4301    237.60954    27761.184    2.1356257 
    4160    417.14449    -7998.993   -7952.4599    446.74693     27737.69    2.1376614 
    4170     414.8213   -7998.7802   -7952.5063    556.00066    27716.606    2.1412106 
    4180    414.38889   -7998.7973   -7952.5716    500.40955    27698.381    2.1462248 
    4190     415.2339   -7998.9788   -7952.6588    298.91885    27682.701    2.1518825 
    4200    417.49198   -7999.3468   -7952.7749    32.185755    27668.619    2.1569393 
    4210    416.02235   -7999.3302   -7952.9223   -189.61136    27654.932    2.1601762 
    4220    418.88451   -7999.8327   -7953.1055   -373.54992    27640.586    2.1612567 
    4230    424.18041    -8000.654    -7953.336   -363.33282    27624.796    2.1617556 
    4240    416.29241   -8000.0511    -7953.613   -95.179025    27607.682    2.1642948 
    4250    407.38684     -7999.36   -7953.9154    41.463605    27590.333    2.1697153 
    4260    407.15426   -7999.6449   -7954.2262    4.7336374    27573.365    2.1769299 
    4270    411.15297   -8000.4028   -7954.5381   -74.901824    27556.654     2.184724 
    4280    420.51221   -8001.7693   -7954.8605   -268.51462    27539.797    2.1921106 
    4290    419.34748   -8001.9772   -7955.1984   -357.58566    27521.996    2.1982529 
    4300    413.49504   -8001.6592   -7955.5332    -217.7399    27502.915    2.2018372 
    4310    413.38975   -8001.9672    -7955.853   -112.47577    27483.081    2.2022961 
    4320    407.63682   -8001.6207   -7956.1482    23.732284    27463.036    2.2010147 
    4330    407.44683   -8001.8646   -7956.4133    158.08467    27443.378    2.1998644 
    4340     406.0974   -8001.9483   -7956.6475    297.00489    27424.708    2.2010495 
    4350    397.86055    -8001.224    -7956.842     468.0305    27407.667    2.2062867 
    4360    397.86454   -8001.3741   -7956.9917    529.58799     27392.94    2.2151524 
    4370    404.46471   -8002.2236    -7957.105    518.13508    27380.786    2.2261247 
    4380    409.80029   -8002.9113   -7957.1975    525.19678    27371.148    2.2371814 
    4390    409.14228   -8002.9232   -7957.2827    612.42519    27364.051    2.2463643 
    4400    402.65194    -8002.275   -7957.3586    784.16718    27359.859     2.252521 
    4410    400.00785   -8002.0345    -7957.413    897.39671     27359.24    2.2558192 
    4420    404.05688   -8002.5171    -7957.444    960.78125    27362.691    2.2580807 
    4430    405.57129   -8002.7017   -7957.4596    879.51819    27370.405    2.2621896 
    4440    400.33848   -8002.1179   -7957.4596    639.72728    27381.963    2.2701007 
    4450    396.33644    -8001.646   -7957.4341    355.82506     27396.28     2.281651 
    4460    386.66159    -8000.496   -7957.3633    214.35959    27412.096    2.2948369 
    4470    381.96085   -7999.8357   -7957.2274    212.27944    27428.767    2.3057214 
    4480    395.78107   -8001.1676   -7957.0177    116.28662     27446.15    2.3124391 
    4490    403.22879   -8001.7308     -7956.75    49.655875     27463.86    2.3177989 
    4500    401.82546   -8001.2788   -7956.4546   -48.755763    27481.549    2.3236669 
    4510    401.98357   -8000.9835   -7956.1417   -131.73303    27498.803    2.3295856 
    4520    398.89788   -8000.3127   -7955.8151   -70.020719    27515.284    2.3358537 
    4530    393.28177   -7999.3506   -7955.4794    202.52728    27531.327    2.3426618 
    4540    393.51213   -7999.0317   -7955.1348    370.73426    27548.048    2.3487785 
    4550    398.21382   -7999.2085   -7954.7871    317.38838    27566.184    2.3533647 
    4560    408.86283   -8000.0635   -7954.4543   -1.0946055    27585.451    2.3575313 
    4570    419.10049   -8000.9105   -7954.1592   -401.48725    27604.456    2.3637731 
    4580    421.74846   -8000.9709   -7953.9242   -637.89942    27621.463    2.3727795 
    4590    421.31342   -8000.7515   -7953.7533   -783.52929    27635.355    2.3827635 
    4600    419.16185   -8000.3927   -7953.6345   -849.65534    27645.507    2.3914184 
    4610    414.60919   -7999.8035   -7953.5533   -803.20679    27651.655    2.3976165 
    4620    405.09628   -7998.6799   -7953.4908   -647.27689     27654.07    2.4021598 
    4630    401.25346   -7998.1865   -7953.4261   -641.90125    27653.406    2.4060474 
    4640    406.70224   -7998.7186   -7953.3503    -900.9819     27649.65    2.4105774 
    4650    408.31253    -7998.816   -7953.2681    -1082.257    27641.798    2.4179472 
    4660    408.68255   -7998.7739   -7953.1848    -1076.743    27629.078    2.4280606 
    4670    414.53014   -7999.3434    -7953.102   -863.53644    27611.591    2.4384015 
    4680    423.25627   -8000.2407   -7953.0259   -459.54245    27590.376    2.4471055 
    4690    429.54284   -8000.8873   -7952.9711   -88.812188    27567.225    2.4537021 
    4700    429.41215   -8000.8522   -7952.9507    263.75321    27543.886    2.4584281 
    4710    425.40248   -8000.4188   -7952.9645    508.89446    27521.959    2.4621358 
    4720    423.30794   -8000.2311   -7953.0104    488.83145    27502.462    2.4663543 
    4730     418.0082   -7999.7112   -7953.0817    369.22795    27485.343    2.4728314 
    4740    413.02172   -7999.2413   -7953.1681    322.31691    27470.101    2.4820741 
    4750    405.73379   -7998.5118   -7953.2516    408.61187    27456.494    2.4917125 
    4760    408.10685   -7998.8479    -7953.323    539.57615     27444.88     2.497823 
    4770    415.34804    -7999.722   -7953.3893    494.51271    27435.747      2.49991 
    4780    410.24958   -7999.2253   -7953.4613    455.19198    27428.954    2.5012328 
    4790    401.97213   -7998.3702   -7953.5296    507.16725    27424.342    2.5041794 
    4800    409.56602   -7999.2734   -7953.5857    404.10109    27422.002    2.5091467 
    4810    422.07113    -8000.726   -7953.6434    240.74694     27421.51    2.5165181 
    4820    424.95306   -8001.1316   -7953.7275    173.88286    27422.177     2.526185 
    4830    418.74022   -8000.5579   -7953.8468    120.48758    27423.626    2.5367595 
    4840    408.90183   -7999.6028   -7953.9892     177.5497    27425.682    2.5459726 
    4850     402.5119   -7999.0375   -7954.1367    218.08788    27428.536    2.5514822 
    4860    399.86203    -7998.883   -7954.2778    169.85827     27432.34    2.5530421 
    4870    396.32109   -7998.6147   -7954.4045    115.49372    27436.915    2.5529448 
    4880    391.67646   -7998.1987   -7954.5066    139.21156    27442.046    2.5536359 
    4890    392.38622   -7998.3456   -7954.5743    170.36632    27447.796    2.5557755 
    4900     404.2133   -7999.7011   -7954.6105    62.320305    27454.252    2.5590012 
    4910    415.45687   -8000.9776   -7954.6327   -89.045737    27460.987    2.5626477 
    4920    420.66329   -8001.5874   -7954.6618   -301.74013    27467.277    2.5650913 
    4930    424.50923   -8002.0713   -7954.7167    -491.7469    27472.192    2.5657549 
    4940    417.52802   -8001.3796   -7954.8038   -452.00628    27474.956    2.5654279 
    4950    412.18281   -8000.8983   -7954.9186   -321.46224    27475.668    2.5642073 
    4960    408.94348   -8000.6693    -7955.051   -255.05693     27474.87    2.5629406 
    4970    404.51629   -8000.3184    -7955.194   -251.15542     27472.88    2.5633029 
    4980    398.85648   -7999.8292   -7955.3361   -280.31253    27469.737    2.5657876 
    4990    397.66434   -7999.8253   -7955.4652   -394.42315    27465.278     2.569592 
    5000    404.19584   -8000.6702   -7955.5815   -552.88115    27458.998    2.5736969 
Loop time of 2456.1 on 16 procs for 3000 steps with 864 atoms

Performance: 0.106 ns/day, 227.417 hours/ns, 1.221 timesteps/s
98.1% CPU use with 16 MPI tasks x 1 OpenMP threads

MPI task timing breakdown:
Section |  min time  |  avg time  |  max time  |%varavg| %total
---------------------------------------------------------------
Pair    | 2207.2     | 2310.3     | 2409       | 158.5 | 94.06
Bond    | 0.00023842 | 0.00077678 | 0.0019615  |   0.0 |  0.00
Neigh   | 0.033583   | 0.036801   | 0.042648   |   1.3 |  0.00
Comm    | 14.418     | 111.49     | 243.34     | 603.0 |  4.54
Output  | 0.17797    | 0.18082    | 0.2218     |   2.5 |  0.01
Modify  | 5.3239     | 34.081     | 100.82     | 520.1 |  1.39
Other   |            | 0.01609    |            |       |  0.00

Nlocal:        54.0000 ave          65 max          48 min
Histogram: 3 2 6 1 0 0 1 2 0 1
Nghost:        414.562 ave         448 max         393 min
Histogram: 2 3 2 3 2 0 1 1 1 1
Neighs:         0.00000 ave           0 max           0 min
Histogram: 16 0 0 0 0 0 0 0 0 0
FullNghs:      1656.50 ave        2023 max        1431 min
Histogram: 3 3 4 2 0 0 0 0 1 3

Total # of neighbors = 26504
Ave neighs/atom = 30.675926
Ave special neighs/atom = 0.0000000
Neighbor list builds = 300
Dangerous builds = 300
Setting up Verlet run ...
  Unit style    : metal
  Current step  : 5000
  Time step     : 0.001
Per MPI rank memory allocation (min/avg/max) = 8.897 | 8.898 | 8.900 Mbytes
Step Temp PotEng TotEng Press Volume c_msd[4] 
    5000    404.19584   -8000.6702   -7955.5815   -552.88115    27458.998    2.5736969 
    5010     406.0798   -8000.8731   -7955.5742   -578.01172    27457.669    2.5802401 
    5020    406.73816   -8000.9258   -7955.5535   -452.69494    27453.751    2.5850473 
    5030    409.98884   -8001.2564   -7955.5216   -339.50842    27447.757    2.5889521 
    5040    406.43474   -8000.8176   -7955.4792   -201.88541     27440.23    2.5933515 
    5050     406.9358   -8000.8176   -7955.4233   -23.709044    27431.786    2.5981756 
    5060    409.95881   -8001.0823   -7955.3508    193.26986    27423.237    2.6040284 
    5070    408.42666   -8000.8254   -7955.2648    388.84397    27415.563    2.6119215 
    5080     405.3104   -8000.3762   -7955.1632    487.94009    27409.621    2.6217756 
    5090    403.73509   -8000.0753    -7955.038    551.43057    27405.901    2.6330791 
    5100    407.03469   -8000.2881   -7954.8828    507.72608    27404.659    2.6449832 
    5110    409.49646   -8000.3767   -7954.6968    360.20146    27405.693    2.6568192 
    5120    404.37377   -7999.5881   -7954.4796    290.07909    27408.436    2.6678847 
    5130    401.50202   -7999.0119   -7954.2238     175.5572    27412.498    2.6763103 
    5140    406.01315   -7999.2094    -7953.918    81.909564    27417.388    2.6799583 
    5150    417.67305   -8000.1595   -7953.5674    77.334249     27422.72    2.6790363 
    5160    427.31968    -8000.864   -7953.1959    67.094209    27428.445    2.6762749 
    5170    430.49229   -8000.8583   -7952.8362   -11.400955    27434.479    2.6749914 
    5180    427.38065   -8000.1838   -7952.5089   -41.901405    27440.513    2.6769125 
    5190    423.78272   -7999.4919   -7952.2183   -17.767095    27446.403    2.6812234 
    5200    419.11195   -7998.7142   -7951.9617    65.490201    27452.286    2.6855355 
    5210    416.01449   -7998.1416   -7951.7346   -16.597705    27458.456     2.687305 
    5220    419.50244   -7998.3268   -7951.5307   -377.48944    27464.454    2.6855443 
    5230    424.47308    -7998.703   -7951.3524   -582.73255    27468.819    2.6819492 
    5240    430.72255   -7999.2568   -7951.2091   -622.75946    27470.588    2.6792725 
    5250    440.05835   -8000.2018   -7951.1126   -610.05031    27469.528     2.679588 
    5260      448.913   -8001.1596   -7951.0827   -563.01224    27465.664    2.6833397 
    5270    446.90432   -8000.9888    -7951.136   -239.66779    27459.338    2.6905598 
    5280    441.77904   -8000.5458   -7951.2647    100.69118    27451.899    2.7000588 
    5290    432.43427   -7999.6803   -7951.4416      386.597    27444.896    2.7087384 
    5300    426.85045   -7999.2599    -7951.644    559.02237     27439.61    2.7143328 
    5310    421.40489   -7998.8578   -7951.8495    599.10207    27436.846    2.7168785 
    5320    423.66135   -7999.3087   -7952.0486    431.40144    27436.743    2.7181444 
    5330    427.38333   -7999.9197   -7952.2445    255.10528    27438.616    2.7202099 
    5340    421.62659    -7999.467    -7952.434    315.09005    27441.776    2.7244233 
    5350    418.51307   -7999.2942   -7952.6085     422.4262    27446.425    2.7304891 
    5360    422.67765   -7999.9174    -7952.767    428.50342    27453.006    2.7371242 
    5370    423.79297   -8000.1938   -7952.9191    394.52934    27461.557    2.7430093 
    5380    418.73959   -7999.7735   -7953.0625    334.29745    27471.955    2.7471654 
    5390     420.4032   -8000.0941   -7953.1975     36.59075    27483.813    2.7493475 
    5400    421.16592   -8000.3079   -7953.3262   -141.07712    27495.944     2.751622 
    5410    417.85994   -8000.0682   -7953.4553   -144.76327    27507.549    2.7556728 
    5420    407.44327   -7999.0259    -7953.575   -148.34839    27518.543    2.7612499 
    5430    401.21496   -7998.4263   -7953.6701   -243.57234    27528.857    2.7671647 
    5440    400.64461   -7998.4264   -7953.7339   -317.59895    27538.097    2.7726092 
    5450    400.45919   -7998.4387   -7953.7669   -317.19581    27545.952    2.7772539 
    5460    401.37882   -7998.5468   -7953.7724   -303.69041    27552.376    2.7805551 
    5470    399.24283    -7998.288   -7953.7518   -217.88621    27557.448    2.7824164 
    5480    400.39638   -7998.3709   -7953.7061   -165.62232    27561.526     2.783229 
    5490    407.51256   -7999.0963   -7953.6377   -274.42097    27564.797    2.7834918 
    5500    413.40533   -7999.6754   -7953.5594   -325.87831    27566.849    2.7846083 
    5510    416.26409   -7999.9183   -7953.4834   -342.61263    27567.416    2.7881881 
    5520    417.06071   -7999.9393   -7953.4155    -378.3531    27566.391    2.7944726 
    5530    415.54281   -7999.7104   -7953.3559    -389.6662    27563.639     2.802011 
    5540    416.23965   -7999.7366   -7953.3045   -451.52644    27559.057    2.8097483 
    5550    408.22044   -7998.7929   -7953.2553   -489.91717    27552.374    2.8183439 
    5560    398.68062   -7997.6679   -7953.1945   -440.54541    27543.437    2.8277159 
    5570    394.98808    -7997.159   -7953.0975    -339.7683    27532.465    2.8358316 
    5580    400.35735   -7997.6171   -7952.9566   -337.36298    27519.829     2.840928 
    5590    404.58676   -7997.9097   -7952.7774   -273.14898    27505.625     2.843677 
    5600    403.66266   -7997.5951   -7952.5659    -139.2085    27490.146    2.8453597 
    5610    416.01202   -7998.7313   -7952.3245   -20.129495    27473.975    2.8457779 
    5620    431.38546   -8000.1884   -7952.0667    177.92669    27457.713    2.8452217 
    5630    430.13361    -7999.808   -7951.8259    507.03099    27442.279    2.8446975 
    5640    426.18799   -7999.1599    -7951.618    773.68394    27429.095    2.8442033 
    5650    424.98837   -7998.8453   -7951.4372    860.74012    27419.334    2.8444543 
    5660    425.37524   -7998.7331   -7951.2818    875.60111    27413.469    2.8468774 
    5670    421.99983   -7998.2274   -7951.1527     826.5687    27411.556    2.8521301 
    5680    414.75728   -7997.3079   -7951.0411     907.4013    27413.505    2.8595967 
    5690    420.92872   -7997.8945   -7950.9392    843.17513    27419.555    2.8673406 
    5700    421.17992   -7997.8288   -7950.8455    809.81028    27429.544    2.8735309 
    5710    421.19075   -7997.7488   -7950.7643    703.09462    27443.301    2.8771584 
    5720    427.90682   -7998.4253   -7950.6916    412.92002    27460.312    2.8792123 
    5730    430.07363   -7998.6117   -7950.6363    177.71321    27479.375    2.8810657 
    5740    422.57906   -7997.7473    -7950.608    146.36092    27499.482    2.8832177 
    5750    421.74414    -7997.648   -7950.6018    19.078982    27520.345    2.8862264 
    5760    430.56221   -7998.6478   -7950.6179    -227.5578    27541.397    2.8911963 
    5770    435.56825   -7999.2673    -7950.679   -405.09277    27561.592    2.8986372 
    5780    435.08387   -7999.3468   -7950.8126   -597.84394    27580.017    2.9082608 
    5790     433.6439   -7999.4081   -7951.0345   -753.04798    27595.812    2.9196757 
    5800    423.94869   -7998.6388   -7951.3467   -858.21044    27608.226    2.9314478 
    5810    410.39796   -7997.5037   -7951.7232   -909.39215     27616.75    2.9407329 
    5820    406.08487   -7997.4297   -7952.1303   -979.84644    27621.088    2.9462806 
    5830    405.21429   -7997.7474   -7952.5452   -938.28857    27620.941    2.9502334 
    5840    401.44551   -7997.7234   -7952.9416   -710.66919     27616.52    2.9541708 
    5850    402.57494   -7998.2108   -7953.3029     -537.813    27608.741    2.9573642 
    5860    402.58463    -7998.529   -7953.6201   -412.02017    27598.387    2.9591461 
    5870    410.52973   -7999.6942    -7953.899   -234.05699    27586.072      2.95914 
    5880    417.91135   -8000.7727    -7954.154   -80.235113    27572.568    2.9585742 
    5890    419.34325   -8001.1747   -7954.3963    24.563005    27558.582     2.959719 
    5900    415.18268   -8000.9399   -7954.6257    161.98686     27544.62    2.9638152 
    5910    411.59597   -8000.7477   -7954.8336    396.47404    27531.353    2.9700741 
    5920    414.53313   -8001.2662   -7955.0244    538.02274     27519.78    2.9769023 
    5930    411.53266   -8001.1078   -7955.2007    681.35364    27510.621     2.982659 
    5940    415.26621   -8001.6902   -7955.3666    665.88533    27504.486    2.9862721 
    5950    417.34698   -8002.0852   -7955.5295    486.14752    27501.325    2.9894122 
    5960    410.58133   -8001.4887   -7955.6877    333.30106    27500.413    2.9935705 
    5970     406.0277   -8001.1233   -7955.8303    152.29444    27501.017    2.9980566 
    5980    405.47718   -8001.1819   -7955.9503   -43.863118    27502.311    3.0021142 
    5990    405.43888   -8001.2767   -7956.0494    16.091658    27503.521    3.0065813 
    6000    403.92452    -8001.188   -7956.1296    253.41823    27504.888    3.0132161 
    6010    403.47362   -8001.1996   -7956.1915    372.11169    27507.407    3.0222615 
    6020    402.72143   -8001.1586   -7956.2344     285.9092    27511.616    3.0323417 
    6030    404.58327     -8001.39   -7956.2581    63.079485    27517.142    3.0423981 
    6040     409.0947   -8001.9023   -7956.2672   -175.15541    27523.009    3.0521628 
    6050    408.57375   -8001.8447   -7956.2677   -358.69624    27528.152    3.0613179 
    6060    408.06612     -8001.78   -7956.2596   -471.48512    27531.732    3.0695254 
    6070    410.11964   -8001.9912   -7956.2417   -439.21873    27533.221    3.0769356 
    6080    410.23818   -8001.9768   -7956.2141    -311.9052    27532.719    3.0835267 
    6090    408.72243   -8001.7725   -7956.1789   -214.81121    27530.746    3.0885441 
    6100    404.33049   -8001.2354   -7956.1317   -94.943192    27527.758     3.091704 
    6110    399.46124    -8000.622   -7956.0615    46.194909    27524.297    3.0933886 
    6120    400.09853   -8000.5873   -7955.9557    125.99236    27520.996    3.0939065 
    6130    408.17415   -8001.3424   -7955.8099   -24.389223    27518.141    3.0948823 
    6140    413.93856   -8001.8087   -7955.6332   -243.88789    27515.097    3.0987851 
    6150    411.20127   -8001.3033   -7955.4332   -193.39242    27510.995    3.1058766 
    6160     413.7058   -8001.3549   -7955.2054   -102.35295    27505.947     3.113413 
    6170    424.84435    -8002.339   -7954.9469   -79.541316    27500.326    3.1191342 
    6180    428.61314   -8002.4873   -7954.6749    -5.923972    27494.283    3.1240948 
    6190    427.55156    -8002.099    -7954.405    85.397592    27488.137     3.130974 
    6200    431.54608   -8002.2806   -7954.1409    194.96683    27482.309    3.1417822 
    6210    432.49918   -8002.1369   -7953.8909    291.89586    27477.275    3.1576309 
    6220    424.26408   -8000.9893    -7953.662      353.158    27473.498    3.1776023 
    6230    420.36321   -8000.3381   -7953.4459    288.84869    27471.237     3.197578 
    6240    425.14334   -8000.6566   -7953.2312    259.06222    27470.303    3.2132491 
    6250    433.46592   -8001.3749   -7953.0211    178.41576    27470.524    3.2240182 
    6260    439.21151   -8001.8292   -7952.8345    94.214761    27471.573    3.2330973 
    6270    431.60274   -8000.8295   -7952.6835    108.26543    27473.135    3.2442168 
    6280    424.83691   -7999.9528   -7952.5616   -86.741807    27475.143    3.2574242 
    6290    426.80727    -8000.066    -7952.455    -358.7593     27476.77    3.2703462 
    6300    426.97105   -7999.9945   -7952.3653    -485.9257    27476.827     3.281554 
    6310    429.49636    -8000.212    -7952.301    -491.4224    27474.666    3.2912525 
    6320    431.39876   -8000.3946   -7952.2714   -351.09176    27470.244    3.3005673 
    6330    428.97946   -8000.1376   -7952.2843   -91.751596    27464.172    3.3101999 
    6340    429.49923   -8000.2556   -7952.3443     151.2041    27457.561     3.319973 
    6350     429.3326   -8000.3509   -7952.4582    294.31971    27451.479    3.3297315 
    6360    427.03321   -8000.2703   -7952.6341    290.15194    27446.563    3.3392791 
    6370    426.90807   -8000.4985   -7952.8762    283.15484    27442.901    3.3483766 
    6380    427.96164   -8000.9314   -7953.1916     407.8762    27440.552    3.3568774 
    6390    425.98224   -8001.0981   -7953.5791    587.91479    27440.071    3.3640229 
    6400    427.52055    -8001.717   -7954.0264    650.45957    27442.258    3.3690078 
    6410     433.6641   -8002.8992   -7954.5233    596.50843    27447.475    3.3727324 
    6420    429.78619   -8002.9885   -7955.0452    510.96505    27455.568    3.3766035 
    6430    418.88585   -8002.2688   -7955.5414    386.21816    27466.218    3.3806173 
    6440    411.44445   -8001.8675   -7955.9703    166.71982    27478.883     3.384591 
    6450    405.33601   -8001.5331   -7956.3173   -21.178729     27492.64    3.3893625 
    6460    399.28726   -8001.1233   -7956.5822   -174.98106    27506.649    3.3955535 
    6470     400.7434    -8001.479   -7956.7755   -300.84838    27520.199    3.4022925 
    6480     409.1043   -8002.5564   -7956.9202   -359.69598      27532.7    3.4074261 
    6490    413.73529   -8003.1947   -7957.0419   -401.32729    27543.843    3.4090476 
    6500    408.62891   -8002.7331     -7957.15   -523.34879    27553.375    3.4073902 
    6510     407.4193   -8002.6893   -7957.2411   -719.82896    27560.687    3.4041073 
    6520    414.91659   -8003.6059   -7957.3213   -1098.7094     27564.72    3.4009596 
    6530    411.21532   -8003.2743   -7957.4026   -1369.6365    27563.765    3.3987128 
    6540     397.7913   -8001.8538   -7957.4796   -1458.0808    27556.429    3.3972742 
    6550    391.19641   -8001.1692   -7957.5307   -1358.3977    27542.156    3.3970845 
    6560    394.64118   -8001.5655   -7957.5427   -1122.1886     27521.22     3.398615 
    6570    398.41104   -8001.9591   -7957.5157   -800.37361    27494.532    3.4017482 
    6580    398.41078   -8001.8957   -7957.4524    -614.7089    27463.371    3.4055039 
    6590    406.07886   -8002.6587     -7957.36   -610.60555    27428.496    3.4084992 
    6600    415.88646   -8003.6422   -7957.2495   -564.71354    27389.948     3.411035 
    6610    421.83885   -8004.1934   -7957.1366   -320.98223    27347.944    3.4144882 
    6620    423.96618    -8004.325    -7957.031    65.082349    27303.515    3.4193247 
    6630    426.54064   -8004.5177   -7956.9364    502.64365    27258.361    3.4252918 
    6640    428.18602   -8004.6249   -7956.8601    891.41301    27214.484    3.4322305 
    6650    427.34735   -8004.4824   -7956.8112    1077.7649    27173.634    3.4392786 
    6660    432.19708   -8005.0128   -7956.8005    1058.0653    27136.727    3.4453636 
    6670    438.96319   -8005.8141   -7956.8471    958.08326    27103.794    3.4497535 
    6680    432.98912   -8005.2647   -7956.9641     1094.372    27074.603    3.4521618 
    6690    420.18878   -8004.0064   -7957.1337    1327.0307    27049.779    3.4527511 
    6700    420.58567   -8004.2561   -7957.3391      1377.23    27030.342    3.4520571 
    6710    418.87018   -8004.3017   -7957.5761    1428.5184    27016.737    3.4511583 
    6720    411.36466   -8003.7266   -7957.8382    1487.4925    27009.291    3.4502332 
    6730    408.36429   -8003.6648   -7958.1111    1405.0387    27008.324    3.4482885 
    6740    410.24256   -8004.1532     -7958.39    1241.3727    27013.621    3.4440978 
    6750    405.88737   -8003.9462   -7958.6689    1109.3379    27024.639    3.4367474 
    6760    401.41459   -8003.7118   -7958.9334    910.99242    27040.855    3.4258064 
    6770    405.39386   -8004.3966   -7959.1743    694.17323    27061.503    3.4129104 
    6780    414.97668   -8005.6934   -7959.4022    519.14543    27085.723    3.4015751 
    6790    419.75898    -8006.459   -7959.6342    404.09012    27112.805    3.3940786 
    6800    417.45927   -8006.4438   -7959.8756    339.82148    27142.276    3.3899331 
    6810    415.20567   -8006.4357   -7960.1189    207.97076    27173.806    3.3883514 
    6820    414.90222   -8006.6407   -7960.3578  -0.97638743    27206.812    3.3892853 
    6830    407.67972   -8006.0593    -7960.582   -262.28076    27240.378     3.391623 
    6840    399.09224   -8005.2939   -7960.7746   -582.51392    27273.298    3.3928566 
    6850    392.78387   -8004.7335   -7960.9179   -791.03765    27304.122    3.3921554 
    6860    393.50476   -8004.9067   -7961.0107   -744.04026    27331.876    3.3910577 
    6870    390.22183   -8004.5848    -7961.055   -557.03606    27356.631    3.3916808 
    6880    388.73749    -8004.416   -7961.0518   -344.56329    27379.148    3.3948692 
    6890    393.26319   -8004.8701    -7961.001   -168.11695    27400.326    3.3999831 
    6900    398.86043   -8005.4043   -7960.9108    -56.53531    27420.925    3.4058788 
    6910    398.31409   -8005.2227   -7960.7901    -18.50698    27441.434      3.41283 
    6920    394.07184   -8004.6011   -7960.6418   -55.077067    27462.001    3.4216571 
    6930     399.5035    -8005.034   -7960.4688   -209.87454    27482.416    3.4325654 
    6940     404.8596   -8005.4392   -7960.2765   -393.08272    27501.996    3.4459039 
    6950    402.32059   -8004.9563   -7960.0768   -491.29377    27519.929    3.4608393 
    6960    407.58751   -8005.3465   -7959.8795   -632.56109     27535.66    3.4753636 
    6970    415.66901   -8006.0629   -7959.6944   -687.31152    27548.589    3.4883963 
    6980    418.16062   -8006.1868   -7959.5404   -562.80604    27558.473    3.4991436 
    6990     410.6858   -8005.2344   -7959.4217   -298.80566    27565.855    3.5070198 
    7000    402.65657    -8004.243   -7959.3261    2.4828837    27571.904    3.5117792 
    7010    400.00582   -8003.8584   -7959.2371    196.44208    27577.943    3.5143732 
    7020    393.94595   -8003.0869   -7959.1417    304.83557    27584.914    3.5174232 
    7030    396.51064   -8003.2642   -7959.0329    142.10557    27593.243    3.5227661 
    7040    409.43305   -8004.5871   -7958.9142   -241.63127    27602.186    3.5299095 
    7050    413.25372   -8004.9037   -7958.8046   -597.64192    27610.076    3.5378866 
    7060    410.37345   -8004.4931   -7958.7153   -797.20866    27615.295    3.5455126 
    7070    406.34159   -8003.9638   -7958.6358   -774.47406     27616.91    3.5507192 
    7080    402.46513   -8003.4474   -7958.5518   -559.72023    27614.999     3.552279 
    7090    395.66461   -8002.5869     -7958.45    -315.2691    27610.498     3.550939 
    7100    394.07445   -8002.2813   -7958.3217   -280.06254    27604.454    3.5480705 
    7110     404.0786   -8003.2459   -7958.1703   -486.11083    27596.985    3.5451476 
    7120    410.85704   -8003.8423   -7958.0106   -548.81759     27587.29     3.543063 
    7130    406.34442   -8003.1803    -7957.852   -341.11019    27575.148    3.5412542 
    7140    403.83479   -8002.7386   -7957.6902   -136.99652    27561.405    3.5396199 
    7150    409.01624   -8003.1465   -7957.5201    71.898697    27547.015    3.5395498 
    7160    411.91817    -8003.297   -7957.3469    377.24736    27532.999    3.5418608 
    7170    410.25217    -8002.942   -7957.1778    613.02658    27520.686    3.5449208 
    7180    410.88908   -8002.8476   -7957.0123    650.99991    27511.125    3.5458173 
    7190    416.74227   -8003.3381   -7956.8498    531.14598    27504.519    3.5442085 
    7200    422.92473   -8003.8783   -7956.7004    363.98593    27500.349     3.542894 
    7210    429.05552    -8004.442   -7956.5803    171.30649    27497.855    3.5444392 
    7220    427.80259   -8004.2203   -7956.4982     49.90761    27496.201     3.549648 
    7230    429.33274   -8004.3487    -7956.456   -71.848424    27494.806    3.5567273 
    7240    436.34954   -8005.1346   -7956.4592   -302.35566    27493.034    3.5637769 
    7250     434.0518   -8004.9387   -7956.5196    -310.3819     27489.97    3.5705307 
    7260    420.21878   -8003.5038   -7956.6278   -157.34526    27485.539    3.5767272 
    7270     403.5584    -8001.767   -7956.7495   -25.293902    27480.377     3.582518 
    7280    393.99642   -8000.7998   -7956.8489   -34.040364    27475.054    3.5888823 
    7290    397.33809   -8001.2374   -7956.9137   -268.49727    27469.479    3.5959878 
    7300    396.35871   -8001.1594    -7956.945   -515.02069    27462.679    3.6033689 
    7310    391.47843   -8000.6098   -7956.9398   -597.17146    27453.594    3.6105023 
    7320    395.07406   -8000.9623   -7956.8912   -577.45557    27441.813    3.6170363 
    7330     401.4788   -8001.5851   -7956.7995   -472.36714    27427.433    3.6225481 
    7340    409.63133   -8002.3705   -7956.6755    -331.6423    27410.911    3.6267657 
    7350    415.05659   -8002.8277   -7956.5275   -136.98879    27392.909    3.6306273 
    7360    414.90358    -8002.643   -7956.3599    48.176561    27374.292    3.6354315 
    7370    411.24403   -8002.0416   -7956.1667    167.56737    27355.895    3.6412939 
    7380    411.03475   -8001.7905    -7955.939    175.08942    27338.211    3.6461048 
    7390     408.5198   -8001.2388   -7955.6678    257.75255    27321.373    3.6477574 
    7400    409.23247   -8000.9969   -7955.3464    418.24031    27305.756     3.647088 
    7410    414.92288   -8001.2547   -7954.9694    503.34031    27292.015    3.6464206 
    7420    422.73916   -8001.7071   -7954.5499     423.5138    27280.503      3.64808 
    7430    429.62607   -8002.0427   -7954.1172    323.94779     27270.91    3.6539099 
    7440    436.95958   -8002.4499   -7953.7064    256.07975    27262.809    3.6624193 
    7450    438.23149   -8002.2339   -7953.3485    240.42372      27255.9    3.6706741 
    7460    431.94018   -8001.2427   -7953.0591    239.58816    27250.076    3.6764974 
    7470    433.11128   -8001.1448   -7952.8306    155.41538    27245.296    3.6801001 
    7480    438.74079   -8001.6007   -7952.6585    115.26878    27241.239    3.6838226 
    7490    441.44987   -8001.7999   -7952.5555    150.15488     27237.72    3.6897281 
    7500    435.69623   -8001.1261   -7952.5236    271.36082    27234.921    3.6981489 
    7510    433.83055   -8000.9464   -7952.5519    283.03792    27233.299    3.7076548 
    7520    428.60957   -8000.4388   -7952.6267     255.1938    27232.933    3.7167682 
    7530    418.38676   -7999.4024   -7952.7307    343.01302    27233.774    3.7247276 
    7540    419.33852   -7999.6268    -7952.849    402.62814    27236.163    3.7310341 
    7550    425.95035   -8000.4962   -7952.9808    398.56528    27240.367    3.7359752 
    7560    428.75307    -8000.965   -7953.1369    359.72428    27246.361    3.7404464 
    7570    429.87832   -8001.2755    -7953.322    236.20738    27253.933    3.7449241 
    7580    437.25267    -8002.317   -7953.5408    64.628038     27262.55    3.7493172 
    7590    440.16527   -8002.9046   -7953.8035   -22.988078    27271.497    3.7546516 
    7600    434.30308   -8002.5501   -7954.1029   -65.431943     27280.35     3.761856 
    7610    431.47421    -8002.552   -7954.4204   -133.01815    27288.881    3.7701825 
    7620    422.06372   -8001.8109    -7954.729   -94.725496    27296.848    3.7792234 
    7630    416.95585   -8001.5142   -7955.0021   -94.769923    27304.368    3.7889957 
    7640    417.28798   -8001.7784   -7955.2293   -189.58478    27311.409    3.7996933 
    7650    410.50128   -8001.1978   -7955.4058   -159.55498    27317.629    3.8115279 
    7660    407.27493   -8000.9663   -7955.5342   -65.860222    27323.139    3.8234198 
    7670    412.17397   -8001.6011   -7955.6224   -66.294102    27328.307    3.8338127 
    7680     420.9519   -8002.6533   -7955.6955   -146.80243    27333.133    3.8422961 
    7690    419.13592   -8002.5244   -7955.7692   -159.30655    27337.318    3.8495372 
    7700    417.75167   -8002.4505   -7955.8496   -237.76252    27340.736    3.8562701 
    7710     412.3894   -8001.9361   -7955.9335   -379.79284    27343.033    3.8635161 
    7720     404.6753    -8001.152   -7956.0099   -381.18088    27343.648    3.8708103 
    7730    406.96761   -8001.4668    -7956.069   -314.39933    27342.535    3.8768931 
    7740    413.49165   -8002.2395   -7956.1138   -218.30502    27340.002    3.8826392 
    7750    416.08361   -8002.5686   -7956.1539   -132.76357    27336.491    3.8906454 
    7760      418.007   -8002.8275   -7956.1982   -189.27332    27332.318    3.9015584 
    7770    417.13948   -8002.7832   -7956.2507   -121.70855    27327.365    3.9130419 
    7780    418.36464   -8002.9823   -7956.3131   -35.308728    27321.867     3.922336 
    7790    420.64566   -8003.3124   -7956.3887    136.82545    27316.274    3.9291713 
    7800    423.45538   -8003.7192   -7956.4821    288.09974    27311.316    3.9350015 
    7810    429.03429   -8004.4655   -7956.6061    317.47833    27307.616    3.9411573 
    7820    423.98315   -8004.0613   -7956.7654    416.77444    27305.397    3.9477319 
    7830    426.28992    -8004.512   -7956.9587    360.38059    27305.001      3.95317 
    7840    432.48341   -8005.4403   -7957.1961    117.49345    27306.179    3.9567719 
    7850    421.40655   -8004.4826   -7957.4741   -60.322618    27307.939    3.9602126 
    7860    412.03239   -8003.7307   -7957.7679   -158.32992    27309.463    3.9654167 
    7870     406.8985   -8003.4426   -7958.0525   -224.58956    27310.283    3.9723707 
    7880    408.09782   -8003.8404   -7958.3164   -254.19189    27310.101    3.9787744 
    7890     411.9317   -8004.5174   -7958.5658   -299.51307    27308.737    3.9835988 
    7900    403.31835   -8003.7847   -7958.7939   -196.98784      27306.1    3.9886707 
    7910     399.6639   -8003.5723   -7958.9892     -147.215    27302.554     3.995191 
    7920    399.43374   -8003.7021   -7959.1447   -147.92095    27298.315    4.0021642 
    7930    399.53718   -8003.8313   -7959.2623   -113.97511    27293.433    4.0074347 
    7940     401.8953     -8004.18    -7959.348   -58.233454    27288.051    4.0102912 
    7950    401.66116   -8004.2124   -7959.4065    137.43132    27282.498    4.0115132 
    7960    405.30359   -8004.6523   -7959.4401    236.84998    27277.528    4.0117983 
    7970    419.68806   -8006.2805   -7959.4637     171.4225    27273.563    4.0113219 
    7980    426.87415   -8007.1218   -7959.5034    117.01364    27270.401     4.009105 
    7990    418.81271   -8006.2887   -7959.5695     161.5279    27267.835    4.0033255 
    8000    413.54003    -8005.782    -7959.651    152.73683    27265.976    3.9932697 
    8010     409.4877   -8005.4118   -7959.7329    108.46158    27264.792    3.9805531 
    8020    404.73825    -8004.956   -7959.8068    100.28502    27264.114    3.9678209 
    8030    402.72039   -8004.7891    -7959.865    37.127325    27263.865    3.9566904 
    8040    400.24384   -8004.5508    -7959.903   -75.926516    27263.774    3.9469838 
    8050    394.79255   -8003.9551   -7959.9154    -139.0238     27263.37    3.9382249 
    8060    393.43925   -8003.7794   -7959.8906   -81.773755    27262.387    3.9297222 
    8070     404.1392   -8004.9063   -7959.8239    -29.34605    27261.024    3.9210361 
    8080    415.11868   -8006.0348   -7959.7277    51.448496    27259.541    3.9135866 
    8090    413.41242   -8005.7337   -7959.6169    135.49073    27258.303    3.9085174 
    8100     409.3253   -8005.1534   -7959.4925     81.16635    27257.622    3.9052319 
    8110    407.93199   -8004.8456   -7959.3402   -3.8733689    27257.308    3.9030962 
    8120    411.19653   -8005.0184   -7959.1488   -59.587541    27256.989    3.9007367 
    8130    405.74492   -8004.1688   -7958.9073    42.682641     27256.47    3.8956862 
    8140     403.1222   -8003.5725   -7958.6036    133.19021    27256.125    3.8861777 
    8150    407.65494    -8003.695   -7958.2205    143.57747    27256.365    3.8730357 
    8160    412.43483   -8003.7713   -7957.7636    49.757439    27257.223     3.857987 
    8170    415.60228   -8003.6209   -7957.2598   -5.3004014    27258.331    3.8419173 
    8180    421.98953   -8003.8209   -7956.7473    105.83014    27259.505    3.8255269 
    8190    434.79736   -8004.7743    -7956.272     179.4756    27261.148    3.8101088 
    8200    444.36105   -8005.4518   -7955.8826    257.54703    27263.614    3.7971751 
    8210    437.88238   -8004.4562   -7955.6098    447.16002    27267.322    3.7876282 
    8220    428.01191   -8003.1823   -7955.4369    592.57819     27273.07    3.7809312 
    8230    425.04013   -8002.7412   -7955.3274    643.71659    27281.506    3.7761645 
    8240    425.52163   -8002.7252   -7955.2576    523.22952    27292.829     3.773547 
    8250    424.10214   -8002.5284   -7955.2192    208.47479    27306.488    3.7739252 
    8260    419.11615   -8001.9539   -7955.2009   -114.26843    27321.145    3.7773934 
    8270    422.19247    -8002.296   -7955.1998   -336.35684    27335.371    3.7823062 
    8280    425.33654   -8002.6669   -7955.2199   -350.57634    27348.217    3.7866555 
    8290    426.93616    -8002.895   -7955.2696   -314.38974    27359.522    3.7891753 
    8300    428.05881   -8003.1018   -7955.3512   -386.50746    27369.381    3.7886963 
    8310    424.11861    -8002.775   -7955.4639   -397.95898    27377.533    3.7855529 
    8320    417.77716   -8002.2011   -7955.5974   -324.30278    27383.948     3.782748 
    8330    411.94258   -8001.6912   -7955.7384   -366.97701    27388.854    3.7826208 
    8340     408.2234   -8001.4112   -7955.8732   -472.12808    27392.076    3.7845575 
    8350    412.24418    -8001.987   -7956.0005   -573.91208     27393.15    3.7864856 
    8360    414.95076   -8002.4155   -7956.1271   -541.31436    27391.659    3.7867306 
    8370    415.96375   -8002.6609   -7956.2595   -434.69863    27387.718     3.784578 
    8380    416.65036   -8002.8758   -7956.3978   -418.15279    27381.736     3.780414 
    8390    416.75461   -8003.0325   -7956.5429    -421.5732    27373.814    3.7756414 
    8400    414.21217   -8002.8987   -7956.6927    -306.1795    27363.995    3.7722426 
    8410    412.13166   -8002.8193   -7956.8454   -94.268067    27352.788    3.7712659 
    8420    407.85453   -8002.4912   -7956.9944    102.37912    27341.102    3.7728378 
    8430    401.74529    -8001.948   -7957.1327    193.71911    27329.792    3.7765541 
    8440    397.14614   -8001.5522     -7957.25    218.34214    27319.275    3.7809356 
    8450    395.86584   -8001.4972   -7957.3378    364.80789    27309.766    3.7849201 
    8460    400.83045    -8002.112   -7957.3988    545.45825    27301.891    3.7889183 
    8470    399.85372   -8002.0411   -7957.4369    701.40974     27296.45    3.7932352 
    8480    398.72594   -8001.9313   -7957.4529    810.64376     27294.15    3.7962028 
    8490    405.83952   -8002.7161   -7957.4441    856.87247    27295.479    3.7958457 
    8500    412.79991   -8003.4674   -7957.4189    909.48584    27300.711    3.7926664 
    8510    408.38932   -8002.9417   -7957.3852    853.27198    27310.079    3.7887176 
    8520     402.4468   -8002.2267   -7957.3331    636.87081    27323.351    3.7849168 
    8530    404.66542   -8002.3861    -7957.245     352.0664    27339.578    3.7823869 
    8540    403.63085   -8002.1386    -7957.113    296.96782    27357.633    3.7836853 
    8550    399.90267   -8001.5371   -7956.9273    284.01271     27377.19    3.7891756 
    8560    404.34744   -8001.7679   -7956.6623    34.739309    27398.071    3.7959172 
    8570     414.3903   -8002.5299    -7956.304   -296.97386    27419.224    3.8013087 
[...]
   22890    419.55535   -8045.5355   -7998.7335    966.38212    25090.459    9.9839242 
   22900    427.27358   -8046.2687   -7998.6057    984.14418    25087.322      9.99489 
   22910    425.49929   -8045.9592   -7998.4941     960.7467    25087.972    10.006615 
   22920    427.89101   -8046.1363   -7998.4044    655.08637    25092.203    10.021701 
   22930    433.13083   -8046.6548   -7998.3384    212.91319    25098.893    10.039306 
   22940    437.85069   -8047.1576   -7998.3147    -363.0535    25106.302    10.055458 
   22950    434.98594   -8046.8702   -7998.3469    -775.3662    25112.356    10.067674 
   22960    433.66084   -8046.8227   -7998.4472   -914.46679    25115.497    10.076318 
   22970    434.49689   -8047.1031   -7998.6343   -827.61216    25115.199    10.082393 
   22980    427.23162   -8046.5793    -7998.921   -676.30187    25111.749    10.085528 
   22990    423.47409   -8046.5429   -7999.3037   -570.50896    25105.734    10.085027 
   23000    427.84249   -8047.5045   -7999.7781   -754.86545    25097.458    10.083513 
   23010    428.41299   -8048.1216   -8000.3315   -760.58944    25086.429    10.086442 
   23020    424.52509   -8048.2718   -8000.9154   -581.74954    25072.611    10.096998 
   23030    427.57174   -8049.1793    -8001.483   -427.79455    25056.603    10.114007 
   23040    426.43602   -8049.5742   -8002.0046    -243.8265    25039.037    10.136052 
   23050    415.94756   -8048.8491   -8002.4495   -69.609249    25020.624    10.161176 
   23060    408.45306   -8048.3716    -8002.808   -126.31675    25001.944    10.185715 
   23070    395.09174   -8047.1529   -8003.0798   -274.63098    24982.856    10.206205 
   23080    389.63558   -8046.7329   -8003.2685    -517.4735    24962.774    10.220007 
   23090    396.11342   -8047.5808   -8003.3937   -779.81554    24940.797    10.227686 
   23100    396.05853   -8047.6542   -8003.4733   -618.43763    24916.146     10.23352 
   23110    390.78461    -8047.099   -8003.5064   -214.91216    24889.368    10.242382 
   23120    398.40782   -8047.9355   -8003.4925    133.16384    24861.888    10.257719 
   23130    413.12202   -8049.5293   -8003.4449    277.54112    24835.003    10.280514 
   23140    423.45538    -8050.636   -8003.3989    111.18924    24809.187    10.309684 
   23150    415.43953   -8049.7151   -8003.3722    32.917897    24783.965    10.342082 
   23160    404.03499   -8048.4239   -8003.3532   -37.170569    24759.021    10.372363 
   23170    407.73154    -8048.808   -8003.3249   -323.80876    24733.995    10.396734 
   23180    420.59849   -8050.2101   -8003.2917   -455.22145    24707.958    10.416117 
   23190    431.74973   -8051.4367   -8003.2744   -318.01162    24680.483    10.434069 
   23200     433.9441   -8051.7019   -8003.2948    30.523308    24652.093    10.453426 
   23210    425.47269   -8050.8162   -8003.3541    362.59893    24624.027    10.475584 
   23220    419.27848   -8050.2134   -8003.4422    485.75353    24597.436    10.502065 
   23230    409.43988   -8049.2149   -8003.5412    763.55134    24572.899    10.532691 
   23240    403.36538   -8048.6282   -8003.6321      1027.19    24551.324    10.561663 
   23250     409.4479   -8049.3888   -8003.7143    1110.0197    24533.607    10.581992 
   23260    416.53893   -8050.2652   -8003.7997    1046.4555    24520.038    10.592368 
   23270    425.54441   -8051.3778   -8003.9077    829.37573    24510.319    10.595248 
   23280    431.60518   -8052.2028   -8004.0566    590.51902    24503.667     10.59478 
   23290    430.58743   -8052.2896   -8004.2569    468.15645     24499.27     10.59466 
   23300    429.72054   -8052.4455   -8004.5095    213.64229    24496.555    10.597466 
   23310    427.59338    -8052.508   -8004.8093    16.477784     24494.68    10.606883 
   23320    427.95378   -8052.8885   -8005.1496   -264.30674     24492.84    10.625216 
   23330    426.07901   -8053.0531   -8005.5233   -318.98663    24490.117     10.64975 
   23340    417.14438   -8052.4369   -8005.9038   -12.033631    24486.381    10.672655 
   23350    414.49851   -8052.5053   -8006.2674    267.66476    24482.618    10.687932 
   23360    415.88514   -8052.9947   -8006.6021     370.3818    24479.783    10.694988 
   23370    415.51913   -8053.2618     -8006.91    395.51516    24478.298    10.697584 
   23380    404.10047   -8052.2542   -8007.1762    440.68768    24478.276    10.701177 
   23390    402.14219   -8052.2473   -8007.3878    372.25832    24479.829    10.707634 
   23400    417.20413   -8054.1016   -8007.5619    93.626912    24482.665    10.717657 
   23410     426.8196   -8055.3388   -8007.7264   -128.37311    24485.862    10.729689 
   23420    434.83362    -8056.419   -8007.9127   -289.02984    24488.591    10.738735 
   23430    425.65351   -8055.6039   -8008.1216   -190.31215    24490.361    10.743977 
   23440     418.8487   -8055.0625   -8008.3393   -240.39861    24491.379    10.747055 
   23450    418.28695   -8055.2116   -8008.5511   -501.76869    24491.456    10.751714 
   23460    413.58321   -8054.8905   -8008.7547   -663.57463    24489.739    10.760814 
   23470     405.8998   -8054.2166   -8008.9379   -589.77936    24485.698    10.774322 
   23480    408.58042   -8054.6757    -8009.098   -419.63126    24479.542    10.789261 
   23490    409.37131   -8054.9027   -8009.2367   -149.63445    24471.935    10.800985 
   23500    412.16241   -8055.3356   -8009.3582    60.699188    24463.823    10.805439 
   23510    418.00332    -8056.102   -8009.4731    147.95483    24455.908    10.802571 
   23520    411.03951   -8055.4402   -8009.5882      334.339    24448.594    10.795593 
   23530     408.0038   -8055.2119   -8009.6985    348.82139    24442.466    10.786178 
   23540    415.50748   -8056.1553   -8009.8048    154.57766    24437.542    10.776346 
   23550     413.0184   -8055.9827   -8009.9099    96.592704    24433.256    10.770164 
   23560    415.86564   -8056.4095    -8010.019   -69.348586    24429.288    10.767818 
   23570    421.86116   -8057.1986   -8010.1393   -213.31357      24425.1    10.764567 
   23580    414.49929     -8056.51    -8010.272   -63.043957    24420.262    10.756421 
   23590    406.49968   -8055.7468   -8010.4011    185.23809    24415.237    10.744689 
   23600    412.29034   -8056.5137   -8010.5221    365.24914    24410.897    10.733452 
   23610    410.96355    -8056.482   -8010.6384    633.46465    24407.946    10.726621 
   23620    400.98529   -8055.4757   -8010.7452    875.36471    24407.305    10.725992 
   23630    401.52461   -8055.6241   -8010.8334    827.22142    24409.732     10.73135 
   23640    407.23597    -8056.332   -8010.9042    705.68283    24415.109    10.741824 
   23650    410.56698   -8056.7652   -8010.9658    732.45653    24423.051    10.752965 
   23660    411.88005   -8056.9736   -8011.0277    782.78802    24433.579    10.761234 
   23670    404.43293   -8056.2023   -8011.0872      899.333    24446.905    10.764717 
   23680    409.93501   -8056.8721   -8011.1433     736.9658    24463.289    10.761711 
   23690    416.84789   -8057.7036   -8011.2036    497.21766    24482.203    10.754165 
   23700    402.36638   -8056.1544   -8011.2699    463.37041    24502.883    10.746487 
   23710    399.81004   -8055.9214    -8011.322    71.205341    24524.979    10.742743 
   23720    405.50731   -8056.5793   -8011.3443   -520.96349    24547.077    10.744142 
   23730    406.09875   -8056.6484   -8011.3474   -775.96423    24567.195    10.749287 
   23740    411.09209   -8057.2063   -8011.3484   -827.41417    24584.342    10.757692 
   23750    404.04166   -8056.4221   -8011.3507   -672.92745     24598.38    10.766856 
   23760    400.62806   -8056.0363   -8011.3456   -682.07181    24609.774    10.770976 
   23770    413.48546   -8057.4469    -8011.322   -963.43607    24618.457    10.768324 
   23780    422.47033   -8058.4184   -8011.2912   -1172.9385    24623.543    10.763776 
   23790    420.09382   -8058.1329   -8011.2708   -1360.2762    24624.258     10.76251 
   23800    410.86887   -8057.0904   -8011.2574   -1429.0329    24620.004    10.766345 
   23810    406.69467   -8056.6065   -8011.2391   -1282.1491    24610.643    10.774137 
   23820    402.85301   -8056.1433   -8011.2044   -1030.2567    24596.714    10.784521 
   23830    397.25364   -8055.4549   -8011.1407   -761.16158    24579.194    10.798393 
   23840    401.91427   -8055.8739   -8011.0398   -559.93043    24559.104    10.816998 
   23850     406.1832    -8056.209   -8010.8986    -232.8381    24537.288    10.838022 
   23860    408.98255   -8056.3461   -8010.7235     175.3913    24514.958    10.858766 
   23870    419.57341   -8057.3282   -8010.5241    342.17314    24493.512    10.880471 
   23880    431.55427   -8058.4629   -8010.3224    246.56647    24473.569    10.903463 
   23890     442.1611    -8059.476   -8010.1523   -5.6511125    24454.762    10.924328 
   23900    438.70122   -8058.9814   -8010.0436    -1.154799    24436.298    10.941978 
   23910    424.28942   -8057.3231   -8009.9929    116.76928    24418.145    10.957867 
   23920    428.95103   -8057.8306   -8009.9805     51.51207    24400.635     10.97254 
   23930    444.78048   -8059.6296   -8010.0137   -139.30194    24383.531    10.987451 
   23940    443.16689   -8059.5575   -8010.1215   -36.801192      24366.3    11.003748 
   23950    436.36759   -8058.9854   -8010.3079    101.01917    24349.217    11.019752 
   23960    430.04497    -8058.532   -8010.5599    199.62401    24332.749    11.035183 
   23970    420.26719   -8057.7341   -8010.8526    269.48524    24317.248    11.047514 
   23980    417.48953   -8057.7422   -8011.1706    167.36402     24302.89    11.054307 
   23990    413.65714   -8057.6393   -8011.4953    2.3782059    24289.347    11.057739 
   24000    418.01863   -8058.4508   -8011.8201   -235.17212    24276.003     11.06023 
   24010    427.56449   -8059.8492   -8012.1538   -306.80062     24262.09    11.063985 
   24020    432.15086   -8060.7156   -8012.5085   -144.91151    24247.367    11.069018 
   24030    428.00164   -8060.6233    -8012.879    181.22138    24232.408    11.075107 
   24040    430.94591   -8061.3272   -8013.2546    415.98367    24218.294    11.080439 
   24050    436.30767   -8062.3123   -8013.6415    612.82049     24205.87    11.082597 
   24060    428.75913   -8061.8564   -8014.0277     950.6967     24195.88    11.080075 
   24070    419.24353   -8061.1503   -8014.3831    1210.6827    24189.389    11.071265 
   24080    418.38601   -8061.3658   -8014.6942    1279.1312    24187.226     11.05747 
   24090    421.47756   -8061.9854    -8014.969    982.16112    24189.501    11.045277 
   24100    429.41938    -8063.128   -8015.2256    391.78871    24195.108    11.039972 
   24110    426.35059   -8063.0387   -8015.4787   -166.41793    24201.983    11.041225 
   24120    405.53887   -8060.9458   -8015.7073   -291.25403    24208.283    11.044896 
   24130    400.16502   -8060.5222   -8015.8832   -319.04875    24213.472    11.046068 
   24140    415.04642   -8062.3166   -8016.0176   -409.97399    24217.429     11.04423 
   24150     422.4307   -8063.2697   -8016.1469   -423.11242    24219.882    11.043212 
   24160    421.07656    -8063.266   -8016.2942   -263.11363    24220.868     11.04554 
   24170    422.94268   -8063.6444   -8016.4645   -285.77943    24220.831    11.051294 
   24180    421.13219   -8063.6287   -8016.6508   -391.51263    24219.755    11.057988 
   24190    424.07571   -8064.1603    -8016.854    -544.0297    24217.292    11.061653 
   24200    419.65922   -8063.8872   -8017.0735   -667.42144    24212.965    11.063178 
   24210    406.59236   -8062.6477   -8017.2917   -792.67935    24206.362    11.065724 
   24220    400.54691   -8062.1701   -8017.4885   -848.67933    24197.125    11.070124 
   24230    395.74179   -8061.7985   -8017.6529   -719.80125    24185.142    11.076182 
   24240    392.46333   -8061.5525   -8017.7727   -440.75128     24170.92    11.084703 
   24250    401.97555   -8062.6916   -8017.8507   -245.26343    24155.387    11.097419 
   24260    401.40723   -8062.6745   -8017.8969    166.34994    24139.396      11.1143 
   24270    397.95881   -8062.3092   -8017.9163    274.15545    24124.203    11.130062 
   24280    409.08758   -8063.5494    -8017.915   -185.90281      24110.1    11.141304 
   24290    415.55138   -8064.2628   -8017.9075   -749.08251    24095.592    11.149847 
   24300    420.74386   -8064.8507   -8017.9161   -1081.6591    24078.797      11.1552 
   24310    421.17546   -8064.9302   -8017.9474   -1026.9005    24058.682     11.15726 
   24320    414.45356     -8064.23   -8017.9971   -660.76542    24035.465    11.159725 
   24330    403.41832   -8063.0392   -8018.0373   -41.995621    24010.505    11.165212 
   24340     407.8683   -8063.5528   -8018.0544    322.40782    23985.829    11.172495 
   24350    416.74583   -8064.5445   -8018.0559    483.50859    23962.739    11.179948 
   24360    418.59529   -8064.7576   -8018.0626    478.39865    23941.739    11.188159 
   24370    417.44935   -8064.6543   -8018.0872     460.6089    23922.815    11.199384 
   24380    413.51855   -8064.2568   -8018.1282    546.11452    23905.914     11.21379 
   24390    409.91994   -8063.9069   -8018.1797    673.82259    23891.258    11.227747 
   24400    407.19628    -8063.656   -8018.2326    867.02863     23879.25     11.23856 
   24410    410.78508   -8064.1116   -8018.2879     929.3739    23870.429    11.245985 
   24420    414.69948   -8064.6112   -8018.3509    723.32926    23864.887    11.251061 
   24430    413.23565   -8064.5242   -8018.4272    497.98803    23861.918    11.257042 
   24440     406.6163   -8063.8723   -8018.5136    415.80209    23860.761    11.266391 
   24450    402.43739   -8063.4928   -8018.6003    514.80208    23861.126     11.27664 
   24460     399.6007   -8063.2587   -8018.6826    746.48636    23863.285    11.286353 
   24470    392.84281   -8062.5712    -8018.749    827.57643    23867.931    11.295679 
   24480    401.67788   -8063.5987   -8018.7909    569.21811    23875.253    11.303675 
   24490    411.90277   -8064.7575   -8018.8091     367.0338    23884.473    11.312074 
   24500    418.51281   -8065.5092   -8018.8235    137.47389    23894.816    11.322189 
   24510    416.13564   -8065.2669   -8018.8464    49.278217    23905.507    11.332756 
   24520    416.45826   -8065.3353   -8018.8787    91.040563    23916.246    11.340282 
   24530    427.05032   -8066.5668   -8018.9287   -33.146834     23927.09    11.343499 
   24540    420.74612   -8065.9457   -8019.0108   -43.109981    23937.711    11.345499 
   24550    408.90643   -8064.7323   -8019.1182   -145.47494    23948.017    11.348881 
   24560    408.91301   -8064.8509    -8019.236   -356.93832    23957.631    11.354522 
   24570    404.21305    -8064.442   -8019.3515   -253.62439    23965.967    11.359689 
   24580    406.05148   -8064.7584   -8019.4627    48.701237     23973.37    11.360833 
   24590    409.14473   -8065.2103   -8019.5696    197.54015    23980.804    11.360471 
   24600    412.15506   -8065.6585    -8019.682    136.96104    23988.771    11.362946 
   24610    406.97464   -8065.1975   -8019.7988    107.89424    23997.131    11.368876 
   24620    410.12831   -8065.6675   -8019.9171   -198.97128    24005.669    11.377337 
   24630    413.40642   -8066.1562   -8020.0401   -659.12777    24013.365    11.389234 
   24640    408.61868   -8065.7546   -8020.1726   -977.35215    24018.722    11.403785 
   24650    407.14416   -8065.7317   -8020.3141   -1315.7889    24020.577    11.414864 
   24660     401.4086    -8065.234   -8020.4562   -1527.1761     24017.86    11.417357 
   24670    398.29132   -8065.0168   -8020.5868    -1649.216    24009.872    11.411376 
   24680    403.60482   -8065.7286   -8020.7059   -1707.8776    23996.249    11.400507 
   24690    395.24526   -8064.8966   -8020.8064   -1422.7168    23976.985    11.389789 
   24700    387.15779   -8064.0543   -8020.8663   -1159.2396    23953.037    11.380875 
   24710    401.61297   -8065.6758   -8020.8752   -1159.4768    23925.363    11.373279 
   24720    412.23592   -8066.8343   -8020.8488   -1027.6367    23894.154    11.366051 
   24730    401.25457   -8065.5548   -8020.7943    -444.2897    23860.087    11.359749 
   24740     391.7971   -8064.3948   -8020.6893    49.213507    23825.077    11.357319 
   24750    401.74526   -8065.3354   -8020.5201    248.10436    23790.816    11.357165 
   24760     408.3167   -8065.8515   -8020.3032    372.45821    23758.059    11.354385 
   24770    409.19675   -8065.7092   -8020.0627    584.76924    23727.244    11.345928 
   24780    415.71227    -8066.178   -8019.8046    931.72223    23699.076    11.332356 
   24790    422.49507   -8066.6663   -8019.5363    1262.3086     23674.63    11.319659 
   24800    430.11951   -8067.2598   -8019.2793    1473.1594    23654.911    11.313749 
   24810    430.13891   -8067.0354   -8019.0528    1653.2447    23640.549    11.313563 
   24820    426.56864     -8066.45   -8018.8656    1751.1985    23632.018    11.313542 
   24830    427.25978    -8066.374   -8018.7125    1540.6778    23629.464    11.310432 
   24840    425.47541   -8066.0487   -8018.5863    1168.6823    23632.122    11.306153 
   24850    426.62056   -8066.0746   -8018.4844    900.12284    23638.714    11.303693 
   24860    425.28937   -8065.8476    -8018.406    842.45467    23648.302    11.302037 
   24870    423.65672   -8065.6141   -8018.3546    668.31956    23660.554    11.300865 
   24880    428.83592   -8066.1694   -8018.3322    213.18408    23674.803    11.302789 
   24890    421.53232   -8065.3609   -8018.3384   -159.93752    23689.589    11.309438 
   24900    411.44598   -8064.2615   -8018.3641   -365.35465    23703.665    11.318875 
   24910    412.99153   -8064.4639    -8018.394   -748.35314     23716.23    11.327183 
   24920    417.24017   -8064.9753   -8018.4315   -1086.2399     23726.09    11.335355 
   24930    409.11572   -8064.1189   -8018.4814   -1012.2953     23732.26    11.346843 
   24940    407.39492   -8063.9817   -8018.5362   -1013.7174    23734.857    11.358251 
   24950    407.56431   -8064.0504    -8018.586   -1071.3261    23733.947    11.363809 
   24960     402.2455   -8063.4995   -8018.6285   -900.06122    23729.501    11.362288 
   24970    407.61981   -8064.1303   -8018.6597   -563.01896     23722.13    11.358497 
   24980    423.05325   -8065.8823     -8018.69   -385.75961    23712.891    11.359116 
   24990    428.55998   -8066.5548   -8018.7483   -399.17062    23702.408    11.368082 
   25000    426.88332    -8066.478   -8018.8585   -434.87479    23690.699    11.384117 
Loop time of 16091.4 on 16 procs for 20000 steps with 864 atoms

Performance: 0.107 ns/day, 223.491 hours/ns, 1.243 timesteps/s
97.4% CPU use with 16 MPI tasks x 1 OpenMP threads

MPI task timing breakdown:
Section |  min time  |  avg time  |  max time  |%varavg| %total
---------------------------------------------------------------
Pair    | 14007      | 14882      | 15776      | 474.2 | 92.48
Bond    | 0.0025382  | 0.0071052  | 0.013347   |   4.0 |  0.00
Neigh   | 0.22235    | 0.25101    | 0.30204    |   5.4 |  0.00
Comm    | 273.94     | 841.63     | 1826.8     |1538.5 |  5.23
Output  | 2.2326     | 2.2595     | 2.6545     |   6.8 |  0.01
Modify  | 11.321     | 365.03     | 799.49     |1534.7 |  2.27
Other   |            | 0.1075     |            |       |  0.00

Nlocal:        54.0000 ave          68 max          45 min
Histogram: 5 2 1 2 1 0 1 0 2 2
Nghost:        454.438 ave         559 max         398 min
Histogram: 1 6 5 0 0 0 0 0 3 1
Neighs:         0.00000 ave           0 max           0 min
Histogram: 16 0 0 0 0 0 0 0 0 0
FullNghs:      2001.50 ave        3036 max        1392 min
Histogram: 4 3 3 1 1 0 0 0 0 4

Total # of neighbors = 32024
Ave neighs/atom = 37.064815
Ave special neighs/atom = 0.0000000
Neighbor list builds = 2000
Dangerous builds = 2000
Total wall time: 5:35:17
