LAMMPS data file via write_data, version 2 Aug 2023, timestep = 80000, units = metal

1536 atoms
3 atom types

-0.20087121453089551 25.131483459428722 xlo xhi
-0.1713393000972303 25.101951544995597 ylo yhi
-0.9438412880281106 75.73567802272224 zlo zhi

Masses

1 35.44999999088069
2 39.09829998994218
3 6.939999998214724

Atoms # full

2 0 2 1 0.4105152689745485 2.231685282493058 1.916570937835636 0 0 0
6 0 1 -1 3.584574665604083 2.123388340909741 1.6885735375734918 0 0 0
770 0 2 1 13.185274370478917 2.0848495498036907 1.955741133818766 0 0 0
774 0 1 -1 16.305302729003444 2.006843421926646 2.2130842834976954 0 0 0
1158 0 1 -1 22.648970228034674 2.0721700718145417 2.004108188815586 0 0 0
103 0 1 -1 0.763826387421242 5.328382410366748 1.9358388214010636 0 0 0
99 0 2 1 4.060108451961284 5.092336879076251 1.911816845810864 0 0 0
487 0 1 -1 6.933952551687297 4.083664140864307 1.9717669444851076 0 0 0
483 0 2 1 10.085309832458753 5.228258446600143 1.946133377907687 0 0 0
871 0 1 -1 13.347357904386246 5.155539514454085 2.0548137741393457 0 0 0
869 0 1 -1 16.592209857205354 4.875551177876605 -0.8992656066182927 0 0 0
867 0 2 1 16.470947990215222 5.243006921896886 2.093746008847341 0 0 0
1249 0 2 1 19.7826420416976 5.367725902109526 -0.850130346154035 0 0 0
1251 0 2 1 22.80683933664263 5.254105100843735 2.2482778151674596 0 0 0
1253 0 1 -1 22.91979877444132 5.902585922385075 -0.9276565398447154 0 0 0
104 0 1 -1 0.5372734536328284 8.422632963744938 75.63956264694421 0 0 -1
102 0 1 -1 3.905187415036191 8.185073168301212 2.3622166473319455 0 0 0
488 0 1 -1 7.015895217114237 8.418916686318322 -0.8318258638815783 0 0 0
482 0 3 1 7.568934289262988 9.00365894395721 1.3989974840700765 0 0 0
486 0 1 -1 9.928886932978159 8.284901572719674 1.8512388273592828 0 0 0
866 0 2 1 13.29269102440337 8.369530121727598 2.0608108157092775 0 0 0
870 0 1 -1 16.527330555559974 8.40459926569994 2.1685501012154873 0 0 0
868 0 3 1 16.366548286924196 9.104209700634232 -0.19537918406843058 0 0 0
1256 0 1 -1 18.58036052928372 8.374766331987525 75.60159997225199 0 0 -1
1250 0 2 1 19.593923005597674 8.213385530393653 1.9156409243596642 0 0 0
1252 0 3 1 23.517071111670784 8.195376426040117 -0.4014407487260282 0 0 0
1254 0 1 -1 22.84849306114834 8.284524037465491 1.9609090397966993 0 0 0
199 0 1 -1 0.6380045188198614 11.471997715517743 2.102138328370794 0 0 0
195 0 2 1 3.881250928008617 11.347784722826193 2.0806392101147333 0 0 0
583 0 1 -1 7.075561611128075 11.334407576218108 1.7899319574388675 0 0 0
579 0 2 1 10.18888551035606 11.609858402344912 2.008006082476334 0 0 0
961 0 2 1 13.348088760937372 11.403177914888298 75.36977604125737 0 0 -1
963 0 2 1 16.685531614448337 11.682186776623134 2.335155808861754 0 0 0
1351 0 1 -1 19.75335105118058 11.407427688000702 2.019712887337794 0 0 0
1349 0 1 -1 22.707949177814907 10.96275165535181 -0.9130121543676087 0 0 0
200 0 1 -1 0.6039638195777507 14.677283618077253 -0.8465281302011955 0 0 0
194 0 2 1 0.7290869663355203 14.689689945419994 2.2062276041338764 0 0 0
198 0 1 -1 3.985301922462755 14.785001906846356 1.9807584265263305 0 0 0
578 0 2 1 7.192493900029943 14.753724700326716 1.9567091375351762 0 0 0
582 0 1 -1 10.225579614818566 14.723554420909544 1.810735731644919 0 0 0
1348 0 2 1 22.557782401352046 14.34065157395655 -0.6067089894622057 0 0 0
289 0 2 1 0.8142956111458988 17.847485223843044 -0.8400936347599568 0 0 0
293 0 1 -1 3.8311668549545397 18.108613104600657 -0.5794174915286512 0 0 0
679 0 1 -1 7.108725600487868 18.151774453903155 1.8293781242091272 0 0 0
675 0 2 1 10.109542824957758 17.811304112225823 2.025535435705683 0 0 0
1063 0 1 -1 13.324472665450628 17.809976649093702 1.6212911260905818 0 0 0
1441 0 2 1 19.693105162394193 17.628163606506906 75.57045252603552 0 0 -1
1445 0 1 -1 22.96804186894514 17.80602769402457 -0.3776653578454259 0 0 0
1443 0 3 1 22.539908537907802 18.539358349336183 1.8358561872023076 0 0 0
290 0 2 1 0.91826438948244 20.97862838371083 1.9555589429986324 0 0 0
292 0 3 1 4.723487174463925 20.323481581861273 -0.19995390702666993 0 0 0
294 0 1 -1 4.053116404868459 21.090034450163127 2.0178957005308074 0 0 0
678 0 1 -1 9.744179927197168 20.94091497157518 2.22215012927129 0 0 0
1058 0 2 1 13.013999692825125 20.860343715237327 2.1763766425408684 0 0 0
1062 0 1 -1 16.57371742377455 21.005089595095864 2.020397179864853 0 0 0
1442 0 2 1 19.644651041116834 21.133230132035443 1.8945003352891083 0 0 0
1446 0 1 -1 22.8484776401422 20.817648756059235 1.9396095857581384 0 0 0
7 0 1 -1 0.6671124865686436 24.387282811171367 1.852508010220471 0 -1 0
3 0 2 1 3.9111847585580426 24.370651721594975 1.7407652149314043 0 -1 0
391 0 1 -1 7.011117774092133 24.813224404907825 1.9536738535800002 0 -1 0
387 0 2 1 10.24730467266004 24.12538383638853 2.2000019132329895 0 -1 0
389 0 1 -1 10.089363668869446 24.15115798716119 75.61707240848615 0 -1 -1
775 0 1 -1 13.319212639157854 24.074025263676667 2.003318197000149 0 -1 0
771 0 2 1 16.589500878910577 24.00962491706969 2.0802491025647423 0 -1 0
1159 0 1 -1 19.757230664957163 24.125193759358925 1.8563290823717744 0 -1 0
1155 0 2 1 22.882032921070717 24.074998343208062 1.8418741536507377 0 -1 0
16 0 1 -1 1.143073667965381 2.1117881946651895 5.154073525503116 0 0 0
12 0 2 1 4.185846198819437 1.9694564371217274 4.907099124895531 0 0 0
386 0 3 1 7.7029263483814105 1.8866388623059596 2.4736323564195537 0 0 0
400 0 1 -1 7.557041195053307 1.909061773870921 4.964194126716611 0 0 0
390 0 1 -1 10.091640780982107 2.0209843666525327 2.161270700598566 0 0 0
396 0 3 1 10.25059375543567 2.5130598241931343 4.66730631127929 0 0 0
784 0 1 -1 12.688755612020516 2.0313327746777525 5.167020890280946 0 0 0
780 0 2 1 16.571205582456592 2.082295911333428 5.220342882081907 0 0 0
1154 0 2 1 19.500026917699678 2.0369077956739843 1.869034452455475 0 0 0
1168 0 1 -1 19.640396989312837 2.508965182935379 4.960395363848711 0 0 0
1164 0 2 1 22.839304062943988 2.305877548822731 5.2313355173830525 0 0 0
105 0 2 1 0.9988914964666267 5.245891681519633 5.090929091897005 0 0 0
109 0 1 -1 4.102501055551783 5.352207719365398 5.150979828305619 0 0 0
489 0 2 1 7.173150809209965 5.194543447259105 5.008106974925476 0 0 0
493 0 1 -1 10.135393265895392 4.898848297996095 4.928208115455956 0 0 0
873 0 2 1 13.270351482833956 5.08777855335347 5.358579208906787 0 0 0
877 0 1 -1 16.773771500303788 5.301221069279932 5.177143050481482 0 0 0
1255 0 1 -1 19.643196148886254 5.205738886761417 2.397395366817584 0 0 0
1257 0 3 1 19.106403084682462 4.859974166726822 5.2446856634276084 0 0 0
1261 0 1 -1 23.297601105840066 5.434512334854269 5.167916053191923 0 0 0
98 0 2 1 0.7388026675281175 8.402935729060149 2.1108191429653536 0 0 0
112 0 1 -1 0.8372439315594142 8.395650952144743 5.344366546226002 0 0 0
108 0 3 1 4.455976475200248 7.647832498411529 4.596017914638251 0 0 0
496 0 1 -1 6.829242533190584 8.2116600647058 5.118508913119375 0 0 0
880 0 1 -1 13.228338480630343 8.403921060142824 5.19770256903833 0 0 0
876 0 2 1 16.72879985140001 8.460602217275746 5.284994938244195 0 0 0
1264 0 1 -1 19.821377245040203 8.844801362788065 5.207354975155182 0 0 0
1260 0 2 1 22.851806837681174 8.566307093331575 5.320945677838165 0 0 0
205 0 1 -1 3.893577923801997 11.935622810386961 5.279233168534156 0 0 0
585 0 2 1 6.9620183671546245 11.83520509640234 4.983364243993536 0 0 0
589 0 1 -1 10.237839182760219 11.225657582808623 5.013589341331076 0 0 0
969 0 3 1 12.684002953144532 10.798193029126324 5.1747673273384365 0 0 0
967 0 1 -1 13.302833028301182 11.34353759693215 2.793617398881174 0 0 0
973 0 1 -1 16.597467186751615 11.74340903285717 5.336227697569626 0 0 0
1347 0 2 1 22.853846603867378 11.39179033486365 2.225528055193534 0 0 0
204 0 2 1 4.203376549756287 15.088389845198144 5.32077761816252 0 0 0
592 0 1 -1 7.427326196873501 14.969691717820723 5.220734044703537 0 0 0
588 0 2 1 10.646458254199294 14.551895081825252 5.084023022833509 0 0 0
962 0 2 1 13.382729602081298 14.648570148997733 2.0810277517283255 0 0 0
966 0 1 -1 16.408328647342707 14.697048210368196 1.857812978327828 0 0 0
972 0 2 1 16.4961266408303 14.87417544746541 4.992504139972373 0 0 0
1360 0 1 -1 19.743291071261904 15.06189913291145 5.029772780675828 0 0 0
1350 0 1 -1 22.560810414578118 14.67477582195742 2.376598585583995 0 0 0
295 0 1 -1 1.0582428840388152 17.93685516990027 2.361172766602236 0 0 0
297 0 3 1 0.0394039815733081 17.396558826256488 4.36889562208418 0 0 0
291 0 2 1 4.090111527800772 18.0418079494445 2.589043306380799 0 0 0
685 0 1 -1 10.467530791740005 17.65547811382347 5.362519703729627 0 0 0
976 0 1 -1 13.478379446784428 15.654423303521556 5.10078184282498 0 0 0
1059 0 2 1 16.613969427315315 17.79026022392338 2.074062588538115 0 0 0
1069 0 1 -1 16.84399642173807 17.97577587880934 5.107803071973812 0 0 0
1447 0 1 -1 19.965745266397022 17.936912230950394 2.13339728528779 0 0 0
1346 0 3 1 20.61459945764376 15.808536867552853 2.9336549561940104 0 0 0
1453 0 1 -1 23.06086488784967 17.921687774622935 4.361744723040798 0 0 0
304 0 1 -1 0.7983652783973019 21.22117302264409 5.123578534591997 0 0 0
300 0 2 1 3.909056951888643 21.162942687488194 5.260605428098764 0 0 0
688 0 1 -1 6.971930968353647 20.870825579080066 4.930872402134248 0 0 0
674 0 3 1 7.424643137964292 20.27664390450488 2.747498099605018 0 0 0
1072 0 1 -1 13.414352825254204 20.30858055115805 5.361328487978417 0 0 0
1068 0 2 1 16.420214847690193 21.172301884386265 5.1738626800339125 0 0 0
1456 0 1 -1 19.867650730340703 21.526710838820375 5.1249821079346365 0 0 0
1452 0 2 1 22.976683007091765 20.96889363763261 4.8769446737364825 0 0 0
9 0 2 1 0.7938709435030521 24.274750396852923 5.062010188934598 0 -1 0
13 0 1 -1 4.052221324735552 24.289401201673577 4.9989946081747405 0 -1 0
393 0 2 1 7.214785763320385 24.03777028008114 5.003938983448346 0 -1 0
397 0 1 -1 10.292352788432133 23.600486273060415 5.171289231165367 0 -1 0
777 0 2 1 13.275952884577391 24.285781899794255 5.174025854326837 0 -1 0
781 0 1 -1 16.384433818288514 24.269024025752962 5.143352220346647 0 -1 0
1165 0 1 -1 22.750303713675684 24.31668933150626 5.0146823308326205 0 -1 0
10 0 2 1 0.9390722062292864 2.2122175985610757 8.308196740228231 0 0 0
14 0 1 -1 4.127524790938334 2.1706300106486656 8.131251333432196 0 0 0
394 0 2 1 7.232790967460307 2.3079964229681025 8.016534645576622 0 0 0
782 0 1 -1 16.668326678061955 2.3537412081175675 8.38056872623756 0 0 0
1162 0 2 1 19.776035223442435 2.260901463147308 8.222431097518324 0 0 0
1166 0 1 -1 23.053966442800345 2.0321440037989205 8.151659886054226 0 0 0
111 0 1 -1 1.0740902253814202 5.572135168521112 8.300297342152449 0 0 0
107 0 2 1 4.371962505497301 5.407436459061935 8.343449198720338 0 0 0
495 0 1 -1 7.596563773266632 5.367755260263736 8.409008470852008 0 0 0
879 0 1 -1 13.47361133784439 5.284550291003684 8.323657148004493 0 0 0
875 0 2 1 16.690632810580162 5.500689859862833 8.500095552413027 0 0 0
1263 0 1 -1 19.60868818572383 5.3681719778168695 7.519649609567566 0 0 0
1259 0 2 1 22.85366489574808 5.482452123855011 8.129401548009296 0 0 0
106 0 3 1 1.335995687232175 7.947066867386148 7.746641617374735 0 0 0
110 0 1 -1 3.593062679332117 8.389149960865192 8.133926997710317 0 0 0
490 0 2 1 6.799347254260384 8.681542830671653 8.028662332835186 0 0 0
492 0 2 1 10.16361646830705 8.178877971619855 5.231946855968879 0 0 0
494 0 1 -1 10.05622124887572 8.534099009428362 8.3603369833972 0 0 0
874 0 2 1 13.140466851453606 8.339815552702277 8.617886603748838 0 0 0
878 0 1 -1 16.392151785291222 8.598831490981096 8.52503849504801 0 0 0
1258 0 2 1 19.715191633923567 8.349585723616793 8.295527357811334 0 0 0
1262 0 1 -1 22.8654285049077 8.619770938652891 8.270811165400064 0 0 0
201 0 2 1 0.8224162669800819 11.629934562790265 5.379799157822074 0 0 0
207 0 1 -1 0.5900791915906644 12.210631464001372 8.467300479036105 0 0 0
203 0 2 1 3.7877449347683676 11.842156568545073 8.452224394180739 0 0 0
591 0 1 -1 6.878017955726514 11.681329722008991 8.1875312942462 0 0 0
587 0 2 1 9.920688261108324 11.665772997227643 8.187434457988381 0 0 0
975 0 1 -1 13.022324056922692 11.364934391102958 7.524678473851814 0 0 0
971 0 2 1 16.326172340585142 11.65627552141038 8.357684920141828 0 0 0
1353 0 2 1 19.764328166460352 11.738352454370268 5.161812395046524 0 0 0
1359 0 1 -1 19.60551753401607 11.865373757956583 8.405637223768867 0 0 0
1357 0 1 -1 23.03404777362574 11.770390988216294 5.45742326092076 0 0 0
1355 0 2 1 22.87616856519981 11.612492976843793 8.429348010595747 0 0 0
202 0 2 1 0.6457532223161346 15.316146852779683 8.430240173033559 0 0 0
206 0 1 -1 3.7381974520084973 15.129666949949023 8.331041146591772 0 0 0
590 0 1 -1 10.215356250531567 15.143296315761962 8.249065379879365 0 0 0
970 0 2 1 13.390711727449307 14.663488423204868 8.017035976556484 0 0 0
974 0 1 -1 16.490265329850665 14.75574583095546 8.243818613850042 0 0 0
1356 0 2 1 22.858898084568363 14.998336924929879 5.547667258002338 0 0 0
208 0 1 -1 0.876845094261578 15.291261716733308 5.278595139205298 0 0 0
299 0 3 1 3.5613302482385882 17.486731610793726 8.06738359496848 0 0 0
301 0 1 -1 4.475074038108942 18.085461326881877 6.085395049511056 0 0 0
586 0 3 1 8.620765912299483 16.64960485516278 6.6044530470563005 0 0 0
687 0 1 -1 8.062948145891477 18.266062598521184 8.103199647836709 0 0 0
1065 0 3 1 12.771774438949302 17.880318007717296 5.740356816097623 0 0 0
1071 0 1 -1 13.075623468291017 17.807678875245635 8.242833722414916 0 0 0
1067 0 2 1 16.493121471234033 17.9039897282193 8.291579835479897 0 0 0
1449 0 2 1 19.951557480830903 18.1446507147692 5.348652975434659 0 0 0
1358 0 1 -1 22.806548649150006 15.821697753341738 8.322429676458848 0 0 0
298 0 2 1 0.42552582339486067 20.808419250698787 8.17929991849348 0 0 0
302 0 1 -1 5.075465789020588 21.35297602716091 8.136513534419676 0 0 0
681 0 3 1 6.345727338865484 19.48758356531599 6.820175907681185 0 0 0
684 0 2 1 10.140744125292978 20.562013441375548 5.62292110802434 0 0 0
686 0 1 -1 9.949268997195992 21.493897136347886 8.532878257322187 0 0 0
1066 0 2 1 13.181109930899371 20.997297380295766 8.297640366307554 0 0 0
1070 0 1 -1 16.5868854581548 21.05635301512205 8.324058609555596 0 0 0
1450 0 2 1 19.729175757516444 21.04735546730919 8.268900225689036 0 0 0
1454 0 1 -1 22.692460979129766 20.274084293217204 7.8432723746115265 0 0 0
15 0 1 -1 0.8389774254181339 24.065115969345026 8.191325937022398 0 -1 0
11 0 2 1 4.023028254251966 24.4187087101617 8.092713997798716 0 -1 0
399 0 1 -1 7.3633771898548686 24.521423783139337 8.300040588769194 0 -1 0
395 0 2 1 10.474028039602501 24.583236504352726 8.185036500182104 0 -1 0
783 0 1 -1 13.544706057378727 24.11782456232057 8.294994189379894 0 -1 0
779 0 2 1 16.68177155079025 24.47874936051471 8.156635037814157 0 -1 0
1161 0 3 1 20.46542610060226 23.729669909682052 5.719752354532966 0 -1 0
1167 0 1 -1 19.9425063820536 24.28714827336437 7.969601717171656 0 -1 0
1163 0 2 1 22.9468000516798 24.203257780578777 8.160366711574294 0 -1 0
24 0 1 -1 0.9610515560202082 2.4376706797230434 11.327757953325891 0 0 0
20 0 2 1 4.168399388802655 2.519971106165559 11.246280546185393 0 0 0
408 0 1 -1 7.2448328362565615 2.515667323709209 11.207775500120338 0 0 0
398 0 1 -1 10.360519577178719 2.320013291720694 9.313681767296156 0 0 0
404 0 3 1 11.121152517206617 1.6337712967199216 11.652326668438143 0 0 0
792 0 1 -1 13.367717582544548 2.24611522799209 11.081740520956407 0 0 0
788 0 2 1 16.663438837489945 2.1595373180623514 11.445293283234877 0 0 0
1176 0 1 -1 19.87391115324932 2.27315462819289 11.310851172989222 0 0 0
1172 0 2 1 23.03903165758357 2.525073494244426 11.334854847358779 0 0 0
113 0 2 1 0.915040116588661 5.622523812550116 11.398201742454745 0 0 0
117 0 1 -1 3.9453636841984494 5.550775134529753 11.38358204234502 0 0 0
491 0 3 1 8.873076638145227 4.117654656010586 10.237840524598163 0 0 0
501 0 1 -1 10.086637004748868 5.885482656467595 11.405508382934517 0 0 0
778 0 3 1 12.423472471629863 3.143789380148395 8.951735622251945 0 0 0
881 0 2 1 13.22646881755988 5.60042427467182 11.491467908916007 0 0 0
885 0 1 -1 16.494573891784654 5.325768317121975 11.694347965494995 0 0 0
1269 0 1 -1 23.108922352184933 5.53856272906776 11.277199559323858 0 0 0
116 0 2 1 3.9599984356867477 8.602965455973909 11.358536396052864 0 0 0
497 0 3 1 8.838473961690164 7.140399063838661 10.006876209200426 0 0 0
504 0 1 -1 7.272897469314492 8.459209592042068 11.16666144466434 0 0 0
884 0 2 1 16.60285106522387 8.568214975684281 11.714300358550963 0 0 0
1272 0 1 -1 19.807539620118675 8.594161206843227 11.526488991324976 0 0 0
1268 0 2 1 23.01399192791717 8.788441039153293 11.342696124248057 0 0 0
209 0 2 1 0.7974304910499063 11.926180266382003 11.643822309008062 0 0 0
213 0 1 -1 3.876419696919106 11.816633469223675 11.589155613578631 0 0 0
593 0 2 1 7.14917233634989 11.769540069483252 11.379920480247737 0 0 0
597 0 1 -1 10.454796456909957 11.619215377837245 11.612632699060107 0 0 0
888 0 1 -1 13.470030523725088 8.781495560703176 11.685119667369872 0 0 0
981 0 1 -1 16.272287855597742 11.809619217256543 11.690287308791225 0 0 0
1361 0 2 1 19.43802584343699 11.698783660438458 11.48758982454092 0 0 0
1365 0 1 -1 22.838789141884142 11.968620912297471 11.671936392846932 0 0 0
216 0 1 -1 0.9093387672589033 15.19113369117889 11.467889848354734 0 0 0
212 0 2 1 4.23916671320621 14.945019900853167 11.454940315360815 0 0 0
600 0 1 -1 7.260617586578153 15.153604892320466 11.75025601519648 0 0 0
596 0 2 1 10.2302715036604 14.761955645969424 11.400040867520705 0 0 0
984 0 1 -1 13.463987383344097 14.418727918846082 11.468924252067378 0 0 0
980 0 2 1 16.715430385480403 14.855010125503126 11.575644593836897 0 0 0
1354 0 2 1 19.71188968308368 14.816170532032293 8.334313491563085 0 0 0
1368 0 1 -1 19.573883878299625 14.834101072349668 11.533006064177856 0 0 0
1364 0 2 1 22.842180700469207 15.121747622770885 11.437590733873414 0 0 0
303 0 1 -1 1.554103395669376 18.23349193159253 9.091535258843315 0 0 0
305 0 3 1 1.7573182193225292 17.554351582448298 11.285022232984664 0 0 0
689 0 2 1 7.33078232285234 18.10093512885767 11.320320184490287 0 0 0
683 0 3 1 10.662776919854586 17.41451120891833 8.805059572542671 0 0 0
693 0 1 -1 10.420075776028064 17.840056539086426 11.245999757974525 0 0 0
1073 0 2 1 13.562795223837822 17.786116390558064 11.30258458532671 0 0 0
1077 0 1 -1 16.48578864790034 17.84043001800434 11.400863198435323 0 0 0
1455 0 1 -1 19.624564610574232 18.07120716831346 8.414253919546162 0 0 0
1451 0 3 1 21.99208131152267 18.064220588179 8.961342312774596 0 0 0
1461 0 1 -1 22.562944807124538 18.204252003780322 11.283681591129707 0 0 0
312 0 1 -1 0.7329326535185213 21.557325203547652 11.307155127267796 0 0 0
308 0 2 1 3.7453015346870004 21.182876785061367 11.122957989457031 0 0 0
696 0 1 -1 7.1643810397996495 21.539817970613537 11.20357449052775 0 0 0
692 0 2 1 10.230664587350839 21.336866839238755 11.58165146458263 0 0 0
1080 0 1 -1 13.432936896415022 20.86573030235523 11.41806821778925 0 0 0
1076 0 2 1 16.533810340129975 20.968578422811966 11.243182343820294 0 0 0
17 0 2 1 1.0314023422718825 24.596887820826733 11.704864051681234 0 -1 0
21 0 1 -1 4.153685490976877 24.45144389465459 11.325440534788063 0 -1 0
682 0 3 1 7.352132820639609 22.06128152574805 8.834732128515851 0 0 0
401 0 2 1 7.296005049157021 24.664947002167576 11.383179914080534 0 -1 0
405 0 1 -1 10.478516361629435 24.59624298410057 11.332230135508707 0 -1 0
785 0 2 1 13.738277760238224 24.16584808530185 11.397419556428787 0 -1 0
789 0 1 -1 16.863228036842482 24.124173374772013 11.222593585576965 0 -1 0
1169 0 2 1 19.886065794495806 24.410600203117323 11.421915011488403 0 -1 0
1173 0 1 -1 23.265511207534743 24.029840068716485 11.386624268735734 0 -1 0
18 0 2 1 0.9952141676344946 2.6433590756254857 14.601032643157914 0 0 0
22 0 1 -1 4.2296308015253 2.607624959663019 14.540318914027532 0 0 0
402 0 2 1 7.475092150485991 2.4464830994819335 14.444940963214194 0 0 0
406 0 1 -1 10.568030739009142 2.1116209941671595 13.939689685581127 0 0 0
786 0 2 1 13.716320129092022 2.220495318531407 14.439927493042992 0 0 0
790 0 1 -1 16.757477623966658 2.5814891067446752 14.539900141963082 0 0 0
1170 0 2 1 19.813206230185727 2.2087596410325387 14.329600579651515 0 0 0
1174 0 1 -1 23.19035608724381 2.372539392109727 14.51427877778352 0 0 0
119 0 1 -1 0.8956727512077567 6.013632557169072 14.749256520238209 0 0 0
115 0 2 1 4.2200552134769085 5.616134205926552 14.534782256045165 0 0 0
503 0 1 -1 7.215335000325085 5.399602248070193 14.905927057922478 0 0 0
499 0 2 1 10.243021032969216 5.136730749103009 14.653300884857627 0 0 0
887 0 1 -1 13.421569634115958 5.373039972163819 14.608817873536562 0 0 0
883 0 3 1 17.17396877172497 4.898807821933445 14.06896149052631 0 0 0
1271 0 1 -1 19.495397738801188 5.403231964649707 14.656284157031186 0 0 0
1267 0 2 1 22.86417951434157 5.7883135039710085 14.3906016091446 0 0 0
120 0 1 -1 0.7609576860863024 8.711066960050877 12.191234588054312 0 0 0
114 0 3 1 1.5031101466439503 8.449941034853783 14.502875290382644 0 0 0
118 0 1 -1 3.8625641792666334 8.876249678605086 14.469061520608188 0 0 0
498 0 2 1 7.256807996434771 8.547615986693316 14.39656326015722 0 0 0
502 0 1 -1 10.450877433279611 8.849102249328102 14.494776885884733 0 0 0
882 0 2 1 13.564970468551522 8.593779875856214 14.816569914955943 0 0 0
886 0 1 -1 17.62768210011481 8.826632776027813 14.622291679028969 0 0 0
1265 0 3 1 19.555737394747723 7.648064742905027 13.681428147394046 0 0 0
1270 0 1 -1 21.64192085733 8.72661581332838 14.48779911195898 0 0 0
215 0 1 -1 0.6369575523892276 12.07807774206828 14.866326332485597 0 0 0
599 0 1 -1 6.918725520569417 11.967001390142046 14.48474966962874 0 0 0
500 0 3 1 11.087143850564308 9.240674230261908 12.233108017048089 0 0 0
595 0 2 1 10.22754561837537 11.964015077115457 14.763213919176623 0 0 0
983 0 1 -1 13.668549605691418 12.004052447338251 14.560010084514008 0 0 0
977 0 3 1 14.023300118084837 12.129121550798775 12.180769822446148 0 0 0
979 0 2 1 16.625855294275404 12.001337172754473 15.05672372204576 0 0 0
1363 0 2 1 22.83370022477975 12.046586449613924 14.70336361025962 0 0 0
210 0 2 1 0.7567612156627428 15.330198699148974 14.702896443358608 0 0 0
214 0 1 -1 3.875212487457876 15.111829067827347 14.532526337882437 0 0 0
594 0 2 1 7.207652165491495 15.160469396612056 14.839273720984247 0 0 0
598 0 1 -1 10.524046943726423 15.152134935925202 14.569308370028766 0 0 0
978 0 2 1 13.50004291302343 15.147767786426803 14.64498814367572 0 0 0
982 0 1 -1 16.593614470412458 15.03293001458386 14.808395089872652 0 0 0
1362 0 2 1 19.780418371486817 15.526702298301718 14.70054207072744 0 0 0
1366 0 1 -1 23.04108998505198 15.302820242639035 14.587787637539645 0 0 0
311 0 1 -1 1.0207236938886155 18.52335448646722 13.935917620337541 0 0 0
309 0 1 -1 4.154367843338831 18.091555842791276 11.447605543197936 0 0 0
307 0 2 1 4.001592540308992 18.346436169129937 14.477055144696523 0 0 0
695 0 1 -1 7.196978161885944 18.362978580354298 14.447635221354055 0 0 0
691 0 2 1 10.356597357783313 18.494134318400363 14.379278191233109 0 0 0
1079 0 1 -1 13.341919354987535 18.26626309472249 14.564372610812834 0 0 0
1075 0 2 1 16.484697271484073 18.125303180821895 14.40278224228746 0 0 0
1463 0 1 -1 20.05541696411961 18.53373245260978 14.389040563706395 0 0 0
1459 0 2 1 23.182764781568686 18.288298917101994 14.418233193180173 0 0 0
306 0 3 1 0.8973218059630357 20.816347830138998 13.6682088479402 0 0 0
310 0 1 -1 3.2770378299580503 21.64028117733975 14.434066134397678 0 0 0
690 0 2 1 6.6559126157961135 21.418811341561735 14.758976285349489 0 0 0
694 0 1 -1 11.232736485888998 21.382314772008666 14.5269806547464 0 0 0
1074 0 3 1 13.521432556325603 20.722040790054987 13.840877836957903 0 0 0
1078 0 1 -1 15.928614525577775 21.137761234573638 14.329736018207042 0 0 0
1464 0 1 -1 19.941079445333084 21.27977004261886 11.59014615722932 0 0 0
1458 0 2 1 19.291385819655495 21.64004540124255 14.582411650141507 0 0 0
1457 0 3 1 20.557847992246558 19.100535798386797 12.047860821035522 0 0 0
1462 0 1 -1 23.799042876549343 21.479725832581384 14.249965349334166 0 0 0
1460 0 3 1 23.862898014947564 21.822089157784482 11.894300324417307 0 0 0
19 0 2 1 4.417371537625752 24.636165964970946 14.432820955316155 0 -1 0
407 0 1 -1 7.373296374075568 24.57429235123522 14.658853255138004 0 -1 0
403 0 2 1 10.52842439071025 24.38521155873546 14.55950812369738 0 -1 0
791 0 1 -1 13.707273179717276 24.42681270089231 14.789633628748915 0 -1 0
1175 0 1 -1 20.063137430895313 24.507627181319705 14.581999652453076 0 -1 0
1171 0 2 1 23.39503417390785 24.50074369905016 14.892239890133787 0 -1 0
32 0 1 -1 0.8936778921087623 2.534655968179947 17.865684740125023 0 0 0
28 0 2 1 4.079984687238844 2.410465917879037 17.762395340317667 0 0 0
800 0 1 -1 13.399948554472836 1.73926799448463 18.00571671150391 0 0 0
796 0 2 1 16.638575378165186 2.1007640688741134 17.590232905327042 0 0 0
1180 0 2 1 23.08105647196747 2.7439239170532046 17.561093341324835 0 0 0
121 0 2 1 0.8900265935427816 5.97684106533986 17.831383535006353 0 0 0
125 0 1 -1 4.0559666674011385 5.710998596999238 17.558693516115774 0 0 0
505 0 2 1 7.094158014760116 5.62431942938094 17.91962632091833 0 0 0
509 0 1 -1 10.469671424560467 5.296483902794436 17.854035761592026 0 0 0
889 0 2 1 13.53820921498648 5.396537055352425 17.79329076297263 0 0 0
893 0 1 -1 16.580450495586884 5.538481678724772 17.821962952004927 0 0 0
1273 0 2 1 19.60588801288537 5.617144615508783 17.779915554971357 0 0 0
1277 0 1 -1 22.892873982161657 5.775176989120348 17.539811003059445 0 0 0
128 0 1 -1 0.7514371307103604 9.11051921517769 17.440899873429984 0 0 0
124 0 2 1 3.9887880608714923 8.935707102710023 17.702496621658447 0 0 0
512 0 1 -1 7.207423613565201 8.678424686517888 17.563095337072294 0 0 0
508 0 2 1 10.275931651408603 8.9253103778636 17.67613967933705 0 0 0
896 0 1 -1 13.335028818998316 8.894360797716402 17.714931152595412 0 0 0
892 0 2 1 16.69803520933739 8.729748458561629 17.70348636879163 0 0 0
1280 0 1 -1 19.868405890060334 8.988459818598132 17.884883426032438 0 0 0
1276 0 2 1 22.85468151736251 8.965401957874157 17.508624449628957 0 0 0
217 0 3 1 0.6318084508839794 11.58693830299288 17.30102481951738 0 0 0
211 0 2 1 3.750399919974392 11.991060389257548 14.680925764600826 0 0 0
221 0 1 -1 2.9746463816942468 11.928116159682741 18.060886158352933 0 0 0
605 0 1 -1 10.388278938352759 12.218015433641666 18.01164368430825 0 0 0
985 0 2 1 13.568884924361631 12.257947092662729 17.819973256459566 0 0 0
989 0 1 -1 16.627316572200286 11.723900849339516 18.11248107171391 0 0 0
1367 0 1 -1 19.80747043807507 12.199145047998138 14.943259972717682 0 0 0
1266 0 3 1 19.829990505169913 9.765977892648461 15.526520197664418 0 0 0
1369 0 2 1 19.76251266275318 12.347966365598 18.15822409209277 0 0 0
1373 0 1 -1 23.488733880824697 12.027581072533833 17.95462036941262 0 0 0
224 0 1 -1 0.9937704511850367 15.727497301059941 17.83949812483747 0 0 0
220 0 2 1 4.108967869646587 14.965435016519564 17.60498806888666 0 0 0
608 0 1 -1 7.368755064220284 14.878879061067693 17.809784204984705 0 0 0
604 0 2 1 10.590640604556736 15.531853903988273 17.820364286927006 0 0 0
992 0 1 -1 13.787695934098997 15.554427185171004 17.712100790858987 0 0 0
1376 0 1 -1 20.110305118815646 15.476391779360766 17.758334617433977 0 0 0
1372 0 2 1 23.22772737036876 15.25102950117929 17.8157087879326 0 0 0
313 0 2 1 1.1355234347667715 18.880491947863376 17.7023719244149 0 0 0
317 0 1 -1 4.4536189930458185 18.15705600630301 17.615322263143966 0 0 0
697 0 2 1 7.39132572608627 18.42099448400484 17.93441136447942 0 0 0
701 0 1 -1 10.616126146500367 18.49715870047678 17.745121896693625 0 0 0
1085 0 1 -1 16.73009368123166 18.173876572800854 17.519527126487045 0 0 0
988 0 3 1 15.964317709862662 15.94363295433207 18.204959463539964 0 0 0
1465 0 2 1 19.80323626470041 18.56617339718932 17.639869351171985 0 0 0
1469 0 1 -1 23.27835419485381 18.449818561456535 17.804746981092254 0 0 0
320 0 1 -1 0.8704132431723317 22.041058491689437 17.83057192281667 0 0 0
704 0 1 -1 7.546699516527916 21.461407324816037 17.79013333941406 0 0 0
700 0 2 1 10.717249702641316 21.697294755329576 17.78108399426986 0 0 0
1081 0 2 1 13.715518508788861 18.81889133984853 17.70340607782872 0 0 0
1472 0 1 -1 20.184385321436196 21.819203662111473 17.73108390516091 0 0 0
1468 0 2 1 23.18443277445674 21.743419888966127 17.815274557595753 0 0 0
23 0 1 -1 1.1723267395511237 24.79082887068947 14.716798439272742 0 -1 0
316 0 3 1 2.216083230226636 23.163620507466582 16.268860420870578 0 0 0
29 0 1 -1 3.7720912833112057 24.47430901928899 17.55276106869961 0 -1 0
409 0 2 1 7.321218641967888 24.512744561719547 17.859587231750236 0 -1 0
413 0 1 -1 10.705142893431752 24.70657583518693 17.537454170037176 0 -1 0
793 0 3 1 13.104027563337388 24.544412376609422 17.162461648833105 0 -1 0
787 0 3 1 15.247553736094627 22.956377795562222 15.891209013902685 0 -1 0
1088 0 1 -1 13.804751432429242 22.191998576360596 17.677130100278923 0 0 0
797 0 1 -1 16.552411173602433 24.371804287937223 17.278496823982024 0 -1 0
1177 0 2 1 19.629924884926407 24.713596862538747 17.71933318606687 0 -1 0
1181 0 1 -1 23.638024536357108 24.930026289883873 17.881512491500104 0 -1 0
26 0 2 1 1.058268506618935 2.678056876801973 21.00643300935641 0 0 0
30 0 1 -1 4.142264338405307 2.470769020785748 21.051612260397505 0 0 0
416 0 1 -1 7.238094963203895 2.496830405900503 18.22273543521064 0 0 0
410 0 3 1 6.608033822042481 3.0020042559568556 20.966523981074022 0 0 0
412 0 2 1 10.347452255853241 2.393634678456538 18.543174266207746 0 0 0
414 0 1 -1 11.28196128368652 1.2751685311807073 21.094281093367172 0 0 0
794 0 3 1 13.505474985604613 1.0262416867643656 20.317294576807015 0 0 0
798 0 1 -1 15.795952953725054 1.8121040836221116 20.769687939204452 0 0 0
1184 0 1 -1 20.08214755404662 2.668821892376152 17.92579710815739 0 0 0
1178 0 3 1 20.596323923735678 2.8072466891854244 20.332706843676515 0 0 0
1182 0 1 -1 23.02344309219557 2.7817479223356685 20.8688076442912 0 0 0
127 0 1 -1 0.7806777993583096 5.822501457542241 20.950000140116444 0 0 0
123 0 2 1 4.015794295134232 5.629557981984613 20.80755179084293 0 0 0