LAMMPS (29 Sep 2021 - Update 3)
OMP_NUM_THREADS environment is not set. Defaulting to 1 thread. (src/comm.cpp:98)
  using 1 OpenMP thread(s) per MPI task
units	metal
atom_style	full

read_data	mixed.data
Reading data file ...
  orthogonal box = (0.0000000 0.0000000 0.0000000) to (15.502212 15.402052 70.841525)
  2 by 1 by 8 MPI processor grid
  reading atoms ...
  864 atoms
Finding 1-2 1-3 1-4 neighbors ...
  special bond factors lj:    0        0        0       
  special bond factors coul:  0        0        0       
     0 = max # of 1-2 neighbors
     0 = max # of 1-3 neighbors
     0 = max # of 1-4 neighbors
     1 = max # of special neighbors
  special bonds CPU = 0.001 seconds
  read_data CPU = 0.015 seconds

pair_style	quip
pair_coeff	* * /ocean/projects/cts180021p/wuziqi/clease/mint-PD/PhaseDiagram-Clease/Liquid/GAP_potential/gap_LiKCl.xml "Potential xml_label=GAP_2021_9_27_0_1_17_37_618" 17 19 3

neighbor	0.3 bin
neigh_modify	delay 10

timestep	0.001
compute	msd all msd
thermo_style	custom step temp pe etotal press vol c_msd[4]
thermo	10
dump	1 all custom 10 xyz-mix.dump type id x y z
dump	2 all custom 10 force-mix.dump type id fx fy fz

fix     1 all nve
run     2000
Neighbor list info ...
  update every 1 steps, delay 10 steps, check yes
  max neighbors/atom: 2000, page size: 100000
  master list distance cutoff = 6.22
  ghost atom cutoff = 6.22
  binsize = 3.11, bins = 5 5 23
  1 neighbor lists, perpetual/occasional/extra = 1 0 0
  (1) pair quip, perpetual
      attributes: full, newton on
      pair build: full/bin
      stencil: full/bin/3d
      bin: standard
Per MPI rank memory allocation (min/avg/max) = 8.904 | 8.909 | 8.916 Mbytes
Step Temp PotEng TotEng Press Volume c_msd[4] 
       0            0   -6414.6092   -6414.6092   -8996.9866    16914.539            0 
      10    95.860065   -6425.3161   -6414.6228   -10882.275    16914.539 0.00077933166 
      20    229.03731    -6440.185   -6414.6355   -12475.142    16914.539 0.0093775226 
      30    249.34477   -6442.4428    -6414.628     -10213.3    16914.539  0.030212741 
      40    248.24655    -6442.315   -6414.6227   -8336.8682    16914.539  0.053808265 
      50    285.14769    -6446.437   -6414.6283   -8615.1952    16914.539  0.072000809 
      60    292.72184   -6447.2808   -6414.6272   -9342.9381    16914.539  0.087153748 
      70    280.17142   -6445.8771   -6414.6236   -9869.2499    16914.539   0.10198109 
      80    281.19207   -6445.9951   -6414.6277    -10294.65    16914.539   0.11798926 
      90    268.26029   -6444.5494   -6414.6246   -9784.8729    16914.539   0.13582886 
     100    263.60742   -6444.0319   -6414.6261   -9260.1077    16914.539   0.15297691 
     110    266.81408   -6444.3885    -6414.625   -9324.2282    16914.539   0.16905869 
     120    277.26539   -6445.5556   -6414.6262   -9888.0881    16914.539    0.1846357 
     130    285.07553   -6446.4267   -6414.6261    -10213.05    16914.539   0.20084172 
     140    284.14138   -6446.3223   -6414.6259   -10193.515    16914.539   0.21791648 
     150    279.03191   -6445.7517   -6414.6253   -10301.408    16914.539   0.23440376 
     160    280.06863   -6445.8685   -6414.6264   -10527.708    16914.539   0.24944995 
     170    273.73993   -6445.1618   -6414.6257   -10301.134    16914.539   0.26342452 
     180    268.00203    -6444.521   -6414.6249   -9641.2173    16914.539    0.2755889 
     190    273.83964   -6445.1737   -6414.6265   -9293.2599    16914.539   0.28642792 
     200    272.45085   -6445.0193    -6414.627   -9401.3798    16914.539   0.29775171 
     210    266.52225   -6444.3555   -6414.6245    -9739.952    16914.539   0.30975692 
     220    277.26483   -6445.5568   -6414.6275   -10274.008    16914.539   0.32155584 
     230    271.03398   -6444.8608   -6414.6265   -10197.129    16914.539   0.33326886 
     240    256.99297   -6443.2921   -6414.6241   -9796.9787    16914.539   0.34420392 
     250      260.518   -6443.6868   -6414.6256   -10082.712    16914.539   0.35319632 
     260    269.24542   -6444.6609   -6414.6262   -10817.477    16914.539   0.36024544 
     270    272.22344   -6444.9933   -6414.6263   -11178.931    16914.539   0.36660869 
     280    269.37878   -6444.6751   -6414.6255   -10808.686    16914.539   0.37346839 
     290    271.00389   -6444.8563   -6414.6254   -10344.777    16914.539   0.38086972 
     300    276.76784   -6445.4999    -6414.626   -10017.839    16914.539   0.38795838 
     310    280.46562   -6445.9129   -6414.6265   -10033.139    16914.539    0.3941169 
     320    277.07214   -6445.5343   -6414.6265   -10046.112    16914.539   0.40018262 
     330    269.95649   -6444.7383   -6414.6242   -9805.4895    16914.539   0.40670818 
     340    277.76904    -6445.612   -6414.6265   -9619.6934    16914.539   0.41197492 
     350    285.05274   -6446.4248   -6414.6267   -9485.1667    16914.539   0.41648156 
     360    281.88575   -6446.0712   -6414.6264   -9140.4937    16914.539   0.42146503 
     370    274.53044   -6445.2493    -6414.625    -8962.175    16914.539   0.42701601 
     380    276.18295   -6445.4346    -6414.626   -9426.8139    16914.539   0.43273687 
     390    277.57134   -6445.5897   -6414.6262   -10070.673    16914.539   0.43923402 
     400     276.8595   -6445.5103   -6414.6262    -10303.89    16914.539   0.44707416 
     410    275.46607   -6445.3545   -6414.6259   -10360.075    16914.539   0.45492711 
     420    275.69775   -6445.3806   -6414.6261   -10312.296    16914.539   0.46006875 
     430    277.65506   -6445.5987   -6414.6258   -10210.723    16914.539   0.46173996 
     440    281.42642   -6446.0203   -6414.6268   -10308.419    16914.539    0.4617939 
     450    276.88831    -6445.514   -6414.6267   -10250.708    16914.539   0.46269964 
     460    270.21574   -6444.7677   -6414.6248   -9929.1914    16914.539   0.46518425 
     470    276.62755   -6445.4853   -6414.6271   -9753.2735    16914.539   0.46909827 
     480    275.65992   -6445.3765   -6414.6262   -9607.8074    16914.539   0.47463575 
     490    271.78497   -6444.9435   -6414.6255   -9553.3315    16914.539   0.48058495 
     500    272.32251   -6445.0046   -6414.6266   -9909.1382    16914.539   0.48553511 
     510    270.37544   -6444.7864   -6414.6256   -10365.506    16914.539   0.48834362 
     520    275.17373   -6445.3223   -6414.6263    -10515.66    16914.539   0.48843099 
     530    278.78936   -6445.7259   -6414.6265   -10437.285    16914.539   0.48792995 
     540    277.10642   -6445.5367   -6414.6251   -10771.458    16914.539   0.48938579 
     550    282.60439   -6446.1508   -6414.6259   -11859.636    16914.539   0.49278637 
     560    285.47147   -6446.4709   -6414.6262   -12796.498    16914.539   0.49690199 
     570    281.74023   -6446.0538   -6414.6252   -13126.326    16914.539   0.50034525 
     580    281.37788   -6446.0138   -6414.6257    -13240.78    16914.539   0.50202219 
     590    281.57404   -6446.0359   -6414.6258   -12844.509    16914.539   0.50251947 
     600    279.80949   -6445.8394   -6414.6262   -12078.209    16914.539   0.50341715 
     610    275.08337   -6445.3114   -6414.6254   -11496.883    16914.539    0.5053235 
     620    273.83436   -6445.1722   -6414.6256   -11201.877    16914.539   0.50732064 
     630    275.31248   -6445.3374   -6414.6259   -11206.933    16914.539   0.50828438 
     640    275.60187     -6445.37   -6414.6262    -11537.36    16914.539   0.50794637 
     650    274.21825   -6445.2155   -6414.6261   -11690.872    16914.539   0.50662649 
     660    272.65227   -6445.0411   -6414.6263   -11698.657    16914.539   0.50518157 
     670     269.8069   -6444.7228   -6414.6254   -11783.391    16914.539   0.50451723 
     680    274.15038   -6445.2075   -6414.6256   -11810.462    16914.539   0.50456436 
     690    280.99552   -6445.9719   -6414.6264   -11861.031    16914.539   0.50555103 
     700    280.63072   -6445.9305   -6414.6257   -11627.854    16914.539   0.50781264 
     710    278.92562   -6445.7406    -6414.626   -11080.463    16914.539   0.51097066 
     720    273.95593   -6445.1857   -6414.6255   -10327.151    16914.539   0.51457431 
     730    270.75852   -6444.8288   -6414.6252   -9765.8913    16914.539   0.51787072 
     740    276.18815   -6445.4342    -6414.625   -9492.6985    16914.539   0.51977351 
     750    290.40662   -6447.0224   -6414.6271   -9560.4488    16914.539   0.52017505 
     760    291.76733   -6447.1737   -6414.6266   -9561.5036    16914.539   0.52117133 
     770    283.11091   -6446.2069   -6414.6254   -9453.5946    16914.539   0.52378958 
     780    279.64758   -6445.8206   -6414.6255   -9604.3927    16914.539   0.52683471 
     790    283.69703   -6446.2721   -6414.6253   -9946.1137    16914.539   0.52917358 
     800    294.07987   -6447.4316   -6414.6265   -10564.719    16914.539   0.53017696 
     810    295.44119   -6447.5838   -6414.6269   -10778.266    16914.539   0.53058912 
     820    284.62085    -6446.375   -6414.6251   -10769.398    16914.539   0.53152004 
     830    283.14102   -6446.2102   -6414.6254    -11181.41    16914.539   0.53258998 
     840    287.99305   -6446.7525   -6414.6265   -11723.574    16914.539   0.53389001 
     850    287.09189   -6446.6515    -6414.626   -11500.578    16914.539   0.53659046 
     860      284.553   -6446.3684    -6414.626   -10897.209    16914.539   0.54081319 
     870    282.67441   -6446.1585   -6414.6257   -10433.812    16914.539   0.54539106 
     880    283.51653   -6446.2522   -6414.6255   -10209.532    16914.539    0.5489499 
     890    288.50338    -6446.809    -6414.626   -10354.377    16914.539   0.55135174 
     900    291.76454   -6447.1726   -6414.6258   -10876.976    16914.539   0.55353637 
     910    292.97848   -6447.3082    -6414.626   -11347.991    16914.539   0.55595171 
     920    291.51405   -6447.1447   -6414.6258   -11398.427    16914.539   0.55853793 
     930    291.60074   -6447.1542   -6414.6257    -11293.91    16914.539   0.56185808 
     940     293.2344   -6447.3372   -6414.6265   -11200.097    16914.539   0.56678171 
     950    287.97843   -6446.7504    -6414.626   -11130.864    16914.539   0.57322831 
     960    283.64605   -6446.2659   -6414.6248   -11250.962    16914.539    0.5801369 
     970    292.04718   -6447.2043    -6414.626   -11840.242    16914.539   0.58714521 
     980    298.10465    -6447.881    -6414.627   -12253.162    16914.539   0.59518368 
     990     291.0629   -6447.0941   -6414.6256   -12038.151    16914.539    0.6045403 
    1000    284.65421   -6446.3788   -6414.6252   -11444.717    16914.539   0.61356144 
    1010    284.88743   -6446.4056    -6414.626    -11257.53    16914.539   0.62075706 
    1020    284.45231   -6446.3572   -6414.6261   -11432.152    16914.539   0.62656562 
    1030    283.20586   -6446.2174   -6414.6254   -11511.221    16914.539   0.63192389 
    1040    287.83552   -6446.7343   -6414.6258   -11667.574    16914.539   0.63739756 
    1050    291.82132   -6447.1799   -6414.6268   -11837.973    16914.539   0.64401168 
    1060    283.59762   -6446.2613   -6414.6256   -11789.256    16914.539   0.65213742 
    1070    276.66662   -6445.4869   -6414.6243   -11806.091    16914.539   0.65985523 
    1080    282.99965   -6446.1952   -6414.6262   -11840.254    16914.539   0.66594809 
    1090    284.44573   -6446.3567   -6414.6263   -11632.042    16914.539   0.67175387 
    1100    278.27382   -6445.6672   -6414.6253   -11480.901    16914.539   0.67800117 
    1110    275.51841   -6445.3596   -6414.6251    -11752.64    16914.539   0.68395064 
    1120    280.64433   -6445.9316   -6414.6253   -12488.193    16914.539   0.68890156 
    1130    288.25028   -6446.7809   -6414.6262   -13418.509    16914.539   0.69291839 
    1140    287.86356   -6446.7373   -6414.6257   -13894.107    16914.539   0.69647294 
    1150     284.1342   -6446.3207   -6414.6251   -13718.421    16914.539   0.69999552 
    1160    284.54442   -6446.3664    -6414.625   -13274.877    16914.539   0.70441524 
    1170    289.30798   -6446.8989   -6414.6262   -12874.099    16914.539   0.71032926 
    1180    288.40526   -6446.7977   -6414.6256   -12499.771    16914.539   0.71698745 
    1190    288.87345   -6446.8499   -6414.6256   -12393.703    16914.539   0.72286598 
    1200    289.55166   -6446.9266   -6414.6266   -12529.541    16914.539   0.72828782 
    1210    280.56525   -6445.9223   -6414.6249   -12558.433    16914.539   0.73461558 
    1220    279.30484    -6445.782   -6414.6251   -12626.277    16914.539   0.74159765 
    1230    283.14385   -6446.2112   -6414.6261    -12562.24    16914.539   0.74841645 
    1240    281.80648   -6446.0608   -6414.6249   -12023.389    16914.539   0.75444294 
    1250     287.2171   -6446.6653   -6414.6258   -11729.343    16914.539   0.75867551 
    1260    291.37697   -6447.1294   -6414.6258   -11960.648    16914.539    0.7611503 
    1270     290.7704   -6447.0612   -6414.6254   -12380.586    16914.539   0.76288707 
    1280    289.55224   -6446.9258   -6414.6258   -12882.375    16914.539    0.7645348 
    1290    287.09987   -6446.6515   -6414.6251   -12907.605    16914.539   0.76662403 
    1300     288.7486   -6446.8364   -6414.6261    -12351.66    16914.539   0.76992192 
    1310     286.5441   -6446.5899   -6414.6255   -11746.932    16914.539   0.77514416 
    1320    286.76446   -6446.6147   -6414.6256   -11616.487    16914.539     0.782071 
    1330    287.70548   -6446.7204   -6414.6264    -11836.58    16914.539   0.79015066 
    1340    282.63252   -6446.1531    -6414.625   -11799.148    16914.539   0.79849012 
    1350    284.43132   -6446.3541   -6414.6254   -11987.933    16914.539   0.80587623 
    1360    290.10013   -6446.9873   -6414.6262   -12175.108    16914.539   0.81222683 
    1370    288.39934   -6446.7972   -6414.6258   -12215.241    16914.539   0.81788554 
    1380    282.88925   -6446.1815   -6414.6247   -12046.377    16914.539   0.82275667 
    1390    283.76927   -6446.2807   -6414.6258   -12356.549    16914.539   0.82695931 
    1400    284.16314   -6446.3247   -6414.6258   -12558.911    16914.539   0.83096223 
    1410    282.88017   -6446.1807    -6414.625   -12245.265    16914.539   0.83439005 
    1420     289.0508   -6446.8696   -6414.6256   -12006.917    16914.539   0.83692973 
    1430    296.30837   -6447.6802   -6414.6265   -12125.384    16914.539   0.83971571 
    1440    294.95766   -6447.5284   -6414.6255   -12272.826    16914.539   0.84385839 
    1450    294.31334   -6447.4568   -6414.6257   -12376.112    16914.539   0.84859385 
    1460    293.05239   -6447.3161   -6414.6256   -12629.004    16914.539   0.85302956 
    1470    291.25758   -6447.1162   -6414.6259   -13083.249    16914.539    0.8570116 
    1480    286.64819   -6446.6016   -6414.6255   -13428.045    16914.539   0.86066862 
    1490    283.52532   -6446.2528   -6414.6252   -13496.705    16914.539   0.86430477 
    1500     286.3633   -6446.5701   -6414.6258   -13624.975    16914.539   0.86918451 
    1510    287.48957    -6446.696   -6414.6261   -13700.531    16914.539   0.87693222 
    1520      283.311   -6446.2294   -6414.6257   -13763.966    16914.539   0.88681719 
    1530    278.93423   -6445.7409   -6414.6254    -13749.08    16914.539    0.8961479 
    1540    279.24322   -6445.7753   -6414.6253   -13602.367    16914.539   0.90287427 
    1550    284.34307   -6446.3451   -6414.6262   -13438.713    16914.539   0.90704945 
    1560    286.61186   -6446.5976   -6414.6256   -13327.774    16914.539   0.90952163 
    1570    288.64067   -6446.8242   -6414.6259   -13235.348    16914.539   0.91064836 
    1580    289.00905   -6446.8647   -6414.6253   -13276.193    16914.539   0.91132952 
    1590    292.22619   -6447.2238   -6414.6255   -13462.144    16914.539   0.91275471 
    1600    296.71233   -6447.7243   -6414.6256   -13630.138    16914.539   0.91602557 
    1610    298.76154   -6447.9536   -6414.6263   -13722.427    16914.539   0.92135086 
    1620    292.39065   -6447.2423   -6414.6257   -13309.957    16914.539   0.92745789 
    1630    287.36199   -6446.6803   -6414.6246   -12820.554    16914.539   0.93230372 
    1640    296.02429   -6447.6483   -6414.6263   -13120.327    16914.539   0.93527841 
    1650    300.16791   -6448.1107   -6414.6265   -13790.323    16914.539   0.93826144 
    1660    293.71858   -6447.3901   -6414.6253    -14241.14    16914.539   0.94282849 
    1670    288.35047   -6446.7915   -6414.6256   -14455.623    16914.539   0.94858717 
    1680    282.73321   -6446.1651   -6414.6258   -14172.658    16914.539   0.95453176 
    1690    275.72229   -6445.3823   -6414.6251   -13627.921    16914.539   0.95952727 
    1700    277.97595   -6445.6333   -6414.6247   -13300.724    16914.539   0.96211871 
    1710    291.05049   -6447.0941    -6414.627    -13269.73    16914.539   0.96263565 
    1720    289.50874   -6446.9216   -6414.6265   -13136.603    16914.539    0.9641931 
    1730     279.6014   -6445.8141   -6414.6241    -12984.07    16914.539   0.96762806 
    1740    285.21215   -6446.4421   -6414.6263   -12956.522    16914.539    0.9714688 
    1750    286.63852   -6446.6019   -6414.6269    -12491.03    16914.539   0.97542993 
    1760    276.86406   -6445.5095   -6414.6249   -11731.805    16914.539   0.97865163 
    1770    278.27156   -6445.6664   -6414.6248   -11664.802    16914.539   0.98004953 
    1780    292.12948   -6447.2142   -6414.6268   -12328.976    16914.539   0.98151253 
    1790    296.31795   -6447.6809   -6414.6262   -12931.917    16914.539   0.98612529 
    1800    292.55667   -6447.2612    -6414.626   -13640.461    16914.539   0.99403792 
    1810    285.79514   -6446.5059    -6414.625   -14229.526    16914.539    1.0030771 
    1820    288.12419   -6446.7662   -6414.6256   -14597.158    16914.539    1.0110949 
    1830    292.85204   -6447.2945   -6414.6264   -14639.212    16914.539    1.0174953 
    1840    289.21054   -6446.8874   -6414.6255   -13970.459    16914.539    1.0218515 
    1850    287.11754   -6446.6534    -6414.625   -13100.598    16914.539    1.0231482 
    1860    292.11589   -6447.2121   -6414.6262   -12689.719    16914.539    1.0216815 
    1870    291.24456   -6447.1151   -6414.6264    -12380.18    16914.539    1.0194153 
    1880    284.36534   -6446.3461   -6414.6247   -12152.672    16914.539    1.0178874 
    1890     288.1505   -6446.7696    -6414.626   -12357.505    16914.539    1.0174891 
    1900    290.81767   -6447.0678   -6414.6266   -12569.765    16914.539    1.0188537 
    1910    284.40865   -6446.3521   -6414.6259   -12506.032    16914.539    1.0221045 
    1920    279.51829   -6445.8054   -6414.6247   -12334.547    16914.539    1.0260227 
    1930    286.47358   -6446.5831   -6414.6265   -12454.296    16914.539    1.0290399 
    1940    288.06715   -6446.7604    -6414.626   -12717.705    16914.539    1.0306657 
    1950    286.25893   -6446.5579   -6414.6253   -12605.082    16914.539    1.0306186 
    1960    289.99788   -6446.9755   -6414.6258   -12348.209    16914.539    1.0295042 
    1970    293.21828    -6447.335    -6414.626   -12071.048    16914.539    1.0291662 
    1980    292.53599   -6447.2583   -6414.6255   -11867.242    16914.539    1.0306618 
    1990    292.57928   -6447.2634   -6414.6257   -12029.322    16914.539    1.0338136 
    2000    292.21203   -6447.2225   -6414.6258   -12394.635    16914.539    1.0382092 
Loop time of 1260.55 on 16 procs for 2000 steps with 864 atoms

Performance: 0.137 ns/day, 175.077 hours/ns, 1.587 timesteps/s
97.0% CPU use with 16 MPI tasks x 1 OpenMP threads

MPI task timing breakdown:
Section |  min time  |  avg time  |  max time  |%varavg| %total
---------------------------------------------------------------
Pair    | 694.83     | 976.32     | 1251.4     | 465.5 | 77.45
Bond    | 0.00016999 | 0.00065126 | 0.001579   |   0.0 |  0.00
Neigh   | 0.024866   | 0.034864   | 0.053206   |   3.8 |  0.00
Comm    | 8.8454     | 261.04     | 565.46     | 857.6 | 20.71
Output  | 0.11893    | 14.888     | 34.219     | 357.0 |  1.18
Modify  | 0.0078013  | 0.0097672  | 0.011484   |   1.1 |  0.00
Other   |            | 8.252      |            |       |  0.65

Nlocal:        54.0000 ave          73 max          37 min
Histogram: 1 0 1 2 5 5 0 0 1 1
Nghost:        565.875 ave         657 max         471 min
Histogram: 1 1 0 5 2 2 0 2 1 2
Neighs:         0.00000 ave           0 max           0 min
Histogram: 16 0 0 0 0 0 0 0 0 0
FullNghs:      2887.12 ave        4564 max        1794 min
Histogram: 1 3 4 2 2 0 2 0 0 2

Total # of neighbors = 46194
Ave neighs/atom = 53.465278
Ave special neighs/atom = 0.0000000
Neighbor list builds = 199
Dangerous builds = 198
unfix   1

velocity    all create 1087.5 1312343 dist gaussian
fix     2 all npt temp 1087.5 1087.5 $(100.0*dt) aniso 0.0 1.01325 $(1000.0*dt)
fix     2 all npt temp 1087.5 1087.5 0.10000000000000000555 aniso 0.0 1.01325 $(1000.0*dt)
fix     2 all npt temp 1087.5 1087.5 0.10000000000000000555 aniso 0.0 1.01325 1
run     3000
Per MPI rank memory allocation (min/avg/max) = 8.905 | 8.910 | 8.916 Mbytes
Step Temp PotEng TotEng Press Volume c_msd[4] 
    2000       1087.5   -6447.2225   -6325.9102   -6792.4332    16914.539    1.0382092 
    2010    906.24609   -6426.9427   -6325.8496    -910.9579    16912.638     1.052845 
    2020    706.83864   -6404.3649    -6325.516    5713.9558    16910.146    1.0811411 
    2030    689.16434   -6401.6134   -6324.7361    5703.7763    16911.041    1.1053056 
    2040    682.87649   -6399.6419    -6323.466    4704.0018    16915.687     1.125803 
    2050    648.46886   -6394.3559   -6322.0182    4836.0579    16923.527    1.1461955 
    2060    639.06195   -6391.9861   -6320.6978    5514.4528    16934.617    1.1668371 
    2070    655.31793   -6392.6073   -6319.5056    5530.4187    16949.363    1.1870131 
    2080    694.12151   -6395.7097   -6318.2794    4196.0632    16967.738    1.2071212 
    2090    701.56697   -6395.1733   -6316.9124    3543.9711    16989.021    1.2294506 
    2100    710.38071   -6394.6593   -6315.4153    2613.9001     17012.72    1.2531647 
    2110    726.69706     -6394.83   -6313.7658    1750.6054    17038.245    1.2760087 
    2120    713.64289   -6391.6555   -6312.0475       2201.8    17065.094    1.2967075 
    2130    715.76258    -6390.159   -6310.3146    1907.8107    17093.432    1.3132028 
    2140    753.76205   -6392.5656   -6308.4823    80.340332    17123.006    1.3260403 
    2150    767.86144   -6392.1938   -6306.5377   -978.06349    17152.711    1.3393469 
    2160    746.12884   -6387.8376   -6304.6058   -474.52506     17181.88    1.3538437 
    2170    761.86719   -6387.6562   -6302.6688   -1318.4217    17210.624    1.3671119 
    2180     770.5459    -6386.593   -6300.6375   -2685.4206    17238.406    1.3810384 
    2190    758.54301   -6383.2044   -6298.5878   -3402.7604     17264.34    1.3980738 
    2200    780.47506   -6383.5667   -6296.5036   -3858.6391     17287.87    1.4166147 
    2210    797.84721   -6383.3494   -6294.3484   -2955.1531     17308.75    1.4356855 
    2220    804.26688   -6381.9214   -6292.2042   -1477.5505    17327.548    1.4556124 
    2230    808.16113   -6380.2184   -6290.0668    -824.5432    17345.192    1.4750864 
    2240    812.25214   -6378.5334   -6287.9254   -1132.1782    17362.123     1.490496 
    2250    831.00426    -6378.452   -6285.7522   -1992.7354    17378.151    1.4999186 
    2260    841.28772   -6377.3917   -6283.5447   -2390.2651     17392.75    1.5066393 
    2270    847.89014   -6375.9174    -6281.334   -2728.7083    17405.611    1.5145223 
    2280    862.29196    -6375.288    -6279.098   -3356.6743    17416.457    1.5242031 
    2290    844.61624   -6371.0861   -6276.8679   -2733.4204    17424.983    1.5357036 
    2300    839.73241   -6368.3383   -6274.6648    -1803.698    17431.562    1.5482256 
    2310    835.91856   -6365.6937   -6272.4457   -1142.0916    17436.829    1.5621178 
    2320     850.7983   -6365.1107   -6270.2029   -1375.4541    17441.201      1.57803 
    2330    872.64377   -6365.2514   -6267.9066   -1677.5059    17444.579    1.5945272 
    2340     883.2522   -6364.1459   -6265.6178   -1607.2392     17446.78    1.6084868 
    2350    906.14632   -6364.4211   -6263.3391   -1468.0353     17447.84     1.622131 
    2360    941.79925   -6366.1064   -6261.0473   -867.00003    17447.891    1.6381824 
    2370    929.03331   -6362.4301    -6258.795    687.27089    17447.403    1.6564443 
    2380    918.17269    -6359.036   -6256.6124    1579.9163    17447.358    1.6748885 
    2390     934.1253   -6358.6237   -6254.4206    1279.0505    17448.348    1.6924764 
    2400    938.95606   -6356.9396   -6252.1976    1388.3117    17450.261    1.7080357 
    2410    932.39156   -6353.9937    -6249.984    2156.4736    17453.177    1.7193031 
    2420    964.70869     -6355.38   -6247.7653    2200.9873    17457.518    1.7267528 
    2430    977.74377   -6354.6001   -6245.5313    2658.3467    17463.396    1.7357513 
    2440    988.27936    -6353.607    -6243.363     3239.935     17471.11    1.7493976 
    2450    1011.4157   -6354.0402   -6241.2153    2849.1858    17480.963    1.7699121 
    2460    1008.4397   -6351.6097   -6239.1167    2863.4667    17492.775    1.7998767 
    2470    1002.7715   -6348.9482   -6237.0875    2930.5087    17506.506    1.8309379 
    2480    1014.0966   -6348.2151   -6235.0911    3171.2265    17522.195    1.8512899 
    2490    992.80249   -6343.8794   -6233.1308     3802.969    17540.024    1.8611155 
    2500    1003.8245   -6343.1863   -6231.2082     3196.636    17560.295    1.8656429 
    2510     1026.817   -6343.7752   -6229.2322    1521.5535    17582.553    1.8733689 
    2520    1018.9698   -6340.9321   -6227.2645    753.60974     17605.72    1.8907891 
    2530     1019.586   -6339.0685   -6225.3321    525.47641    17629.194    1.9176719 
    2540    1048.3858   -6340.3644   -6223.4154    387.64894    17652.776    1.9509548 
    2550     1067.925   -6340.6546    -6221.526    575.12264    17676.385    1.9855232 
    2560    1062.9212   -6338.2955    -6219.725     573.6086    17700.109    2.0163492 
    2570    1066.9418   -6337.0221   -6218.0031   -486.18012    17723.846    2.0426706 
    2580    1070.0085   -6335.6733   -6216.3122   -1092.4644    17746.928    2.0655307 
    2590    1062.0894   -6333.1676   -6214.6899   -570.37948    17768.983    2.0856042 
    2600    1069.5928   -6332.4195   -6213.1048    -205.8099    17790.291    2.1029645 
    2610     1063.155   -6330.1439   -6211.5474     81.64385    17811.131    2.1204024 
    2620    1084.7038    -6331.014   -6210.0137   -85.973951    17831.674    2.1386249 
    2630    1069.1852   -6327.7825   -6208.5132    206.19169    17851.863    2.1618931 
    2640    1072.3805   -6326.6934   -6207.0677    371.79702    17871.854    2.1924177 
    2650    1105.0059   -6328.8932   -6205.6281    344.03585    17891.754    2.2266615 
    2660    1100.7306   -6327.0625   -6204.2744     590.6962    17911.582     2.264896 
    2670    1090.7034   -6324.6953   -6203.0257    378.17829    17931.464    2.3044843 
    2680    1076.6287    -6321.912   -6201.8125    579.36489     17951.31    2.3435832 
    2690    1086.5494   -6321.8184   -6200.6122    416.08493    17971.199     2.377429 
    2700    1105.3714   -6322.7173   -6199.4114    80.650542    17990.996    2.4028053 
    2710    1097.5143   -6320.6918   -6198.2625    627.68802    18010.544    2.4227472 
    2720    1106.9123   -6320.6616   -6197.1839    920.53003    18030.167    2.4428121 
    2730    1115.6664   -6320.6283   -6196.1741    1211.0003    18050.086    2.4659653 
    2740    1133.6576   -6321.7086   -6195.2474    940.57431    18070.459    2.4927008 
    2750    1135.0303   -6321.0265   -6194.4122    60.502644     18091.08    2.5231633 
    2760    1141.7146   -6321.0434   -6193.6834   -1140.0966    18111.307    2.5540112 
    2770    1175.6306   -6324.2039   -6193.0605   -2700.2379    18130.232    2.5845113 
    2780    1186.8918    -6325.029   -6192.6294   -2849.6003     18146.83    2.6198393 
    2790    1151.8285     -6320.92   -6192.4318   -2127.0843    18160.992    2.6601531 
    2800    1132.7986   -6318.7659   -6192.4005   -1466.3344    18173.251    2.7047981 
    2810    1111.6626    -6316.483   -6192.4754   -1258.3265    18184.129    2.7519104 
    2820    1116.4128   -6317.1544   -6192.6168   -2156.4421    18193.751    2.7955076 
    2830    1141.8551   -6320.2116    -6192.836   -3373.4872    18201.499     2.832028 
    2840    1140.8218   -6320.4403   -6193.1799   -3302.6613    18206.625    2.8621232 
    2850    1109.5922   -6317.4133   -6193.6366   -1778.7976     18209.25    2.8829529 
    2860    1090.4239   -6315.7811   -6194.1427   -431.01638    18210.472    2.8939946 
    2870    1092.9757   -6316.5776   -6194.6545   -396.89326    18211.246    2.9038551 
    2880    1100.5878   -6317.9584   -6195.1862   -344.32055    18211.716    2.9190081 
    2890    1078.1654   -6315.9943   -6195.7233   -132.24841    18211.937    2.9404151 
    2900    1074.4256   -6316.1018   -6196.2481   -289.05934    18212.028    2.9677925 
    2910     1081.672   -6317.3982   -6196.7361   -1131.4927    18211.854    3.0000416 
    2920    1098.8594   -6319.8156   -6197.2361   -2563.7679    18210.772    3.0317775 
    2930    1075.5944    -6317.734   -6197.7499   -2894.4644    18207.835    3.0678902 
    2940     1029.962   -6313.1054   -6198.2116   -2356.6631    18202.811    3.1125022 
    2950    1036.7799   -6314.2197   -6198.5654   -2446.5151    18196.038    3.1533155 
    2960    1048.9891   -6315.8347   -6198.8184   -2013.8808    18187.582    3.1833798 
    2970    1039.7463   -6314.9654   -6198.9801   -1579.4072     18177.75    3.2032063 
    2980    1043.0804   -6315.4039   -6199.0467   -1467.7336    18166.879    3.2156977 
    2990    1046.1206   -6315.7088   -6199.0125   -1863.2194    18155.037    3.2271534 
    3000    1051.8107   -6316.2235   -6198.8924    -2611.123    18141.957    3.2381547 
    3010    1069.6438   -6318.0244    -6198.704   -2830.8099    18127.155    3.2487387 
    3020    1087.2729   -6319.7574   -6198.4705   -2427.4079    18110.516    3.2597819 
    3030    1116.4588   -6322.7861   -6198.2435   -2568.6255    18092.273    3.2722689 
    3040      1125.98   -6323.6745   -6198.0697   -2039.6247    18072.453    3.2919046 
    3050    1113.3803    -6322.164   -6197.9648     -479.657    18051.496    3.3188834 
    3060    1102.6208   -6320.8992   -6197.9002    926.37486    18030.512    3.3459504 
    3070    1129.8832   -6323.9077   -6197.8676    1177.6353    18010.474    3.3637057 
    3080      1130.45   -6324.0242   -6197.9208    2142.8451    17991.701    3.3736494 
    3090    1107.3316   -6321.5918   -6198.0673     3062.728    17974.787    3.3780914 
    3100    1091.9413   -6320.0635   -6198.2558    3217.7694    17960.351    3.3762861 
    3110    1082.9752   -6319.2566   -6198.4491    3001.5967    17948.495    3.3714977 
    3120    1093.2413   -6320.6043   -6198.6516    2723.5426     17939.02    3.3718419 
    3130    1083.2893   -6319.7115    -6198.869    2772.6067    17931.712    3.3826223 
    3140    1094.3899   -6321.1594   -6199.0786    2370.2548    17926.527    3.4001088 
    3150    1136.2919   -6326.0864   -6199.3313    1153.6757      17923.1      3.41966 
    3160    1130.3251   -6325.7749   -6199.6854    700.79396    17920.644    3.4431453 
    3170    1119.8796   -6325.0738   -6200.1496    1097.3904    17918.795    3.4689097 
    3180    1103.8066   -6323.7985   -6200.6672    1843.1081    17917.815    3.4965785 
    3190    1116.7895   -6325.8245    -6201.245    1534.2972    17918.118    3.5262008 
    3200    1085.1489   -6322.9076   -6201.8576    1827.2906     17919.62    3.5592391 
    3210    1085.4118   -6323.5478   -6202.4684    1319.1402    17922.405    3.5960581 
    3220    1094.0151   -6325.1203   -6203.0813    999.41415    17926.159    3.6361036 
    3230    1084.4191   -6324.6643   -6203.6957    1315.4981    17930.679     3.679702 
    3240    1090.2005   -6325.9293   -6204.3158    1011.4202    17936.098    3.7271824 
    3250    1070.0937   -6324.2949   -6204.9243    625.70654    17942.214    3.7777636 
    3260    1034.0715   -6320.8256   -6205.4734    819.81123    17948.792    3.8263705 
    3270    1028.9813   -6320.6864    -6205.902    1093.6556    17955.952    3.8694215 
    3280    1066.6091   -6325.2118   -6206.2299    721.98136    17963.828    3.9123154 
    3290    1060.6262    -6324.809   -6206.4945    652.46752    17972.222    3.9575476 
    3300    1069.5289   -6326.0287   -6206.7211    544.26487    17981.039    3.9990318 
    3310     1067.892   -6326.0173   -6206.8923    936.70859    17990.266    4.0359665 
    3320    1084.4755   -6328.0108    -6207.036    408.46338    18000.059    4.0673975 
    3330     1089.074   -6328.6529   -6207.1651    258.36546    18010.134    4.0962973 
    3340    1080.8192   -6327.8729   -6207.3059    764.33654    18020.385     4.126236 
    3350    1064.0484   -6326.1333   -6207.4371    1222.0129    18031.145    4.1585121 
    3360    1044.9146   -6324.0687   -6207.5069    1363.5061    18042.759    4.1899692 
    3370    1060.7072   -6325.8224   -6207.4989    897.45538    18055.282    4.2211939 
    3380    1059.7803   -6325.6376   -6207.4175    1433.0757    18068.489     4.259421 
    3390    1037.0996    -6322.975    -6207.285    2426.7441    18082.759    4.3090598 
    3400    1020.5024   -6320.8971   -6207.0586    2383.0136    18098.718    4.3682135 
    3410    1032.9077   -6321.9245   -6206.7021    1847.0763    18116.373    4.4291982 
    3420    1049.2066   -6323.2538   -6206.2132    849.14424     18135.31    4.4841984 
    3430    1072.3211   -6325.2308   -6205.6118   -704.08198    18154.755    4.5272521 
    3440    1074.3148   -6324.7843   -6204.9429   -1307.9313    18173.634    4.5617922 
    3450    1041.2219   -6320.3923   -6204.2425     -1167.27    18191.461    4.5977776 
    3460     1061.923   -6321.9311    -6203.472   -1173.8688    18208.287    4.6397207 
    3470    1077.3934   -6322.8185   -6202.6336    -44.72365     18224.22    4.6872308 
    3480     1059.369   -6319.9612    -6201.787    682.07136    18240.017    4.7299892 
    3490    1090.4387   -6322.5558   -6200.9157   -625.69896    18256.097    4.7623764 
    3500    1092.0181   -6321.8393   -6200.0231   -1588.5959    18271.646    4.7915926 
    3510     1073.519   -6318.9173   -6199.1646   -2014.5029     18285.91    4.8230723 
    3520    1067.2912   -6317.3663   -6198.3083   -1572.2517    18298.613    4.8570143 
    3530     1049.821   -6314.5395   -6197.4304   -714.97091    18310.059    4.8939564 
    3540    1056.2178   -6314.3373   -6196.5146   -194.55723    18320.881    4.9332079 
    3550     1089.665   -6317.1013   -6195.5475   -125.12674    18331.476    4.9756352 
    3560    1096.5923   -6316.9102   -6194.5836    286.24884    18341.962     5.021642 
    3570    1111.1923   -6317.6272    -6193.672    209.08648    18352.593    5.0660175 
    3580    1105.5817   -6316.1454   -6192.8161    318.05644    18363.359    5.1054494 
    3590    1099.1266   -6314.6374   -6192.0282    877.83636    18374.361     5.135033 
    3600    1107.9665   -6314.8765   -6191.2812    893.77864    18385.967    5.1531891 
    3610    1118.8788   -6315.3872   -6190.5745   -321.82969    18398.148    5.1705747 
    3620    1127.0152   -6315.6513   -6189.9311   -2000.5954    18410.002    5.2009211 
    3630    1095.3695    -6311.557   -6189.3669   -2343.1039    18420.367    5.2438518 
    3640    1095.4505    -6311.053   -6188.8539   -3019.4259    18428.839    5.2865528 
    3650    1114.4482   -6312.6777   -6188.3593   -2913.5279    18435.003    5.3230336 
    3660    1125.1721   -6313.4372   -6187.9225   -2681.1399    18438.866      5.36217 
    3670    1132.4136   -6313.8938   -6187.5714    -2642.874    18440.588     5.407817 
    3680    1124.3095   -6312.7493   -6187.3308   -1931.5681    18440.288    5.4551688 
    3690    1079.0696    -6307.526   -6187.1542   -487.20275    18438.533     5.501337 
    3700    1070.8378   -6306.4356   -6186.9821   -152.90066    18436.323    5.5469688 
    3710     1094.247   -6308.8346   -6186.7697   -1229.6763    18433.906    5.5918404 
    3720    1108.7528   -6310.2495   -6186.5665   -1987.9396     18430.54    5.6374229 
    3730    1113.4418   -6310.6149   -6186.4088    -1744.549    18425.703    5.6875439 
    3740     1114.971   -6310.6945   -6186.3178   -1418.5776    18419.504    5.7442474 
    3750    1092.9891   -6308.1969   -6186.2724   -622.00073    18412.249    5.8021213 
    3760    1104.1525   -6309.4239    -6186.254   -296.16851    18404.486     5.851549 
    3770     1121.691   -6311.3957   -6186.2694   -473.65711    18396.485    5.8913541 
    3780    1130.4766   -6312.4721   -6186.3658   -492.17339     18388.14    5.9263423 
    3790     1115.423   -6310.9856   -6186.5585    146.80831    18379.453    5.9581094 
    3800     1091.545   -6308.5588   -6186.7953    1207.9513    18370.928    5.9852194 
    3810    1107.5702   -6310.6122    -6187.061    1416.7998    18363.286    6.0045472 
    3820    1118.3002   -6312.1238   -6187.3758    1258.1403    18356.734    6.0227023 
    3830    1123.3551   -6313.0872   -6187.7752    842.00846    18351.138    6.0524712 
    3840    1119.0652   -6313.0889   -6188.2555    1074.8772    18346.261    6.1000898 
    3850     1131.104   -6314.9905   -6188.8141    1390.5661    18342.238    6.1539734 
    3860     1148.886   -6317.6504   -6189.4904    1038.0375    18339.237    6.1971137 
    3870    1142.7027   -6317.7674   -6190.2972    508.79253    18337.034    6.2308288 
    3880    1140.3916   -6318.4376   -6191.2252    291.80804    18335.263    6.2576855 
    3890    1134.0931   -6318.7527   -6192.2429    317.69376    18333.734    6.2826407 
    3900    1129.8135   -6319.3652   -6193.3328    507.91357    18332.458    6.3112147 
    3910    1121.4314   -6319.5689   -6194.4716    680.26199     18331.58    6.3369223 
    3920    1109.9493   -6319.4415    -6195.625    63.652131     18331.18    6.3556109 
    3930    1089.1764   -6318.2548   -6196.7555   -814.39348     18330.83    6.3803643 
    3940    1062.4355   -6316.3106   -6197.7943   -1271.9143    18329.889    6.4207563 
    3950    1039.8215   -6314.6973   -6198.7037   -1434.0669    18327.973    6.4690531 
    3960    1029.4418   -6314.2888    -6199.453   -1601.9726    18324.952    6.5114477 
    3970    1044.2541   -6316.5576   -6200.0695   -2100.9466    18320.677    6.5449323 
    3980    1056.5565   -6318.4638   -6200.6033   -2625.0727    18314.758      6.57662 
    3990    1038.3638    -6316.881     -6201.05   -2263.7194    18306.854    6.6172558 
    4000     1038.613   -6317.2434   -6201.3846   -1050.1654     18297.26    6.6665148 
    4010    1053.7478   -6319.1557   -6201.6085   -468.53915    18286.805    6.7150386 
    4020    1053.1911   -6319.2364   -6201.7513   -611.67093    18275.929    6.7517445 
    4030    1056.7509   -6319.7186   -6201.8364   -1017.6362     18264.55    6.7653674 
    4040    1055.8106   -6319.6453    -6201.868   -1042.8757    18252.398    6.7614514 
    4050    1044.0183   -6318.2778    -6201.816   -197.77956    18239.518    6.7554928 
    4060      1060.56   -6319.9922   -6201.6852    117.18237    18226.428    6.7563895 
    4070    1057.3882   -6319.4246   -6201.4713    306.08171    18213.437    6.7686086 
    4080    1074.3673   -6321.0591   -6201.2118   -205.40363    18200.622    6.7919502 
    4090    1058.2902   -6318.9412   -6200.8873    713.59915    18187.761     6.823292 
    4100    1080.7577   -6321.0677   -6200.5075     1441.923    18175.424     6.856267 
    4110    1103.3466   -6323.1548   -6200.0748    1274.2606    18164.141    6.8845782 
    4120    1086.0353   -6320.8149    -6199.666    1338.3658    18153.868    6.9056127 
    4130    1070.9341   -6318.7367   -6199.2724    1378.0908    18144.633    6.9177319 
    4140    1075.1398   -6318.7776   -6198.8441     745.1905      18136.4    6.9266529 
    4150    1074.2935   -6318.2345   -6198.3954    226.11448    18128.741    6.9439732 
    4160    1073.2114    -6317.629   -6197.9107    57.034651    18121.297    6.9710144 
    4170    1080.6306   -6317.9345   -6197.3885    329.31441    18113.938    7.0070009 
    4180    1070.0035   -6316.1965    -6196.836    1198.9746    18106.885    7.0449149 
    4190    1089.5212   -6317.7949   -6196.2571    1324.8546    18100.701    7.0748124 
    4200    1122.1956   -6320.8564   -6195.6738    807.91616     18095.49     7.099811 
    4210    1144.8468   -6322.8816   -6195.1722    612.33104    18090.912    7.1222733 
    4220    1110.2357   -6318.6344   -6194.7859    1679.1282    18086.891    7.1455346 
    4230    1084.5871   -6315.4581   -6194.4708    2896.7422    18084.154    7.1742512 
    4240     1113.686   -6318.3999   -6194.1665    2508.7911     18083.48    7.2098997 
    4250    1133.5685   -6320.3547   -6193.9035    2148.9845    18084.725    7.2563687 
    4260    1135.1635   -6320.3634   -6193.7342     1590.856    18087.586    7.3056726 
    4270    1144.0727   -6321.3092   -6193.6862    934.16172    18091.625    7.3507999 
    4280    1122.8401   -6319.0115    -6193.757     1742.623    18096.486    7.3971694 
    4290    1107.8047   -6317.5049   -6193.9276    2823.2061    18102.687    7.4499343 
    4300     1092.376   -6316.0008   -6194.1447     3451.184    18111.015    7.5075602 
    4310    1106.7778   -6317.8636   -6194.4009      3204.77    18121.924    7.5662748 
    4320    1093.2133    -6316.645   -6194.6954    3411.7375    18135.335    7.6285325 
    4330    1090.6287   -6316.6699   -6195.0086    2804.2709    18151.332    7.6910706 
    4340    1117.5717   -6320.0079    -6195.341    820.95526    18169.411    7.7500243 
    4350    1113.7668   -6319.9617   -6195.7193   -415.34756    18188.212    7.8035032 
    4360    1106.0959   -6319.5525   -6196.1658   -259.73169    18206.848    7.8565264 
    4370    1074.2034   -6316.4718   -6196.6428    244.51441    18225.353    7.9174489 
    4380    1056.6191   -6314.9575   -6197.0901   -50.411903    18244.047    7.9847326 
    4390    1068.6577   -6316.6855   -6197.4752   -773.39564    18262.719    8.0494034 
    4400    1081.7813   -6318.4967   -6197.8224     -298.009    18280.937    8.1112768 
    4410    1110.2794   -6322.0438   -6198.1904   -347.96283    18298.909    8.1729913 
    4420    1081.8416   -6319.2697   -6198.5887    233.98682    18316.717    8.2367975 
    4430    1038.3749   -6314.7976   -6198.9653    330.91438    18334.707    8.3014262 
    4440    1043.5779   -6315.6573   -6199.2446   -874.35034      18352.9    8.3547731 
    4450    1044.4415   -6315.9234   -6199.4144    -2017.065    18370.463    8.3957446 
    4460    1030.8236   -6314.4757   -6199.4857   -2467.8175    18386.551     8.436358 
    4470    1007.8034   -6311.8569   -6199.4349   -2465.0183    18400.779    8.4866119 
    4480     1020.266   -6313.0456   -6199.2334   -2543.6901    18413.112    8.5464363 
    4490    1039.2461   -6314.8115    -6198.882   -2371.5458    18423.508    8.6133333 
    4500     1035.827   -6313.9544   -6198.4063   -2370.0233    18432.068    8.6803193 
    4510    1056.8928   -6315.7262   -6197.8282   -3200.1298    18438.721    8.7369247 
    4520    1040.8355   -6313.2564   -6197.1496   -3232.4658     18442.96    8.7812781 
    4530     1055.189   -6314.1112   -6196.4033   -3113.6294    18444.657    8.8135973 
    4540    1040.6123   -6311.6638    -6195.582   -2289.6865     18443.97    8.8285564 
    4550    1021.3074   -6308.6299   -6194.7015   -1418.8492      18441.5    8.8292159 
    4560    1034.5722   -6309.1531    -6193.745   -1833.7164    18437.826    8.8395185 
    4570    1063.1265   -6311.3372   -6192.7439   -2570.1872    18432.675    8.8707937 
    4580    1089.3386   -6313.2926   -6191.7752   -2084.6911    18425.577    8.9079004 
    4590    1111.3525   -6314.8817   -6190.9087   -1380.0685    18416.834    8.9414127 
    4600    1115.6177   -6314.6296   -6190.1808   -1137.6575    18406.945    8.9795102 
    4610    1130.1343   -6315.6618   -6189.5936   -1129.4201    18396.119      9.02857 
    4620    1150.2974   -6317.4806   -6189.1632   -762.28317    18384.394    9.0841679 
    4630     1145.961   -6316.7295   -6188.8959   -68.183972     18372.06    9.1413342 
    4640    1131.4102   -6314.9855    -6188.775  -0.51355265    18359.589    9.1954973 
    4650    1138.6108   -6315.7868    -6188.773    -602.2029    18347.041    9.2352319 
    4660    1137.4707   -6315.7788   -6188.8922   -660.67932     18334.03    9.2618835 
    4670    1081.8505   -6309.7618   -6189.0798    275.19869    18320.542    9.2892096 
    4680    1077.4683   -6309.4488   -6189.2556    312.49037     18307.15    9.3239889 
    4690    1106.7831   -6312.8941   -6189.4308    171.86827    18293.945     9.366391 
    4700    1083.1989   -6310.4502   -6189.6177    740.53497    18280.884    9.4179729 
    4710     1081.355   -6310.4307    -6189.804    1253.5284    18268.344    9.4771357 
    4720    1085.8778   -6311.1101   -6189.9788    1647.0006    18256.738    9.5337807 
    4730    1074.6075   -6310.0204   -6190.1464    1928.6416    18246.355    9.5781105 
    4740    1071.8572   -6309.8655   -6190.2982    2409.2387    18237.439    9.6087099 
    4750     1076.422   -6310.4994   -6190.4229    2455.7229    18230.317    9.6264817 
    4760    1083.9881   -6311.4568   -6190.5363    2247.3692    18225.045    9.6365962 
    4770     1091.238   -6312.3869   -6190.6576    1922.3523     18221.49    9.6460524 
    4780    1093.8196   -6312.8185   -6190.8013    1214.8007     18219.37    9.6655933 
    4790    1065.9517   -6309.8634   -6190.9549    1446.5228    18218.259    9.7003323 
    4800    1054.8719   -6308.7532   -6191.0806    1490.9986    18218.232    9.7446963 
    4810    1059.3113   -6309.3129   -6191.1452    910.31702    18219.297    9.7931749 
    4820    1069.3069   -6310.4323   -6191.1495     651.0987    18221.109    9.8421387 
    4830    1099.0001   -6313.7231    -6191.128     146.7958    18223.416    9.8890746 
    4840    1120.9073   -6316.1584   -6191.1195   -221.74467    18225.876    9.9413448 
    4850    1109.0247   -6314.9017   -6191.1883    53.724557    18228.213    9.9989908 
    4860    1065.0232   -6310.1013   -6191.2963    933.38302    18230.652    10.059629 
    4870    1080.7382   -6311.9453   -6191.3873    619.19776    18233.745    10.125032 
    4880    1110.4616   -6315.3565   -6191.4828   -8.0254198    18237.324    10.201131 
    4890    1109.0249   -6315.3392   -6191.6258   -156.63617    18240.961    10.275978 
    4900    1120.3077   -6316.8362   -6191.8642   -489.08086    18244.478    10.329168 
    4910    1108.3465   -6315.8451   -6192.2074      163.377    18247.741    10.360825 
    4920    1081.4232    -6313.273   -6192.6387    905.57454    18251.164    10.386712 
    4930    1051.2896   -6310.3706   -6193.0976    1578.6093    18255.331    10.417297 
    4940    1056.2592   -6311.3775   -6193.5502    1497.9689    18260.705     10.45278 
    4950    1051.4244   -6311.2635   -6193.9755    1147.9505    18267.281    10.497585 
    4960    1041.6231   -6310.5445   -6194.3499    648.46527    18274.805    10.553958 
    4970    1058.0132   -6312.7047   -6194.6817   -196.95434    18282.877    10.621259 
    4980    1040.8557   -6311.0592   -6194.9502    -327.8286    18290.963    10.691336 
    4990    1051.4589   -6312.4427   -6195.1508   -754.56583    18298.861    10.746081 
    5000    1089.6016   -6316.8539   -6195.3072   -1825.0313    18306.203    10.782359 
Loop time of 2021.54 on 16 procs for 3000 steps with 864 atoms

Performance: 0.128 ns/day, 187.180 hours/ns, 1.484 timesteps/s
95.2% CPU use with 16 MPI tasks x 1 OpenMP threads

MPI task timing breakdown:
Section |  min time  |  avg time  |  max time  |%varavg| %total
---------------------------------------------------------------
Pair    | 1486.4     | 1692.2     | 2005.7     | 362.2 | 83.71
Bond    | 0.00026941 | 0.00091922 | 0.0017631  |   0.0 |  0.00
Neigh   | 0.038523   | 0.044869   | 0.057693   |   2.6 |  0.00
Comm    | 14.94      | 206.22     | 504.54     | 968.7 | 10.20
Output  | 0.16681    | 0.17063    | 0.2264     |   3.5 |  0.01
Modify  | 0.46612    | 122.89     | 251.4      | 915.1 |  6.08
Other   |            | 0.0126     |            |       |  0.00

Nlocal:        54.0000 ave          68 max          46 min
Histogram: 2 3 2 3 2 2 0 0 1 1
Nghost:        541.000 ave         608 max         498 min
Histogram: 3 3 4 0 0 0 3 1 0 2
Neighs:         0.00000 ave           0 max           0 min
Histogram: 16 0 0 0 0 0 0 0 0 0
FullNghs:      2530.88 ave        3577 max        2030 min
Histogram: 3 2 5 2 0 2 0 0 1 1

Total # of neighbors = 40494
Ave neighs/atom = 46.868056
Ave special neighs/atom = 0.0000000
Neighbor list builds = 300
Dangerous builds = 300
unfix   2

fix     3 all npt temp 1087.5 1087.5 $(100.0*dt) aniso 1.01325 1.01325 $(1000.0*dt)
fix     3 all npt temp 1087.5 1087.5 0.10000000000000000555 aniso 1.01325 1.01325 $(1000.0*dt)
fix     3 all npt temp 1087.5 1087.5 0.10000000000000000555 aniso 1.01325 1.01325 1
run     20000
Per MPI rank memory allocation (min/avg/max) = 8.905 | 8.910 | 8.917 Mbytes
Step Temp PotEng TotEng Press Volume c_msd[4] 
    5000    1089.6016   -6316.8539   -6195.3072   -1825.0313    18306.203    10.782359 
    5010    1083.5051   -6316.1746    -6195.308    -1453.751    18305.491    10.811659 
    5020    1076.9549   -6315.4468   -6195.3109   -267.51198    18303.723    10.846131 
    5030    1065.2612   -6314.1127   -6195.2812    430.35039    18301.719    10.884706 
    5040    1060.1371   -6313.4653   -6195.2055    651.78666    18300.021    10.928173 
    5050    1057.9673   -6313.0835   -6195.0656      505.761    18298.801    10.979167 
    5060    1048.6785   -6311.8351   -6194.8534     788.3543    18298.022    11.035511 
    5070     1029.302   -6309.3536   -6194.5334    1281.5499    18297.859    11.090612 
    5080    1043.9183   -6310.5296   -6194.0789    1916.3038    18298.703    11.136621 
    5090    1089.1405   -6314.9854   -6193.4901    1919.9534     18300.98    11.171027 
    5100    1089.4544   -6314.3522   -6192.8219    2016.3327    18304.775    11.203647 
    5110    1080.4636   -6312.6496   -6192.1223    1498.8317    18310.115    11.238807 
    5120    1091.7467   -6313.1487   -6191.3627    651.34648    18316.617    11.272898 
    5130    1105.8817   -6313.9202   -6190.5575    736.10424     18323.72    11.306732 
    5140    1127.2763    -6315.514   -6189.7646    851.98341    18331.411    11.347579 
    5150    1114.3589   -6313.3353   -6189.0269     1076.398     18339.81    11.404146 
    5160    1106.0371     -6311.74   -6188.3599     1099.268    18349.078    11.472297 
    5170    1123.7338   -6313.0964   -6187.7422    589.35578    18359.209    11.544565 
    5180    1119.8202   -6312.1104   -6187.1928    634.88267    18369.911     11.62584 
    5190    1117.4318   -6311.3695   -6186.7183    566.02688    18381.155    11.715214 
    5200    1110.8372   -6310.2247   -6186.3091    671.65135     18392.93    11.796135 
    5210     1104.824   -6309.2045   -6185.9597    537.72605    18405.282    11.851185 
    5220     1096.601   -6307.9748   -6185.6473    9.9282113     18418.11     11.88618 
    5230    1112.6949   -6309.4901   -6185.3673   -979.82516    18430.977    11.916562 
    5240    1129.0374   -6311.0776   -6185.1318   -1648.8601    18443.155    11.948796 
    5250    1138.6035        -6312    -6184.987   -1504.9414    18454.165    11.985295 
    5260    1120.2669   -6309.9128   -6184.9453   -715.84032     18464.09    12.022816 
    5270    1116.9053   -6309.5887   -6184.9962   -508.23671    18473.437    12.057652 
    5280    1103.0797   -6308.1655   -6185.1152   -101.88006     18482.45    12.092875 
    5290     1088.501   -6306.7268   -6185.3029    487.67209    18491.446    12.124132 
    5300    1089.4368   -6307.0553    -6185.527   -147.86832    18500.784    12.152612 
    5310    1072.0349   -6305.3637   -6185.7766    -776.0474    18510.065    12.193144 
    5320    1055.2673   -6303.7529   -6186.0362   -1385.2699    18518.773    12.238683 
    5330    1040.3405   -6302.3295    -6186.278   -1473.3004    18526.468    12.280079 
    5340    1043.7603   -6302.9243   -6186.4913    -1567.619    18533.023    12.323796 
    5350    1059.4965   -6304.8792   -6186.6908   -1676.3312    18538.355    12.363339 
    5360    1065.2653   -6305.7208   -6186.8889   -1392.0777    18542.403    12.389708 
    5370    1095.7062   -6309.3294   -6187.1018   -1524.0494    18545.341    12.406403 
    5380    1098.9982   -6309.9626   -6187.3677    -2010.973    18547.038    12.425833 
    5390    1075.6801   -6307.6778    -6187.684   -1667.0042    18547.218    12.463731 
    5400    1096.8488   -6310.4068   -6188.0517   -1528.0157    18546.036    12.523671 
    5410    1066.4753   -6307.4211   -6188.4541   -168.09962    18543.736    12.592321 
    5420     1041.903   -6305.0646   -6188.8387    508.97547    18541.255    12.651961 
    5430    1072.0409   -6308.7649   -6189.1771   -573.96822    18539.048    12.698731 
    5440    1071.8224    -6309.045   -6189.4816   -1029.6753    18536.446    12.736958 
    5450    1066.4098   -6308.7169   -6189.7573   -998.48522    18533.055     12.76826 
    5460    1057.4825    -6307.941   -6189.9773   -440.36488    18528.921    12.794848 
    5470    1077.1008   -6310.2964   -6190.1442    -395.5464    18524.397    12.815456 
    5480    1079.7896   -6310.7526   -6190.3005   -340.46116     18519.58    12.831998 
    5490    1069.8349   -6309.7953   -6190.4536   -497.85933    18514.488    12.854951 
    5500    1045.1468   -6307.1572   -6190.5695   -305.57624    18509.038    12.888806 
    5510    1012.7626   -6303.5614   -6190.5862    13.759537    18503.374    12.939897 
    5520    1025.1054   -6304.8073   -6190.4553   -102.61957    18497.707    12.999553 
    5530     1057.615   -6308.1665   -6190.1879    -315.7647     18491.96    13.050948 
    5540    1063.5439   -6308.4681   -6189.8282   -23.651794    18486.012    13.091984 
    5550    1073.2391   -6309.1415     -6189.42   -182.96311    18480.004    13.126426 
    5560    1077.4662   -6309.1584   -6188.9654   -1076.2054    18473.812     13.15522 
    5570    1082.6308   -6309.2497   -6188.4806   -1885.5884    18466.762    13.183258 
    5580    1078.5039   -6308.2808   -6187.9721   -1340.2193     18458.32    13.217759 
    5590    1070.2595   -6306.8149   -6187.4259    -923.9625    18448.808    13.263822 
    5600    1083.1721   -6307.6784   -6186.8489    -1041.962    18438.524    13.313673 
    5610    1082.2975   -6306.9754   -6186.2435   -450.59044    18427.486    13.349344 
    5620     1119.206   -6310.4852    -6185.636   -490.09804    18416.021    13.360914 
    5630    1157.4184   -6314.1886   -6185.0768   -228.71615    18404.203    13.360305 
    5640     1156.181   -6313.6373   -6184.6636    108.17483    18392.205    13.364352 
    5650    1123.4532   -6309.7353   -6184.4124    634.36663    18380.288    13.374079 
    5660    1109.4149   -6308.0037   -6184.2468    1519.3393    18368.882    13.382274 
    5670     1125.443   -6309.6776   -6184.1327    2476.8552    18358.652    13.393024 
    5680     1131.771   -6310.3466   -6184.0958    2504.8083     18350.27    13.418907 
    5690    1142.2884   -6311.5889   -6184.1649    1940.1419    18343.794    13.469446 
    5700    1141.6162     -6311.72    -6184.371    1829.8223    18338.846    13.540105 
    5710    1128.6607   -6310.6036   -6184.6998    2056.9663    18335.359    13.609705 
    5720    1138.5505   -6312.1705   -6185.1635    1237.0069     18333.38    13.659852 
    5730    1133.5881   -6312.2285   -6185.7751    794.38952    18332.398    13.691702 
    5740     1103.333    -6309.574   -6186.4955    763.27373    18332.081    13.705653 
    5750    1114.8355   -6311.6641   -6187.3025    606.51904    18332.339    13.711645 
    5760    1112.0548   -6312.2258   -6188.1744    1136.8501    18333.116    13.735245 
    5770    1103.4398   -6312.1845   -6189.0941    1764.2231    18334.773    13.788313 
    5780    1068.9232   -6309.2359   -6189.9959    2229.0827    18337.792    13.856204 
    5790    1036.9511   -6306.4477   -6190.7743     1811.478    18342.505    13.924443 
    5800    1030.2439   -6306.3141   -6191.3889    578.45344    18348.594    13.983693 
    5810    1022.4909   -6305.8836   -6191.8232   -157.65758    18355.216    14.029014 
    5820    1028.2638   -6306.7924    -6192.088    -656.8869    18361.777    14.061347 
    5830    1046.8535        -6309   -6192.2219   -1207.8398    18367.861    14.090033 
    5840    1053.3542   -6309.7667   -6192.2635   -1632.5039    18373.047    14.124322 
    5850    1030.2899   -6307.1458   -6192.2154   -685.39679    18377.104    14.163555 
    5860    1049.5195   -6309.1484   -6192.0729      103.875    18380.627    14.199258 
    5870    1085.1798   -6312.9156   -6191.8622    493.63768    18384.238    14.228376 
    5880    1094.9122    -6313.786   -6191.6469    485.69405     18388.24    14.261647 
    5890    1081.1457   -6312.0652   -6191.4617    211.61167    18392.648    14.303596 
    5900    1056.1184   -6309.0816     -6191.27    35.204938    18397.264    14.337733 
    5910    1070.1006   -6310.3985   -6191.0272   -942.58496    18401.878    14.358258 
    5920    1093.7285   -6312.7667   -6190.7596   -2373.0648    18405.742    14.377826 
    5930     1079.361    -6310.908   -6190.5036   -2328.7708    18407.888    14.399128 
    5940    1078.9146   -6310.6185   -6190.2639   -1779.5814     18408.25    14.410499 
    5950    1103.7938   -6313.1629    -6190.033   -1846.6355    18407.173    14.411845 
    5960    1111.5929   -6313.8406   -6189.8407   -1571.7097    18404.672    14.410373 
    5970    1112.6116   -6313.8175    -6189.704   -562.78527    18400.985    14.413228 
    5980    1112.9883   -6313.7671   -6189.6115   -159.86597    18396.805    14.422288 
    5990     1111.209   -6313.5381   -6189.5811   -792.56262     18392.41     14.43474 
    6000    1095.1992    -6311.772   -6189.6009   -1213.6874    18387.386    14.455235 
    6010    1089.3533   -6311.1647   -6189.6457   -960.20164    18381.435     14.47916 
    6020    1097.1625   -6312.0813   -6189.6911   -242.48644    18374.731    14.504658 
    6030    1107.1716   -6313.2771   -6189.7705    1180.3456    18367.844     14.53689 
    6040    1085.2258   -6310.9249   -6189.8663    2677.0532    18361.853    14.577513 
    6050    1109.4339   -6313.7409   -6189.9819    2669.0239    18357.811    14.621306 
    6060    1104.7239   -6313.3358   -6190.1021    1831.6854    18355.789    14.661714 
    6070    1113.9993   -6314.5487   -6190.2804    924.54469    18355.181    14.691744 
    6080    1104.9357   -6313.7741   -6190.5168     544.9358    18355.328    14.709821 
    6090    1086.8756   -6312.0167    -6190.774    569.46032    18355.927    14.716115 
    6100    1104.2441   -6314.2283   -6191.0482    379.35453    18356.965    14.724329 
    6110    1112.8031    -6315.505   -6191.3701    165.55886    18358.302    14.746283 
    6120    1088.1019   -6313.1141   -6191.7347    701.87973    18359.837    14.768304 
    6130    1073.0457   -6311.8119   -6192.1121    1425.6101    18361.979    14.791155 
    6140    1097.1064   -6314.8926   -6192.5087    704.24032    18365.144     14.81966 
    6150     1083.588   -6313.8152   -6192.9393    125.70476    18368.905    14.852968 
    6160    1052.1275   -6310.7592   -6193.3928    107.12542     18372.83    14.893063 
    6170    1054.6517   -6311.4773   -6193.8293   -309.14348    18376.845    14.936347 
    6180    1051.1379   -6311.5111   -6194.2551   -1019.1204    18380.621     14.97486 
    6190    1055.7807   -6312.4689   -6194.6949   -1231.7074    18383.656    15.010216 
    6200    1046.0006   -6311.8643   -6195.1813   -638.63443     18385.82    15.051237 
    6210    1043.1446   -6312.1017   -6195.7374   -667.46158    18387.455    15.100661 
    6220    1057.4341   -6314.3705   -6196.4121   -1303.0084    18388.533      15.1574 
    6230    1041.3937   -6313.4082   -6197.2392    -1320.413    18388.667    15.213878 
    6240    1028.1333   -6312.8762   -6198.1864   -1535.3037    18387.749    15.260026 
    6250    1028.5645   -6313.9385   -6199.2006   -1666.5113    18385.632    15.303318 
    6260    1024.3782   -6314.5004   -6200.2295   -1734.5903    18382.212    15.356736 
    6270    1007.9589   -6313.6196   -6201.1803     -2245.28    18377.363     15.42218 
    6280    1017.7204   -6315.5333   -6202.0051   -2804.0149    18370.716    15.486535 
    6290    1042.7843   -6319.0195   -6202.6954   -3338.1892    18361.805    15.536841 
    6300    1070.1306   -6322.6796   -6203.3049   -3752.4357    18350.197    15.567981 
    6310    1067.6893   -6322.9903    -6203.888    -3568.557    18335.572    15.581995 
    6320    1015.8459   -6317.7026   -6204.3835   -1967.6529     18318.13    15.585143 
    6330    1023.0167    -6318.836   -6204.7169   -1450.6552    18298.894    15.578046 
    6340    1061.5867   -6323.3479   -6204.9263     -1888.39    18278.275    15.572773 
    6350     1065.223   -6323.8953    -6205.068   -1360.8047    18256.069    15.585586 
    6360    1041.9866    -6321.374   -6205.1388   -115.73662    18232.645    15.616319 
    6370    1027.8323   -6319.7432   -6205.0869    282.70234    18208.858    15.656384 
    6380    1071.0512   -6324.4145   -6204.9371   -816.85339    18184.972    15.697447 
    6390    1065.8941   -6323.6272   -6204.7251   -932.59488    18160.341    15.732152 
    6400    1040.9485     -6320.58   -6204.4606   -237.11547    18134.848    15.755767 
    6410    1040.2498   -6320.1366   -6204.0951    414.58387    18108.969    15.764381 
    6420    1038.7051   -6319.4625   -6203.5934    1169.0581    18083.205    15.743163 
    6430    1042.0434   -6319.1918   -6202.9502    2277.5275    18058.171    15.699436 
    6440    1083.5004   -6323.0459   -6202.1798    2401.8884    18034.592     15.66293 
    6450    1111.8759   -6325.3933   -6201.3619     2585.364    18012.649    15.658897 
    6460    1072.3829   -6320.1853   -6200.5594    4296.3729    17992.594    15.682745 
    6470    1065.0594   -6318.5777   -6199.7688    5914.6077    17975.593    15.701799 
    6480    1068.2922   -6318.1223   -6198.9527    7064.7617    17962.869    15.703463 
    6490    1067.1961   -6317.1903    -6198.143    7325.7921    17955.282    15.701543 
    6500    1100.0603   -6320.0776   -6197.3642    6436.6639    17953.045    15.701402 
    6510    1128.9794   -6322.6028   -6196.6634    5559.6682    17955.619    15.711135 
    6520     1152.879   -6324.7339   -6196.1285    5151.7094    17962.423    15.738129 
    6530    1120.0636   -6320.7263   -6195.7815    5691.2564    17973.244    15.771485 
    6540    1103.4674   -6318.6775   -6195.5841    5474.2803    17988.403    15.793961 
    6550    1085.7922   -6316.5623   -6195.4405    4385.2029    18007.814     15.80511 
    6560    1094.7496   -6317.4458   -6195.3248    3149.6394    18030.759    15.813636 
    6570    1092.2678   -6317.0685   -6195.2244    2748.9269    18056.444    15.825628 
    6580    1078.2868   -6315.4257   -6195.1411    2431.3217    18084.545    15.843832 
    6590    1074.5311   -6314.9191   -6195.0535    1773.5572    18114.803    15.872669 
    6600    1060.0838   -6313.1876   -6194.9337     1833.335    18146.853    15.914463 
    6610    1091.4213   -6316.5344   -6194.7847    1051.5135    18180.624    15.968017 
    6620    1103.6581   -6317.7359   -6194.6212    377.10578    18215.599    16.034479 
    6630    1085.8658   -6315.6113   -6194.4813    82.400171    18251.251     16.10967 
    6640    1082.4223   -6315.0759     -6194.33   -975.53808    18287.263    16.181437 
    6650    1090.4473   -6315.7851    -6194.144   -2468.7978     18322.79     16.23771 
    6660    1072.3354   -6313.5556   -6193.9349   -2891.5072    18356.758     16.28088 
    6670    1073.6136   -6313.4671   -6193.7039   -3520.5947    18388.663    16.311252 
    6680    1052.4758   -6310.8351   -6193.4298   -3603.1352    18418.031    16.330517 
    6690    1047.0603   -6309.9021    -6193.101   -3844.5455    18444.694    16.358585 
    6700    1067.4254   -6311.7582   -6192.6853   -4588.3176    18468.424    16.407532 
    6710    1096.4687   -6314.5236   -6192.2108   -5548.1795    18488.624    16.478125 
    6720    1106.4729   -6315.1704   -6191.7417   -6180.8556    18504.522    16.565411 
    6730    1081.4744   -6311.9682   -6191.3281   -5212.2475    18515.683    16.658386 
    6740    1043.6969   -6307.3584   -6190.9325   -3211.6901    18522.822    16.739984 
    6750    1038.2742   -6306.2834   -6190.4624   -1982.5966    18527.398    16.796363 
    6760    1100.6531   -6312.6703   -6189.8908   -2533.2509     18530.28    16.824659 
    6770    1108.9606   -6312.9909   -6189.2847   -2344.1631     18531.23     16.83766 
    6780    1104.6525   -6311.9572   -6188.7315   -2214.4965    18530.309    16.849467 
    6790    1107.8102    -6311.783   -6188.2051   -2144.0177    18527.647    16.868153 
    6800    1082.5007   -6308.4551   -6187.7005   -2130.0721    18523.284    16.887669 
    6810    1061.1107   -6305.5573   -6187.1888   -3176.2534     18517.14    16.900863 
    6820    1068.1502   -6305.7665   -6186.6127   -4166.0731    18508.469    16.912919 
    6830    1084.5918   -6306.9475   -6185.9596   -4360.5932    18496.515    16.939169 
    6840    1088.7383   -6306.7044    -6185.254    -3932.402    18481.109    16.982394 
    6850    1097.3358   -6306.9192   -6184.5098   -3370.0141    18462.541    17.015018 
    6860    1112.9512   -6307.8941   -6183.7428   -2512.5433    18441.285    17.008108 
    6870     1097.084   -6305.3307   -6182.9493   -1053.5743    18418.053    16.978842 
    6880    1125.8791   -6307.7406   -6182.1471   -91.715425    18393.906    16.955902 
    6890    1162.2067   -6311.0072   -6181.3613    481.19183     18369.62    16.968295 
    6900    1130.8263    -6306.823   -6180.6776    1642.7921    18345.701    17.027999 
    6910    1109.2011   -6303.8105   -6180.0775    2869.2845    18323.011    17.102794 
    6920    1137.8138   -6306.4189   -6179.4941    3167.6067    18302.438    17.147078 
    6930     1165.789   -6309.0116    -6178.966    3361.9451    18284.269    17.147864 
    6940    1139.1969   -6305.6152   -6178.5361    4530.4959    18268.744    17.120885 
    6950    1127.5224   -6303.9683   -6178.1915    5159.7389    18256.636    17.092147 
    6960    1142.1261   -6305.2882   -6177.8823    5284.0845    18248.454     17.08338 
    6970     1178.356   -6309.0745   -6177.6271    4738.9525    18244.275    17.102332 
    6980    1199.5097   -6311.3287   -6177.5215     4396.684    18243.767    17.130419 
    6990    1209.7697   -6312.6586    -6177.707    4242.2008    18246.654    17.138612 
    7000    1221.6393   -6314.6272   -6178.3515    4150.0198    18252.815    17.136162 
    7010    1190.6537   -6312.3569   -6179.5376    4800.7701    18262.285    17.146067 
    7020    1150.2973   -6309.4746   -6181.1572    4303.3534    18275.451    17.167917 
    7030    1137.9094   -6309.9157   -6182.9802    2710.4884     18291.97    17.196806 
    7040    1100.6741   -6307.5292   -6184.7474    2149.3748     18310.81    17.234959 
    7050    1074.6853    -6306.137   -6186.2542    1440.8738     18331.45    17.287247 
    7060    1074.0732   -6307.2986   -6187.4841    450.41773     18353.37     17.35777 
    7070    1061.6845   -6306.8927   -6188.4602   -484.62577    18375.804    17.439078 
    7080    1081.5638   -6309.9146   -6189.2645   -1294.3979    18398.028    17.510086 
    7090     1061.293   -6308.3223   -6189.9334   -964.12619    18419.509    17.572642 
    7100    1053.4242   -6308.0124   -6190.5013   -876.56024    18440.372    17.631208 
    7110    1041.1311   -6307.0812   -6190.9414   -1166.4801    18460.698    17.686256 
    7120    1062.2962   -6309.7751   -6191.2744   -1839.8682    18480.238    17.739571 
    7130    1074.8082   -6311.4397   -6191.5432   -1783.2589    18498.545    17.797687 
    7140    1077.8314   -6312.0178   -6191.7841   -1477.5334    18515.605    17.862714 
    7150    1084.1243    -6312.946   -6192.0103   -1483.2282    18531.622    17.939139 
    7160    1070.2714     -6311.61   -6192.2196   -2023.5901    18546.549    18.028134 
    7170    1048.0505   -6309.2967   -6192.3851    -2540.654    18559.993    18.108888 
    7180    1033.0652   -6307.7051   -6192.4652   -2873.5147    18571.538    18.158547 
    7190    1039.2121   -6308.3596    -6192.434   -3102.5546    18580.879    18.180759 
    7200    1061.2354   -6310.6968   -6192.3144   -3337.6901    18587.808    18.201291 
    7210    1062.2125    -6310.617   -6192.1256    -3050.976    18592.171    18.231214 
    7220     1065.606   -6310.7577   -6191.8878   -2879.5101    18594.104    18.263772 
    7230    1074.5726   -6311.4627   -6191.5925   -3015.8461     18593.73     18.29339 
    7240    1082.1985   -6311.9891   -6191.2682   -2902.0779    18590.941    18.313136 
    7250    1059.1276   -6309.0618   -6190.9145   -1448.4327    18585.908    18.327632 
    7260    1043.5021   -6306.9061   -6190.5019   -444.95367    18579.636    18.338496 
    7270    1040.7593   -6306.0848   -6189.9865   -180.85481    18572.915    18.339204 
    7280    1043.3081   -6305.7422   -6189.3596     -615.289    18565.923    18.328511 
    7290    1081.3929   -6309.2795   -6188.6485   -1522.4938    18558.314     18.31488 
    7300    1095.9998    -6310.165   -6187.9046   -1594.2141    18549.476    18.302369 
    7310    1095.1669   -6309.3617   -6187.1941   -1344.4264    18539.276    18.285331 
    7320    1103.4654   -6309.6164   -6186.5232   -393.39784    18527.948    18.268032 
    7330    1086.2801   -6307.0532    -6185.877    811.67129    18516.225    18.246837 
    7340     1115.523   -6309.7105   -6185.2722    186.41942    18504.867    18.220483 
    7350    1121.2465   -6309.8113   -6184.7346   -29.728626    18493.545    18.206047 
    7360    1103.8924   -6307.4255   -6184.2846    353.42717    18482.101    18.207756 
    7370    1117.1052   -6308.5133   -6183.8985    144.15642    18470.736    18.215543 
    7380     1127.349   -6309.3328   -6183.5753    189.57461    18459.356    18.235639 
    7390    1132.9005   -6309.7282   -6183.3514   -71.590386    18447.921    18.264747 
    7400    1117.6969   -6307.9062   -6183.2255    202.86796     18436.31    18.265288 
    7410    1111.9879   -6307.2184   -6183.1744    558.82437    18424.701    18.219216 
    7420     1096.274    -6305.457    -6183.166    707.80363    18413.372    18.145491 
    7430    1117.6364   -6307.8804   -6183.2064    5.4375751    18402.366    18.077691 
    7440    1134.4921    -6309.867   -6183.3127    76.424011     18391.27    18.034532 
    7450    1144.2423   -6311.1766   -6183.5346    685.97426    18380.095    18.027859 
    7460    1102.2797   -6306.8126   -6183.8516    2047.1442    18369.365    18.058287 
    7470    1081.9125   -6304.9161   -6184.2272    1975.0954    18359.955    18.098604 
    7480    1098.1781   -6307.1308   -6184.6274    1401.4858    18351.927    18.126191 
    7490    1123.9516   -6310.4589   -6185.0804    1116.4093    18344.872    18.148299 
    7500    1116.7819   -6310.2098   -6185.6311    1678.0887    18338.642    18.178338 
    7510     1106.353   -6309.6859   -6186.2706    2318.2284    18333.633    18.218784 
    7520    1121.8969   -6312.1361   -6186.9868    1990.1996    18330.293    18.270658 
    7530    1147.1877   -6315.7946   -6187.8241     827.7892    18328.395    18.340846 
    7540    1126.1623   -6314.4197   -6188.7946    631.69709    18327.182    18.418406 
    7550    1083.7433   -6310.6786   -6189.7855     1375.169    18326.521    18.473453 
    7560    1094.3223   -6312.7997   -6190.7264    1067.9094    18326.848    18.492627 
    7570    1096.5992   -6313.9275   -6191.6002    656.66017    18328.027    18.488748 
    7580    1090.4839   -6314.0335   -6192.3884    139.62165    18329.744    18.486294 
    7590    1097.1834   -6315.4758   -6193.0834   -647.19194    18331.597     18.50029 
    7600    1114.2241   -6318.0152   -6193.7219   -885.20618    18333.018    18.523538 
    7610    1077.2913   -6314.4676   -6194.2941    190.16831     18333.88    18.550202 
    7620    1035.6639   -6310.2742   -6194.7444     493.4665    18334.851    18.566044 
    7630    1037.1448   -6310.7182   -6195.0231   -126.53303    18336.187    18.561961 
    7640    1061.4065   -6313.5779   -6195.1764   -884.41265     18337.44    18.553596 
    7650     1050.248   -6312.3958   -6195.2391   -844.74942    18338.093    18.564407 
    7660    1066.1745   -6314.1719   -6195.2386    -1108.525    18338.078     18.60451 
    7670    1060.7822   -6313.5193   -6195.1874   -768.11041    18337.264    18.670661 
    7680    1035.1657   -6310.5416   -6195.0673   -92.078187    18335.871    18.741125 
    7690    1076.0694   -6314.9227   -6194.8855   -366.28358    18334.301    18.792023 
    7700    1066.3442   -6313.6035   -6194.6511   -81.594159    18332.487    18.816923 
    7710    1065.2412   -6313.2291   -6194.3999   -328.51487    18330.527     18.81495 
    7720    1066.2103   -6313.0441   -6194.1067    120.34689    18328.336    18.800429 
    7730    1067.9079   -6312.9049   -6193.7782    493.70424    18326.174    18.796057 
    7740    1076.7006   -6313.5142   -6193.4066    77.630371    18324.292    18.805987 
    7750    1098.0577   -6315.5209   -6193.0309    -334.1578    18322.408    18.817742 
    7760    1080.6672   -6313.2118   -6192.6617    577.78936    18320.322    18.825076 
    7770      1057.44   -6310.2495   -6192.2904    1341.8491    18318.625    18.833077 
    7780    1065.1809   -6310.6921   -6191.8696    1366.3563    18317.881    18.852161 
    7790     1064.724   -6310.1661   -6191.3945     1539.305    18318.211    18.890895 
    7800    1079.3459   -6311.2835   -6190.8809    1527.2036    18319.757    18.942749 
    7810     1087.929   -6311.7024   -6190.3422    1157.3676     18322.53    18.996079 
    7820    1091.6772    -6311.588   -6189.8098    770.80166    18326.298    19.043254 
    7830    1127.7573   -6315.1153   -6189.3123    49.334091     18330.74    19.076367 
    7840    1127.8933   -6314.7068   -6188.8886    359.63996    18335.436    19.104492 
    7850    1128.2974   -6314.4374   -6188.5741    525.46511    18340.546    19.144943 
    7860    1132.3858   -6314.6705   -6188.3511    393.01958    18346.216    19.202949 
    7870    1141.9139   -6315.6086   -6188.2264   -249.57126    18352.309    19.271596 
    7880    1144.2623   -6315.8634   -6188.2192   -90.637032    18358.451    19.343557 
    7890    1140.8601   -6315.6277    -6188.363    627.37604    18364.725    19.414574 
    7900    1104.0943   -6311.7806   -6188.6172    1740.0421    18371.716    19.485901 
    7910    1112.3024   -6313.0232   -6188.9441     1468.748    18380.158    19.545838 
    7920    1127.4759   -6315.1174   -6189.3458    297.89718    18389.924    19.594614 
    7930    1092.9325   -6311.7509   -6189.8327    436.39866    18400.315    19.644127 
    7940    1075.4533   -6310.3237   -6190.3553    623.56527    18411.326    19.699064 
    7950     1095.137   -6313.0775   -6190.9133    247.43611    18423.065    19.755516 
    7960    1089.1249   -6313.0296   -6191.5361    11.093666    18435.313    19.803822 
    7970    1067.1024    -6311.256   -6192.2192    302.57995    18447.915    19.843066 
    7980    1068.9991   -6312.1815    -6192.933   -52.315261     18461.02    19.888768 
    7990    1071.0006   -6313.1488   -6193.6771   -1176.6061    18474.348    19.941116 
    8000    1049.5413   -6311.5137   -6194.4358   -1667.4133    18487.115    19.986439 
    8010    1050.9402   -6312.4376   -6195.2036   -2392.2863    18498.813    20.025704 
    8020    1048.6232    -6312.956   -6195.9805   -2785.2801    18508.884    20.075435 
    8030    1055.0427   -6314.4704   -6196.7788   -3097.5932    18516.945    20.140054 
    8040     1069.684   -6316.9567   -6197.6318   -3165.8017    18522.718    20.197061 
    8050    1048.6216   -6315.4965   -6198.5212   -2835.8701    18526.124    20.228724 
    8060    1031.7579   -6314.5223   -6199.4281   -2651.5353    18527.319    20.242245 
    8070     1011.525   -6313.1037   -6200.2665   -2549.4612    18526.417    20.241086 
    8080    1030.5036   -6315.9703    -6201.016   -3377.9292    18523.382    20.223842 
    8090    1044.6048   -6318.2228   -6201.6956   -3911.1919    18517.617     20.19814 
    8100    1035.5652   -6317.8314   -6202.3125   -3982.0699    18508.649    20.168609 
    8110    1016.1033   -6316.2001   -6202.8523   -4150.9537    18496.352    20.137743 
    8120    1010.9127   -6316.0633   -6203.2944   -4438.8557    18480.545    20.122993 
    8130    1006.9456   -6315.9457   -6203.6194   -4019.6007    18461.006    20.138356 
    8140    987.43491   -6313.9515   -6203.8017   -2421.2884     18438.06    20.164919 
    8150     973.6953   -6312.3752    -6203.758   -838.56424     18412.87    20.175882 
    8160    1009.9518   -6316.1128   -6203.4512   -535.57739    18386.574     20.18321 
    8170    1027.5231   -6317.4761   -6202.8543    135.89623    18359.574    20.203121 
    8180    1032.7838   -6317.1402   -6201.9316    1147.7364    18332.412     20.22385 
    8190    1061.9803   -6319.1026   -6200.6371    1605.5228    18305.824    20.231238 
    8200    1082.5985   -6319.7799   -6199.0144     1683.738    18280.186    20.214468 
    8210    1080.3834    -6317.786   -6197.2676    2393.5233    18255.667     20.18178 
    8220    1080.1345   -6316.0868   -6195.5961    3470.2151    18232.839    20.148272 
    8230    1109.5525   -6317.9244   -6194.1522    3706.1676    18212.448    20.121314 
    8240    1102.7856   -6316.0406   -6193.0232    4142.5645    18194.781    20.093953 
    8250    1084.2766    -6313.162   -6192.2093    4325.6951    18180.138    20.069852 
    8260    1072.5104   -6311.2234   -6191.5832    4079.7373    18168.691    20.058587 
    8270    1097.6701   -6313.5106   -6191.0639    3189.3545    18160.248    20.067839 
    8280     1096.657   -6312.9726   -6190.6389    3135.5731    18154.238    20.108474 
    8290    1051.0147   -6307.5137   -6190.2714    4084.6701    18150.652    20.182005 
    8300    1059.7768   -6308.1313   -6189.9116     4255.847    18150.113     20.26733 
    8310    1081.3168   -6310.1475    -6189.525    4038.3807    18152.803     20.34763 
    8320    1107.9628    -6312.753   -6189.1581    3954.0534    18158.611    20.426045 
    8330    1100.4141   -6311.6004   -6188.8475    4798.0324    18167.574    20.504278 
    8340    1067.4706   -6307.6622   -6188.5842    5281.8769    18180.251    20.558162 
    8350    1081.0529   -6308.9016   -6188.3085    4502.7771    18196.998    20.568172 
    8360    1095.0214   -6310.1778   -6188.0265    3532.9124    18217.318     20.55808 
    8370    1060.4132   -6306.0335   -6187.7428    3249.3193    18240.594    20.566005 
    8380    1075.9319   -6307.4475   -6187.4257    1748.4107    18266.482    20.597587 
    8390    1108.5865   -6310.7106   -6187.0461    1.6509976    18293.922    20.654587 
    8400    1107.6255   -6310.2338   -6186.6765   -495.69898    18321.674     20.73116 
    8410    1094.9547   -6308.4886   -6186.3448   -316.12081    18349.294    20.806027 
    8420    1113.9741   -6310.3044   -6186.0389   -757.57281     18376.79    20.864003 
    8430    1112.0845   -6309.8281   -6185.7734   -825.58726    18403.892    20.907101 
    8440    1072.8808   -6305.2385    -6185.557   -654.21231    18430.524    20.943885 
    8450    1053.5629   -6302.8412   -6185.3147   -1168.9535    18456.756    20.995655 
    8460    1060.4634   -6303.2754   -6184.9791   -2571.3892    18482.143    21.078312 
    8470    1081.9726   -6305.2535   -6184.5578   -4058.6804    18505.622    21.175544 
[...]
   22890    1118.2563   -6287.7462    -6163.003   -3314.2549    18941.274    79.441018 
   22900    1114.5339   -6287.5332   -6163.2053   -3550.7982    18945.347    79.524536 
   22910    1119.8055   -6288.4059   -6163.4899    -3102.649    18946.529    79.621495 
   22920     1114.007    -6288.135   -6163.8658   -2738.3232    18945.135     79.72523 
   22930    1114.0625   -6288.6131   -6164.3378   -2571.0271    18941.464    79.808168 
   22940    1081.5075   -6285.5208    -6164.877   -1529.2727    18935.744    79.882405 
   22950    1058.9064   -6283.5432   -6165.4206   -1234.4709    18928.709    79.972702 
   22960    1082.3223   -6286.6725   -6165.9378   -2066.1146    18920.592    80.094918 
   22970    1093.0349   -6288.4004   -6166.4707    -2587.685    18910.809     80.23013 
   22980    1081.6104   -6287.6981   -6167.0428    -2327.413    18898.968    80.329992 
   22990    1066.0708   -6286.5284   -6167.6066   -1668.9947    18885.266     80.37361 
   23000    1074.8713   -6288.0551   -6168.1516   -1102.7185    18870.213     80.38596 
   23010    1085.6038   -6289.7949   -6168.6942   -976.98762    18854.267     80.38281 
   23020    1080.9744   -6289.8321   -6169.2477   -1148.7583    18837.555     80.38995 
   23030    1086.3594   -6291.0137   -6169.8287   -805.89327        18820    80.416479 
   23040    1075.8984   -6290.4271    -6170.409    426.66933    18801.935    80.440904 
   23050    1080.9035   -6291.5521   -6170.9757    739.13433    18784.238    80.487937 
   23060    1086.6611   -6292.7541   -6171.5354    243.92522    18767.174    80.569462 
   23070    1075.8838   -6292.1236   -6172.1072    206.29627    18750.437    80.643473 
   23080    1067.8169   -6291.7763   -6172.6597    578.86163    18733.995     80.67197 
   23090    1102.4358   -6296.1804    -6173.202    868.24652    18718.127    80.659377 
   23100    1116.2151   -6298.3128   -6173.7973    1372.5696    18703.077    80.620925 
   23110    1098.5182   -6296.9836   -6174.4422    1935.4115    18689.226    80.553819 
   23120    1094.6989   -6297.2419   -6175.1266    1883.1507    18676.947    80.481989 
   23130    1106.4552    -6299.279   -6175.8523    1643.1551    18666.229    80.444996 
   23140    1102.5213    -6299.621   -6176.6331    1344.0412    18656.876    80.446771 
   23150    1059.8489   -6295.6139   -6177.3862    1667.6855    18648.705    80.476714 
   23160    1051.0234   -6295.2825   -6178.0393    2056.2244    18641.915    80.514598 
   23170    1062.4222   -6297.0826   -6178.5678    2240.4444    18636.807    80.550745 
   23180    1069.5175   -6298.3034   -6178.9971    1704.8169    18633.469    80.593032 
   23190    1089.6105   -6300.9075   -6179.3598    717.44411    18631.491    80.605251 
   23200    1098.8932   -6302.2746   -6179.6915   -208.33339    18630.098    80.563548 
   23210    1057.4435   -6297.9372   -6179.9778    266.93078    18628.658    80.496436 
   23220    1040.3361   -6296.2065   -6180.1554    822.18102     18627.45    80.454558 
   23230    1070.2247   -6299.6158   -6180.2306    579.80969    18626.842    80.469564 
   23240    1065.9631   -6299.1486   -6180.2388    433.50546    18626.729    80.532085 
   23250    1054.0448   -6297.7883    -6180.208    115.36702     18626.95     80.60737 
   23260    1029.9127   -6294.9982   -6180.1099    411.12588    18627.313    80.649015 
   23270     1025.511   -6294.3247   -6179.9274    834.30867    18628.016    80.653899 
   23280    1043.8065   -6296.1024   -6179.6642    595.17109    18629.338    80.637058 
   23290    1049.4263   -6296.4093   -6179.3442    389.02649    18631.162    80.616681 
   23300    1032.4529   -6294.1534   -6178.9817    304.07849    18633.313    80.604986 
   23310    1062.8859   -6297.1529   -6178.5864    194.14669    18635.695    80.592671 
   23320    1078.4988   -6298.4721   -6178.1639    577.88806    18638.288    80.584076 
   23330    1097.5723   -6300.2152   -6177.7793    404.60193    18641.293    80.594677 
   23340     1071.786   -6296.9925   -6177.4331    512.94085    18644.657    80.654901 
   23350    1054.4331   -6294.7254   -6177.1018     359.1105    18648.419     80.75987 
   23360    1061.5575   -6295.1507   -6176.7324    198.44597    18652.475     80.87033 
   23370    1047.4179   -6293.1678   -6176.3268    935.98313    18656.759    80.958613 
   23380    1038.5074   -6291.7143   -6175.8672    1778.6613    18661.811    81.043536 
   23390    1073.3738   -6295.0769   -6175.3405    1232.7296    18668.176    81.140276 
   23400    1077.4404   -6294.9655   -6174.7754    856.24731    18675.564     81.25357 
   23410    1078.2408   -6294.4997   -6174.2203    537.77475     18683.66    81.370809 
   23420    1097.5266   -6296.1083   -6173.6776    81.211244    18692.198    81.472417 
   23430     1114.159   -6297.4572   -6173.1711    339.12941    18700.879    81.541961 
   23440    1113.3158   -6296.9363   -6172.7443     885.5926    18709.875    81.601157 
   23450    1092.8233   -6294.3032   -6172.3971    1133.3436    18719.602    81.676268 
   23460    1083.8093   -6292.9834   -6172.0829     540.7146    18730.213    81.767859 
   23470    1073.4914   -6291.5136    -6171.764   -293.78285    18741.283    81.871612 
   23480    1074.8882   -6291.3319   -6171.4265    -827.2472    18752.164     82.00737 
   23490    1058.1626    -6289.101   -6171.0613   -103.66636    18762.506    82.150681 
   23500    1034.9462   -6286.1008    -6170.651    1015.5825    18772.835     82.26132 
   23510    1055.1942   -6287.8662   -6170.1577    962.23493    18783.934    82.354088 
   23520    1087.6462   -6290.9105    -6169.582    507.61548    18795.837    82.461062 
   23530    1097.6711   -6291.4515   -6169.0046    376.03632    18808.228    82.595489 
   23540    1104.0232   -6291.6173   -6168.4619   -234.16685    18820.926    82.756622 
   23550    1102.6979   -6290.9653   -6167.9577   -868.30953     18833.49    82.912035 
   23560    1112.6635   -6291.6326   -6167.5133     -1409.43    18845.386    83.024695 
   23570    1114.9679   -6291.5087   -6167.1323   -1157.2542    18856.229    83.103415 
   23580    1107.8331   -6290.4005   -6166.8201   -612.15803    18866.184    83.183046 
   23590    1118.5682    -6291.363    -6166.585   -205.80595     18875.67    83.279343 
   23600    1099.1272   -6289.0112   -6166.4019    251.80868    18885.049    83.390949 
   23610     1096.839   -6288.6251    -6166.271     12.53646    18894.629    83.507408 
   23620    1088.8585   -6287.6196   -6166.1558   -418.76101    18904.262    83.611552 
   23630    1086.1623   -6287.2082   -6166.0451   -1243.6614    18913.563     83.68702 
   23640    1085.1492   -6286.9809   -6165.9309   -1722.7569     18921.92    83.745182 
   23650    1089.4365   -6287.3395   -6165.8113   -1900.1692    18928.917    83.806652 
   23660    1081.7035   -6286.3525   -6165.6868   -1762.7721      18934.4     83.87986 
   23670     1091.614   -6287.3215   -6165.5503   -2217.1427    18938.391    83.949651 
   23680    1095.4095   -6287.6057   -6165.4112   -2797.3685    18940.561    84.002933 
   23690    1070.9663   -6284.7438   -6165.2759   -2987.4144    18940.443     84.05459 
   23700     1081.922   -6285.7999   -6165.1098   -2678.7608    18937.888    84.113295 
   23710    1096.6712   -6287.2339   -6164.8986    -2046.281     18933.12    84.172937 
   23720    1095.4402   -6286.8511   -6164.6531   -969.91613     18926.67    84.231193 
   23730    1110.8438   -6288.2828   -6164.3665   -92.948907    18919.375    84.292966 
   23740    1128.0946    -6289.896   -6164.0554     328.3447    18911.925     84.34893 
   23750    1148.0425   -6291.8215   -6163.7557   -84.999579    18904.647    84.405429 
   23760    1171.0953   -6294.1686   -6163.5312   -785.18517    18897.212    84.469896 
   23770    1150.3064   -6291.7379   -6163.4195   -236.28997    18889.177    84.521628 
   23780     1161.861   -6293.1002   -6163.4929   -15.550188    18880.855    84.555888 
   23790    1135.2089   -6290.3864   -6163.7521    256.08031    18872.476    84.570737 
   23800    1112.4429   -6288.2793   -6164.1846   -41.464651      18864.2     84.55184 
   23810    1114.6505   -6289.1029    -6164.762   -852.59791    18855.791    84.512619 
   23820    1105.2636   -6288.7642   -6165.4704   -1442.3727    18846.625    84.500799 
   23830    1087.8951   -6287.6214    -6166.265   -1055.5088    18836.263    84.533345 
   23840    1077.2248   -6287.2543   -6167.0883    71.766344     18825.01    84.610177 
   23850    1079.8429   -6288.3567   -6167.8986    499.22447    18813.667    84.742235 
   23860    1084.1608   -6289.6291   -6168.6893    466.09925    18802.598    84.910698 
   23870    1087.3552   -6290.7607   -6169.4646    970.41996    18791.857    85.085995 
   23880    1076.0677   -6290.2428   -6170.2058    1476.7132    18781.813     85.25425 
   23890     1070.644    -6290.325    -6170.893    1599.3011    18772.876    85.385104 
   23900    1063.4465   -6290.1433   -6171.5142     2006.859    18765.198     85.45665 
   23910    1022.2517    -6286.062   -6172.0283    2728.3629    18759.115    85.480577 
   23920    1034.6477   -6287.8173   -6172.4008    2079.0511    18755.098    85.483948 
   23930    1068.0681    -6291.818   -6172.6734    1127.2163    18752.733    85.503671 
   23940     1079.975   -6293.3572   -6172.8844    349.83556    18751.288    85.522535 
   23950    1098.8368    -6295.678   -6173.1011   -185.77555    18750.119      85.5158 
   23960    1058.0346    -6291.339   -6173.3137    588.28274    18748.888     85.51308 
   23970    1030.3157   -6288.3913    -6173.458    648.80892    18748.068    85.554117 
   23980    1042.4225    -6289.782   -6173.4982    58.345435    18747.722    85.625355 
   23990    1048.9242   -6290.4499   -6173.4408   -169.46987    18747.444    85.650388 
   24000    1032.0844   -6288.4138   -6173.2832    404.09385    18747.088    85.582157 
   24010    1050.4205   -6290.1892   -6173.0132    39.128289    18746.997    85.458695 
   24020      1091.96   -6294.4525   -6172.6427   -1136.0012    18746.909    85.364885 
   24030    1106.3124   -6295.6537   -6172.2429   -1610.3879    18745.961    85.335388 
   24040    1116.8842   -6296.4601     -6171.87   -1458.8195    18743.748    85.361863 
   24050    1126.6685   -6297.2328   -6171.5513   -1092.0599    18740.331    85.413344 
   24060    1107.1096    -6294.791   -6171.2912    135.42969    18736.068    85.463665 
   24070    1116.3061   -6295.6076   -6171.0819    704.79573    18731.816    85.515083 
   24080    1146.9304   -6298.8644   -6170.9226   -63.820467    18727.993    85.553898 
   24090    1132.7243   -6297.2424   -6170.8853   -690.72547    18724.087    85.572226 
   24100    1097.9149    -6293.416    -6170.942   -773.78941    18719.607    85.588858 
   24110    1104.9234   -6294.3028    -6171.047   -912.56024    18714.452     85.62861 
   24120     1116.581   -6295.7613    -6171.205   -1373.9385    18708.466    85.712192 
   24130    1115.8596   -6295.9178    -6171.442   -1407.0564    18701.332    85.827809 
   24140    1126.4818   -6297.4405   -6171.7797   -1582.1731    18692.951    85.917644 
   24150    1141.0234   -6299.5531   -6172.2702   -1716.4454    18683.183    85.945402 
   24160    1123.2719   -6298.2435   -6172.9408   -965.76765    18671.979    85.927592 
   24170    1095.2907    -6295.929   -6173.7477   -47.129641    18659.868     85.89487 
   24180    1072.4404   -6294.2637   -6174.6313    140.95111    18647.509    85.865073 
   24190    1051.0186   -6292.7517    -6175.509    176.54529     18635.13    85.847845 
   24200    1070.8887   -6295.8197   -6176.3605   -353.89285    18622.703    85.841644 
   24210    1094.0288   -6299.2263   -6177.1857   -333.93796    18609.903    85.841327 
   24220    1140.0615   -6305.2458   -6178.0702   -949.77174    18596.602    85.852723 
   24230    1118.0392   -6303.7418   -6179.0229   -393.26604    18582.489    85.853997 
   24240    1083.9065   -6300.8672   -6179.9558    195.94828    18567.905    85.837829 
   24250    1066.6366   -6299.7738   -6180.7889   -292.57413    18553.233    85.823449 
   24260    1054.4245   -6299.0918   -6181.4691   -797.88888    18538.181    85.842067 
   24270     1065.328   -6300.8746   -6182.0357   -1494.9809    18522.279    85.899428 
   24280    1031.4065    -6297.501   -6182.4461    -910.7176     18505.09    85.950735 
   24290    1038.6079   -6298.5705   -6182.7122   -252.42822    18486.959    85.943638 
   24300    1028.2277    -6297.521   -6182.8206    1091.9127    18468.486    85.883505 
   24310    1037.4187   -6298.5182   -6182.7926    1829.3188    18450.623    85.824952 
   24320    1051.5375    -6299.967   -6182.6664    1617.0255    18433.946    85.820276 
   24330    1039.0231   -6298.3729   -6182.4683    1630.8341    18418.396    85.875663 
   24340    1050.4453   -6299.3876   -6182.2088    1852.1781    18403.967    85.946399 
   24350    1046.2673   -6298.5886   -6181.8759     2735.033      18390.9    85.982043 
   24360    1062.0452   -6299.9641   -6181.4914    3139.5106    18379.784    85.962205 
   24370    1079.9082   -6301.5403    -6181.075     3730.285    18371.032    85.932318 
   24380    1076.3957    -6300.739   -6180.6654    4640.8594    18365.148    85.925526 
   24390    1067.6843   -6299.3695   -6180.2677    4507.1254    18362.783    85.971792 
   24400     1063.946   -6298.5474   -6179.8626    3452.7941    18363.852     86.07769 
   24410    1044.4852   -6295.9557   -6179.4418    3238.2813    18367.704    86.221967 
   24420    1060.8469   -6297.3165   -6178.9775    2971.7354    18374.131    86.365765 
   24430    1079.4927   -6298.9005   -6178.4815    2891.2371    18382.998    86.466758 
   24440    1072.3371   -6297.6241   -6178.0033    2978.7873    18394.262    86.522027 
   24450    1065.3624   -6296.3854   -6177.5426    3061.5956    18408.014    86.569228 
   24460    1079.1511   -6297.4683   -6177.0874    2899.6841    18424.323    86.657635 
   24470    1079.7907   -6297.0905   -6176.6382    2734.7126     18443.13    86.811612 
   24480     1078.068   -6296.4801     -6176.22    2586.4851    18464.316    87.031303 
   24490    1074.3376   -6295.6609    -6175.817    2938.3109    18487.833    87.305525 
   24500    1104.1744   -6298.6074   -6175.4351    2484.5852    18513.886    87.599738 
   24510     1123.533    -6300.441   -6175.1093     1449.738    18542.165    87.873341 
   24520    1111.8807   -6298.9017   -6174.8697    487.73519    18571.886     88.09091 
   24530    1093.7178    -6296.704   -6174.6981    -99.70807    18602.293    88.240981 
   24540    1071.6006   -6294.0872   -6174.5485   -307.92734      18632.9    88.343291 
   24550    1065.2764   -6293.2172    -6174.384   -670.34646    18663.468    88.426872 
   24560    1064.5889   -6292.9269   -6174.1704    -1243.214    18693.677    88.491127 
   24570    1052.1929   -6291.2812   -6173.9075   -1474.9595    18723.097    88.565121 
   24580    1083.2758   -6294.4348   -6173.5937   -2051.6545    18751.456    88.677024 
   24590    1125.1113   -6298.7811   -6173.2733   -2859.8163    18778.246    88.807673 
   24600    1126.7027   -6298.7081   -6173.0227   -3064.2872    18802.858     88.91672 
   24610    1121.5769   -6297.9894   -6172.8758   -3283.2879    18825.021     88.98052 
   24620    1074.0169   -6292.6105   -6172.8023   -2413.7379    18844.657    89.015597 
   24630    1072.6151    -6292.386   -6172.7342   -2663.3924    18862.267    89.037276 
   24640     1103.329   -6295.7208   -6172.6427   -3600.7245    18877.675    89.041537 
   24650    1082.4877   -6293.3278   -6172.5747   -3443.8044    18890.246    89.045992 
   24660    1044.8329   -6289.0617    -6172.509   -3219.4804    18900.014    89.085842 
   24670     1023.707   -6286.5664   -6172.3703   -3065.7297    18907.148     89.16388 
   24680    1024.5497   -6286.3983   -6172.1083   -3478.4686    18911.717    89.256858 
   24690    1063.3562   -6290.3502   -6171.7312   -4358.5965    18913.386    89.326228 
   24700    1099.2478   -6293.9358    -6171.313   -4340.3167    18911.517     89.36881 
   24710    1094.3685   -6292.9985   -6170.9201   -3237.7088    18906.138    89.408761 
   24720    1076.6723   -6290.6645   -6170.5601   -2711.9018    18898.017     89.45798 
   24730    1086.7304   -6291.4334    -6170.207   -2964.8943    18887.604    89.520488 
   24740    1100.8064   -6292.6615   -6169.8649   -3126.6954    18874.731    89.581649 
   24750      1107.93   -6293.1624   -6169.5711   -2812.3136    18859.295    89.613458 
   24760     1099.493   -6291.9893   -6169.3392   -2353.7278    18841.533    89.613328 
   24770    1088.6187   -6290.5772   -6169.1402   -2074.4286    18821.797    89.603329 
   24780    1128.7829   -6294.8977   -6168.9803    -2166.188    18800.299    89.592707 
   24790    1125.9836   -6294.5048   -6168.8997   -1020.6655    18777.102    89.563075 
   24800    1087.7919   -6290.2159   -6168.8711    955.11853    18753.129    89.508412 
   24810    1084.6072   -6289.8353   -6168.8458     2167.254    18729.855    89.436865 
   24820    1088.3037      -6290.2   -6168.7981    2964.4063    18708.311    89.364918 
   24830    1087.2553   -6290.0375   -6168.7525    3378.8578    18689.136    89.305702 
   24840    1078.1719   -6288.9705   -6168.6988    3424.0385    18672.657    89.281229 
   24850    1100.4745   -6291.4078   -6168.6482    3220.2348    18658.916    89.285906 
   24860    1115.4947   -6293.0632   -6168.6281     3476.277      18647.8    89.294912 
   24870    1126.0539   -6294.2878   -6168.6748    3796.2155    18639.486     89.31095 
   24880    1125.0439   -6294.2896   -6168.7892    3234.7203    18634.157    89.360753 
   24890    1146.3301   -6296.8529   -6168.9781    2347.9833    18631.402    89.465509 
   24900    1143.3136   -6296.7866   -6169.2483    2441.3654    18630.599    89.612269 
   24910    1115.8522   -6294.0264   -6169.5514     3203.475    18631.817    89.769394 
   24920     1148.297   -6297.9791   -6169.8848    2756.9871    18635.523    89.922908 
   24930    1135.0515   -6296.8662   -6170.2495    2976.1075     18641.52    90.059925 
   24940    1106.4374   -6294.0664   -6170.6416    3477.1933    18649.953    90.161848 
   24950    1120.9076   -6296.0695   -6171.0305     2672.795    18661.118     90.22832 
   24960    1112.3984   -6295.5022   -6171.4125    1917.4429    18674.508    90.302565 
   24970    1102.7255   -6294.8152   -6171.8045     1652.548     18689.54    90.435971 
   24980    1094.8265   -6294.3102   -6172.1807    1639.9983    18705.998    90.641081 
   24990    1096.4094   -6294.8513   -6172.5452    1038.9061    18723.817    90.874526 
   25000    1091.5972   -6294.6599   -6172.8906    585.75166    18742.592    91.077007 
Loop time of 13260.2 on 16 procs for 20000 steps with 864 atoms

Performance: 0.130 ns/day, 184.170 hours/ns, 1.508 timesteps/s
95.0% CPU use with 16 MPI tasks x 1 OpenMP threads

MPI task timing breakdown:
Section |  min time  |  avg time  |  max time  |%varavg| %total
---------------------------------------------------------------
Pair    | 10449      | 11508      | 12949      | 746.4 | 86.79
Bond    | 0.0016005  | 0.0053148  | 0.0093822  |   3.3 |  0.00
Neigh   | 0.2707     | 0.29651    | 0.34376    |   3.6 |  0.00
Comm    | 277.63     | 1339       | 2746.1     |1881.6 | 10.10
Output  | 3.6845     | 3.7196     | 4.24       |   7.0 |  0.03
Modify  | 25.527     | 408.94     | 802.29     |1578.3 |  3.08
Other   |            | 0.1194     |            |       |  0.00

Nlocal:        54.0000 ave          60 max          44 min
Histogram: 1 0 0 1 0 4 4 2 2 2
Nghost:        524.062 ave         553 max         500 min
Histogram: 2 1 2 0 4 1 4 0 1 1
Neighs:         0.00000 ave           0 max           0 min
Histogram: 16 0 0 0 0 0 0 0 0 0
FullNghs:      2456.50 ave        2798 max        1846 min
Histogram: 1 0 0 0 2 4 2 3 2 2

Total # of neighbors = 39304
Ave neighs/atom = 45.490741
Ave special neighs/atom = 0.0000000
Neighbor list builds = 2000
Dangerous builds = 2000
unfix   3
                
Total wall time: 4:35:47
