LAMMPS (29 Sep 2021 - Update 3)
OMP_NUM_THREADS environment is not set. Defaulting to 1 thread. (src/comm.cpp:98)
  using 1 OpenMP thread(s) per MPI task
units	metal
atom_style	full

read_data	mixed.data
Reading data file ...
  orthogonal box = (0.0000000 0.0000000 0.0000000) to (15.502212 15.402052 70.841525)
  2 by 1 by 8 MPI processor grid
  reading atoms ...
  864 atoms
Finding 1-2 1-3 1-4 neighbors ...
  special bond factors lj:    0        0        0       
  special bond factors coul:  0        0        0       
     0 = max # of 1-2 neighbors
     0 = max # of 1-3 neighbors
     0 = max # of 1-4 neighbors
     1 = max # of special neighbors
  special bonds CPU = 0.002 seconds
  read_data CPU = 0.033 seconds

pair_style	quip
pair_coeff	* * /ocean/projects/cts180021p/wuziqi/clease/mint-PD/PhaseDiagram-Clease/Liquid/GAP_potential/gap_LiKCl.xml "Potential xml_label=GAP_2021_9_27_0_1_17_37_618" 17 19 3

neighbor	0.3 bin
neigh_modify	delay 10

timestep	0.001
compute	msd all msd
thermo_style	custom step temp pe etotal press vol c_msd[4]
thermo	10
dump	1 all custom 10 xyz-mix.dump type id x y z
dump	2 all custom 10 force-mix.dump type id fx fy fz

fix     1 all nve
run     2000
Neighbor list info ...
  update every 1 steps, delay 10 steps, check yes
  max neighbors/atom: 2000, page size: 100000
  master list distance cutoff = 6.22
  ghost atom cutoff = 6.22
  binsize = 3.11, bins = 5 5 23
  1 neighbor lists, perpetual/occasional/extra = 1 0 0
  (1) pair quip, perpetual
      attributes: full, newton on
      pair build: full/bin
      stencil: full/bin/3d
      bin: standard
Per MPI rank memory allocation (min/avg/max) = 8.904 | 8.909 | 8.916 Mbytes
Step Temp PotEng TotEng Press Volume c_msd[4] 
       0            0   -6414.6092   -6414.6092   -8996.9866    16914.539            0 
      10    95.860065   -6425.3161   -6414.6228   -10882.275    16914.539 0.00077933166 
      20    229.03731    -6440.185   -6414.6355   -12475.142    16914.539 0.0093775226 
      30    249.34477   -6442.4428    -6414.628     -10213.3    16914.539  0.030212741 
      40    248.24655    -6442.315   -6414.6227   -8336.8682    16914.539  0.053808265 
      50    285.14769    -6446.437   -6414.6283   -8615.1952    16914.539  0.072000809 
      60    292.72184   -6447.2808   -6414.6272   -9342.9381    16914.539  0.087153748 
      70    280.17142   -6445.8771   -6414.6236   -9869.2499    16914.539   0.10198109 
      80    281.19207   -6445.9951   -6414.6277    -10294.65    16914.539   0.11798926 
      90    268.26029   -6444.5494   -6414.6246   -9784.8729    16914.539   0.13582886 
     100    263.60742   -6444.0319   -6414.6261   -9260.1077    16914.539   0.15297691 
     110    266.81408   -6444.3885    -6414.625   -9324.2282    16914.539   0.16905869 
     120    277.26539   -6445.5556   -6414.6262   -9888.0881    16914.539    0.1846357 
     130    285.07553   -6446.4267   -6414.6261    -10213.05    16914.539   0.20084172 
     140    284.14138   -6446.3223   -6414.6259   -10193.515    16914.539   0.21791648 
     150    279.03191   -6445.7517   -6414.6253   -10301.408    16914.539   0.23440376 
     160    280.06863   -6445.8685   -6414.6264   -10527.708    16914.539   0.24944995 
     170    273.73993   -6445.1618   -6414.6257   -10301.134    16914.539   0.26342452 
     180    268.00203    -6444.521   -6414.6249   -9641.2173    16914.539    0.2755889 
     190    273.83964   -6445.1737   -6414.6265   -9293.2599    16914.539   0.28642792 
     200    272.45085   -6445.0193    -6414.627   -9401.3798    16914.539   0.29775171 
     210    266.52225   -6444.3555   -6414.6245    -9739.952    16914.539   0.30975692 
     220    277.26483   -6445.5568   -6414.6275   -10274.008    16914.539   0.32155584 
     230    271.03398   -6444.8608   -6414.6265   -10197.129    16914.539   0.33326886 
     240    256.99297   -6443.2921   -6414.6241   -9796.9787    16914.539   0.34420392 
     250      260.518   -6443.6868   -6414.6256   -10082.712    16914.539   0.35319632 
     260    269.24542   -6444.6609   -6414.6262   -10817.477    16914.539   0.36024544 
     270    272.22344   -6444.9933   -6414.6263   -11178.931    16914.539   0.36660869 
     280    269.37878   -6444.6751   -6414.6255   -10808.686    16914.539   0.37346839 
     290    271.00389   -6444.8563   -6414.6254   -10344.777    16914.539   0.38086972 
     300    276.76784   -6445.4999    -6414.626   -10017.839    16914.539   0.38795838 
     310    280.46562   -6445.9129   -6414.6265   -10033.139    16914.539    0.3941169 
     320    277.07214   -6445.5343   -6414.6265   -10046.112    16914.539   0.40018262 
     330    269.95649   -6444.7383   -6414.6242   -9805.4895    16914.539   0.40670818 
     340    277.76904    -6445.612   -6414.6265   -9619.6934    16914.539   0.41197492 
     350    285.05274   -6446.4248   -6414.6267   -9485.1667    16914.539   0.41648156 
     360    281.88575   -6446.0712   -6414.6264   -9140.4937    16914.539   0.42146503 
     370    274.53044   -6445.2493    -6414.625    -8962.175    16914.539   0.42701601 
     380    276.18295   -6445.4346    -6414.626   -9426.8139    16914.539   0.43273687 
     390    277.57134   -6445.5897   -6414.6262   -10070.673    16914.539   0.43923402 
     400     276.8595   -6445.5103   -6414.6262    -10303.89    16914.539   0.44707416 
     410    275.46607   -6445.3545   -6414.6259   -10360.075    16914.539   0.45492711 
     420    275.69775   -6445.3806   -6414.6261   -10312.296    16914.539   0.46006875 
     430    277.65506   -6445.5987   -6414.6258   -10210.723    16914.539   0.46173996 
     440    281.42642   -6446.0203   -6414.6268   -10308.419    16914.539    0.4617939 
     450    276.88831    -6445.514   -6414.6267   -10250.708    16914.539   0.46269964 
     460    270.21574   -6444.7677   -6414.6248   -9929.1914    16914.539   0.46518425 
     470    276.62755   -6445.4853   -6414.6271   -9753.2735    16914.539   0.46909827 
     480    275.65992   -6445.3765   -6414.6262   -9607.8074    16914.539   0.47463575 
     490    271.78497   -6444.9435   -6414.6255   -9553.3315    16914.539   0.48058495 
     500    272.32251   -6445.0046   -6414.6266   -9909.1382    16914.539   0.48553511 
     510    270.37544   -6444.7864   -6414.6256   -10365.506    16914.539   0.48834362 
     520    275.17373   -6445.3223   -6414.6263    -10515.66    16914.539   0.48843099 
     530    278.78936   -6445.7259   -6414.6265   -10437.285    16914.539   0.48792995 
     540    277.10642   -6445.5367   -6414.6251   -10771.458    16914.539   0.48938579 
     550    282.60439   -6446.1508   -6414.6259   -11859.636    16914.539   0.49278637 
     560    285.47147   -6446.4709   -6414.6262   -12796.498    16914.539   0.49690199 
     570    281.74023   -6446.0538   -6414.6252   -13126.326    16914.539   0.50034525 
     580    281.37788   -6446.0138   -6414.6257    -13240.78    16914.539   0.50202219 
     590    281.57404   -6446.0359   -6414.6258   -12844.509    16914.539   0.50251947 
     600    279.80949   -6445.8394   -6414.6262   -12078.209    16914.539   0.50341715 
     610    275.08337   -6445.3114   -6414.6254   -11496.883    16914.539    0.5053235 
     620    273.83436   -6445.1722   -6414.6256   -11201.877    16914.539   0.50732064 
     630    275.31248   -6445.3374   -6414.6259   -11206.933    16914.539   0.50828438 
     640    275.60187     -6445.37   -6414.6262    -11537.36    16914.539   0.50794637 
     650    274.21825   -6445.2155   -6414.6261   -11690.872    16914.539   0.50662649 
     660    272.65227   -6445.0411   -6414.6263   -11698.657    16914.539   0.50518157 
     670     269.8069   -6444.7228   -6414.6254   -11783.391    16914.539   0.50451723 
     680    274.15038   -6445.2075   -6414.6256   -11810.462    16914.539   0.50456436 
     690    280.99552   -6445.9719   -6414.6264   -11861.031    16914.539   0.50555103 
     700    280.63072   -6445.9305   -6414.6257   -11627.854    16914.539   0.50781264 
     710    278.92562   -6445.7406    -6414.626   -11080.463    16914.539   0.51097066 
     720    273.95593   -6445.1857   -6414.6255   -10327.151    16914.539   0.51457431 
     730    270.75852   -6444.8288   -6414.6252   -9765.8913    16914.539   0.51787072 
     740    276.18815   -6445.4342    -6414.625   -9492.6985    16914.539   0.51977351 
     750    290.40662   -6447.0224   -6414.6271   -9560.4488    16914.539   0.52017505 
     760    291.76733   -6447.1737   -6414.6266   -9561.5036    16914.539   0.52117133 
     770    283.11091   -6446.2069   -6414.6254   -9453.5946    16914.539   0.52378958 
     780    279.64758   -6445.8206   -6414.6255   -9604.3927    16914.539   0.52683471 
     790    283.69703   -6446.2721   -6414.6253   -9946.1137    16914.539   0.52917358 
     800    294.07987   -6447.4316   -6414.6265   -10564.719    16914.539   0.53017696 
     810    295.44119   -6447.5838   -6414.6269   -10778.266    16914.539   0.53058912 
     820    284.62085    -6446.375   -6414.6251   -10769.398    16914.539   0.53152004 
     830    283.14102   -6446.2102   -6414.6254    -11181.41    16914.539   0.53258998 
     840    287.99305   -6446.7525   -6414.6265   -11723.574    16914.539   0.53389001 
     850    287.09189   -6446.6515    -6414.626   -11500.578    16914.539   0.53659046 
     860      284.553   -6446.3684    -6414.626   -10897.209    16914.539   0.54081319 
     870    282.67441   -6446.1585   -6414.6257   -10433.812    16914.539   0.54539106 
     880    283.51653   -6446.2522   -6414.6255   -10209.532    16914.539    0.5489499 
     890    288.50338    -6446.809    -6414.626   -10354.377    16914.539   0.55135174 
     900    291.76454   -6447.1726   -6414.6258   -10876.976    16914.539   0.55353637 
     910    292.97848   -6447.3082    -6414.626   -11347.991    16914.539   0.55595171 
     920    291.51405   -6447.1447   -6414.6258   -11398.427    16914.539   0.55853793 
     930    291.60074   -6447.1542   -6414.6257    -11293.91    16914.539   0.56185808 
     940     293.2344   -6447.3372   -6414.6265   -11200.097    16914.539   0.56678171 
     950    287.97843   -6446.7504    -6414.626   -11130.864    16914.539   0.57322831 
     960    283.64605   -6446.2659   -6414.6248   -11250.962    16914.539    0.5801369 
     970    292.04718   -6447.2043    -6414.626   -11840.242    16914.539   0.58714521 
     980    298.10465    -6447.881    -6414.627   -12253.162    16914.539   0.59518368 
     990     291.0629   -6447.0941   -6414.6256   -12038.151    16914.539    0.6045403 
    1000    284.65421   -6446.3788   -6414.6252   -11444.717    16914.539   0.61356144 
    1010    284.88743   -6446.4056    -6414.626    -11257.53    16914.539   0.62075706 
    1020    284.45231   -6446.3572   -6414.6261   -11432.152    16914.539   0.62656562 
    1030    283.20586   -6446.2174   -6414.6254   -11511.221    16914.539   0.63192389 
    1040    287.83552   -6446.7343   -6414.6258   -11667.574    16914.539   0.63739756 
    1050    291.82132   -6447.1799   -6414.6268   -11837.973    16914.539   0.64401168 
    1060    283.59762   -6446.2613   -6414.6256   -11789.256    16914.539   0.65213742 
    1070    276.66662   -6445.4869   -6414.6243   -11806.091    16914.539   0.65985523 
    1080    282.99965   -6446.1952   -6414.6262   -11840.254    16914.539   0.66594809 
    1090    284.44573   -6446.3567   -6414.6263   -11632.042    16914.539   0.67175387 
    1100    278.27382   -6445.6672   -6414.6253   -11480.901    16914.539   0.67800117 
    1110    275.51841   -6445.3596   -6414.6251    -11752.64    16914.539   0.68395064 
    1120    280.64433   -6445.9316   -6414.6253   -12488.193    16914.539   0.68890156 
    1130    288.25028   -6446.7809   -6414.6262   -13418.509    16914.539   0.69291839 
    1140    287.86356   -6446.7373   -6414.6257   -13894.107    16914.539   0.69647294 
    1150     284.1342   -6446.3207   -6414.6251   -13718.421    16914.539   0.69999552 
    1160    284.54442   -6446.3664    -6414.625   -13274.877    16914.539   0.70441524 
    1170    289.30798   -6446.8989   -6414.6262   -12874.099    16914.539   0.71032926 
    1180    288.40526   -6446.7977   -6414.6256   -12499.771    16914.539   0.71698745 
    1190    288.87345   -6446.8499   -6414.6256   -12393.703    16914.539   0.72286598 
    1200    289.55166   -6446.9266   -6414.6266   -12529.541    16914.539   0.72828782 
    1210    280.56525   -6445.9223   -6414.6249   -12558.433    16914.539   0.73461558 
    1220    279.30484    -6445.782   -6414.6251   -12626.277    16914.539   0.74159765 
    1230    283.14385   -6446.2112   -6414.6261    -12562.24    16914.539   0.74841645 
    1240    281.80648   -6446.0608   -6414.6249   -12023.389    16914.539   0.75444294 
    1250     287.2171   -6446.6653   -6414.6258   -11729.343    16914.539   0.75867551 
    1260    291.37697   -6447.1294   -6414.6258   -11960.648    16914.539    0.7611503 
    1270     290.7704   -6447.0612   -6414.6254   -12380.586    16914.539   0.76288707 
    1280    289.55224   -6446.9258   -6414.6258   -12882.375    16914.539    0.7645348 
    1290    287.09987   -6446.6515   -6414.6251   -12907.605    16914.539   0.76662403 
    1300     288.7486   -6446.8364   -6414.6261    -12351.66    16914.539   0.76992192 
    1310     286.5441   -6446.5899   -6414.6255   -11746.932    16914.539   0.77514416 
    1320    286.76446   -6446.6147   -6414.6256   -11616.487    16914.539     0.782071 
    1330    287.70548   -6446.7204   -6414.6264    -11836.58    16914.539   0.79015066 
    1340    282.63252   -6446.1531    -6414.625   -11799.148    16914.539   0.79849012 
    1350    284.43132   -6446.3541   -6414.6254   -11987.933    16914.539   0.80587623 
    1360    290.10013   -6446.9873   -6414.6262   -12175.108    16914.539   0.81222683 
    1370    288.39934   -6446.7972   -6414.6258   -12215.241    16914.539   0.81788554 
    1380    282.88925   -6446.1815   -6414.6247   -12046.377    16914.539   0.82275667 
    1390    283.76927   -6446.2807   -6414.6258   -12356.549    16914.539   0.82695931 
    1400    284.16314   -6446.3247   -6414.6258   -12558.911    16914.539   0.83096223 
    1410    282.88017   -6446.1807    -6414.625   -12245.265    16914.539   0.83439005 
    1420     289.0508   -6446.8696   -6414.6256   -12006.917    16914.539   0.83692973 
    1430    296.30837   -6447.6802   -6414.6265   -12125.384    16914.539   0.83971571 
    1440    294.95766   -6447.5284   -6414.6255   -12272.826    16914.539   0.84385839 
    1450    294.31334   -6447.4568   -6414.6257   -12376.112    16914.539   0.84859385 
    1460    293.05239   -6447.3161   -6414.6256   -12629.004    16914.539   0.85302956 
    1470    291.25758   -6447.1162   -6414.6259   -13083.249    16914.539    0.8570116 
    1480    286.64819   -6446.6016   -6414.6255   -13428.045    16914.539   0.86066862 
    1490    283.52532   -6446.2528   -6414.6252   -13496.705    16914.539   0.86430477 
    1500     286.3633   -6446.5701   -6414.6258   -13624.975    16914.539   0.86918451 
    1510    287.48957    -6446.696   -6414.6261   -13700.531    16914.539   0.87693222 
    1520      283.311   -6446.2294   -6414.6257   -13763.966    16914.539   0.88681719 
    1530    278.93423   -6445.7409   -6414.6254    -13749.08    16914.539    0.8961479 
    1540    279.24322   -6445.7753   -6414.6253   -13602.367    16914.539   0.90287427 
    1550    284.34307   -6446.3451   -6414.6262   -13438.713    16914.539   0.90704945 
    1560    286.61186   -6446.5976   -6414.6256   -13327.774    16914.539   0.90952163 
    1570    288.64067   -6446.8242   -6414.6259   -13235.348    16914.539   0.91064836 
    1580    289.00905   -6446.8647   -6414.6253   -13276.193    16914.539   0.91132952 
    1590    292.22619   -6447.2238   -6414.6255   -13462.144    16914.539   0.91275471 
    1600    296.71233   -6447.7243   -6414.6256   -13630.138    16914.539   0.91602557 
    1610    298.76154   -6447.9536   -6414.6263   -13722.427    16914.539   0.92135086 
    1620    292.39065   -6447.2423   -6414.6257   -13309.957    16914.539   0.92745789 
    1630    287.36199   -6446.6803   -6414.6246   -12820.554    16914.539   0.93230372 
    1640    296.02429   -6447.6483   -6414.6263   -13120.327    16914.539   0.93527841 
    1650    300.16791   -6448.1107   -6414.6265   -13790.323    16914.539   0.93826144 
    1660    293.71858   -6447.3901   -6414.6253    -14241.14    16914.539   0.94282849 
    1670    288.35047   -6446.7915   -6414.6256   -14455.623    16914.539   0.94858717 
    1680    282.73321   -6446.1651   -6414.6258   -14172.658    16914.539   0.95453176 
    1690    275.72229   -6445.3823   -6414.6251   -13627.921    16914.539   0.95952727 
    1700    277.97595   -6445.6333   -6414.6247   -13300.724    16914.539   0.96211871 
    1710    291.05049   -6447.0941    -6414.627    -13269.73    16914.539   0.96263565 
    1720    289.50874   -6446.9216   -6414.6265   -13136.603    16914.539    0.9641931 
    1730     279.6014   -6445.8141   -6414.6241    -12984.07    16914.539   0.96762806 
    1740    285.21215   -6446.4421   -6414.6263   -12956.522    16914.539    0.9714688 
    1750    286.63852   -6446.6019   -6414.6269    -12491.03    16914.539   0.97542993 
    1760    276.86406   -6445.5095   -6414.6249   -11731.805    16914.539   0.97865163 
    1770    278.27156   -6445.6664   -6414.6248   -11664.802    16914.539   0.98004953 
    1780    292.12948   -6447.2142   -6414.6268   -12328.976    16914.539   0.98151253 
    1790    296.31795   -6447.6809   -6414.6262   -12931.917    16914.539   0.98612529 
    1800    292.55667   -6447.2612    -6414.626   -13640.461    16914.539   0.99403792 
    1810    285.79514   -6446.5059    -6414.625   -14229.526    16914.539    1.0030771 
    1820    288.12419   -6446.7662   -6414.6256   -14597.158    16914.539    1.0110949 
    1830    292.85204   -6447.2945   -6414.6264   -14639.212    16914.539    1.0174953 
    1840    289.21054   -6446.8874   -6414.6255   -13970.459    16914.539    1.0218515 
    1850    287.11754   -6446.6534    -6414.625   -13100.598    16914.539    1.0231482 
    1860    292.11589   -6447.2121   -6414.6262   -12689.719    16914.539    1.0216815 
    1870    291.24456   -6447.1151   -6414.6264    -12380.18    16914.539    1.0194153 
    1880    284.36534   -6446.3461   -6414.6247   -12152.672    16914.539    1.0178874 
    1890     288.1505   -6446.7696    -6414.626   -12357.505    16914.539    1.0174891 
    1900    290.81767   -6447.0678   -6414.6266   -12569.765    16914.539    1.0188537 
    1910    284.40865   -6446.3521   -6414.6259   -12506.032    16914.539    1.0221045 
    1920    279.51829   -6445.8054   -6414.6247   -12334.547    16914.539    1.0260227 
    1930    286.47358   -6446.5831   -6414.6265   -12454.296    16914.539    1.0290399 
    1940    288.06715   -6446.7604    -6414.626   -12717.705    16914.539    1.0306657 
    1950    286.25893   -6446.5579   -6414.6253   -12605.082    16914.539    1.0306186 
    1960    289.99788   -6446.9755   -6414.6258   -12348.209    16914.539    1.0295042 
    1970    293.21828    -6447.335    -6414.626   -12071.048    16914.539    1.0291662 
    1980    292.53599   -6447.2583   -6414.6255   -11867.242    16914.539    1.0306618 
    1990    292.57928   -6447.2634   -6414.6257   -12029.322    16914.539    1.0338136 
    2000    292.21203   -6447.2225   -6414.6258   -12394.635    16914.539    1.0382092 
Loop time of 1251.16 on 16 procs for 2000 steps with 864 atoms

Performance: 0.138 ns/day, 173.772 hours/ns, 1.599 timesteps/s
96.9% CPU use with 16 MPI tasks x 1 OpenMP threads

MPI task timing breakdown:
Section |  min time  |  avg time  |  max time  |%varavg| %total
---------------------------------------------------------------
Pair    | 628.54     | 905.96     | 1238.2     | 545.4 | 72.41
Bond    | 0.0001328  | 0.00052936 | 0.0010538  |   0.0 |  0.00
Neigh   | 0.025415   | 0.035431   | 0.054411   |   3.8 |  0.00
Comm    | 12.471     | 314.44     | 561.54     | 850.3 | 25.13
Output  | 0.17494    | 18.801     | 47.82      | 427.1 |  1.50
Modify  | 0.0082424  | 0.009825   | 0.012053   |   1.2 |  0.00
Other   |            | 11.92      |            |       |  0.95

Nlocal:        54.0000 ave          73 max          37 min
Histogram: 1 0 1 2 5 5 0 0 1 1
Nghost:        565.875 ave         657 max         471 min
Histogram: 1 1 0 5 2 2 0 2 1 2
Neighs:         0.00000 ave           0 max           0 min
Histogram: 16 0 0 0 0 0 0 0 0 0
FullNghs:      2887.12 ave        4564 max        1794 min
Histogram: 1 3 4 2 2 0 2 0 0 2

Total # of neighbors = 46194
Ave neighs/atom = 53.465278
Ave special neighs/atom = 0.0000000
Neighbor list builds = 199
Dangerous builds = 198
unfix   1

velocity    all create 937.5 1312343 dist gaussian
fix     2 all npt temp 937.5 937.5 $(100.0*dt) aniso 0.0 1.01325 $(1000.0*dt)
fix     2 all npt temp 937.5 937.5 0.10000000000000000555 aniso 0.0 1.01325 $(1000.0*dt)
fix     2 all npt temp 937.5 937.5 0.10000000000000000555 aniso 0.0 1.01325 1
run     3000
Per MPI rank memory allocation (min/avg/max) = 8.905 | 8.910 | 8.916 Mbytes
Step Temp PotEng TotEng Press Volume c_msd[4] 
    2000        937.5   -6447.2225   -6342.6429   -7849.0697    16914.539    1.0382092 
    2010    788.79678   -6430.5905    -6342.599   -3037.7266    16911.852    1.0497725 
    2020    625.36855   -6412.0825   -6342.3217    2543.5437    16906.865     1.071963 
    2030    613.56793   -6410.0977   -6341.6533    2562.8345    16903.454    1.0902542 
    2040    612.90976   -6408.9257   -6340.5547    1781.8323    16901.988    1.1049136 
    2050    583.06877   -6404.3183   -6339.2761    2187.3504     16901.97    1.1189145 
    2060    571.96726   -6401.8877   -6338.0839    3145.8555    16903.657    1.1321663 
    2070     588.9822   -6402.7017   -6336.9999    3442.2172    16907.719    1.1440086 
    2080     625.8099   -6405.7169   -6335.9069    2477.4583     16914.34    1.1555564 
    2090    632.21937   -6405.2429   -6334.7179    2283.6049    16922.964    1.1696258 
    2100    641.72908   -6405.0146   -6333.4288    1750.3373    16933.359    1.1854183 
    2110    651.41171   -6404.6841   -6332.0181    1302.3969    16945.156    1.2005213 
    2120    641.22809    -6402.078    -6330.548     1999.654    16958.087    1.2134008 
    2130    649.35737   -6401.4857    -6329.049    1829.8259    16972.555    1.2222935 
    2140    684.07366   -6403.7792   -6327.4697     298.0795      16988.4    1.2273306 
    2150    690.14045   -6402.8144   -6325.8282   -245.88424    17004.611    1.2314044 
    2160    669.07035   -6398.8514   -6324.2156    480.43267    17020.795    1.2350606 
    2170     690.1664   -6399.5826   -6322.5935   -321.81998    17037.289    1.2369355 
    2180    706.25062   -6399.6696   -6320.8863   -1638.9388    17053.565    1.2394995 
    2190    702.98368   -6397.5798   -6319.1609    -2213.162    17068.671    1.2446781 
    2200    714.52218   -6397.1255   -6317.4194   -2112.8994    17082.121    1.2510091 
    2210    717.25568   -6395.6667   -6315.6557   -890.95482    17094.036    1.2573167 
    2220    720.80428   -6394.3016   -6313.8948    118.75786     17105.26    1.2635305 
    2230    730.28871   -6393.5846   -6312.1198    45.113996    17116.527    1.2701413 
    2240    737.51003   -6392.5949   -6310.3246    -709.3988    17127.801    1.2777761 
    2250    744.55047   -6391.5837    -6308.528   -1084.0958    17138.556    1.2855856 
    2260     754.9479   -6390.9279   -6306.7124    -817.0784    17148.525    1.2925495 
    2270    765.52779   -6390.2792   -6304.8835   -965.79675    17157.828    1.3000904 
    2280     767.5415   -6388.6594    -6303.039   -1183.6427    17166.357     1.308449 
    2290    762.58716   -6386.2804   -6301.2126   -644.20609    17174.013    1.3167625 
    2300     750.8777   -6383.1577   -6299.3962   -196.27728    17181.149    1.3267075 
    2310    745.73088   -6380.7673   -6297.5798    49.626871    17188.115     1.338172 
    2320    761.58413   -6380.6754   -6295.7195   -492.13925    17195.058    1.3483417 
    2330    793.88898   -6382.3639   -6293.8044   -1347.6642    17201.586    1.3554443 
    2340    811.75465   -6382.4296   -6291.8772   -1643.0914    17207.067    1.3611709 
    2350    827.62408   -6382.3151   -6289.9924   -951.60334    17211.304    1.3670202 
    2360    840.66937   -6381.9207   -6288.1428   -38.202189    17214.801    1.3764777 
    2370    827.92749   -6378.7115   -6286.3549    382.07937    17218.213    1.3901917 
    2380    835.81963   -6377.8483   -6284.6114    522.55228    17221.905    1.4042045 
    2390    843.39543   -6376.9367   -6282.8547    1348.7638    17226.068    1.4190741 
    2400    840.80208      -6374.9   -6281.1072    2275.8838    17231.296    1.4355022 
    2410    829.80953   -6371.9411   -6279.3746    2723.6538    17238.281    1.4536715 
    2420    832.94761   -6370.5686   -6277.6521    2605.7633    17247.377    1.4712405 
    2430    872.24408   -6373.1864   -6275.8863    1986.4019    17258.469    1.4825889 
    2440    880.14805   -6372.3054   -6274.1236    2620.2591    17271.193      1.49009 
    2450    863.32533   -6368.7563   -6272.4511    4042.5858    17286.006    1.4980314 
    2460    863.89931     -6367.21   -6270.8408    4709.5047    17303.914     1.505911 
    2470    880.53648   -6367.4613   -6269.2361    4143.8987    17325.411    1.5135509 
    2480    895.08232   -6367.4734   -6267.6256     2760.238    17350.047    1.5245386 
    2490    919.95343   -6368.6494   -6266.0272    1173.2871    17376.735    1.5414275 
    2500     931.0891   -6368.3332   -6264.4688    461.78371    17404.253    1.5655798 
    2510    910.20062   -6364.5454   -6263.0112    742.40902    17432.016    1.5939314 
    2520    903.48346   -6362.4228   -6261.6379    195.93589    17460.102     1.619934 
    2530    889.38728   -6359.4859   -6260.2734   -264.03504    17488.132    1.6413106 
    2540    869.49409   -6355.9177   -6258.9244   -131.16175     17515.75    1.6588065 
    2550    872.85871   -6354.8971   -6257.5284   -513.98257    17542.963    1.6738734 
    2560    902.92051   -6356.7792   -6256.0571   -1597.5809    17569.411    1.6885888 
    2570    924.00964   -6357.6231   -6254.5484   -2432.8911     17594.28    1.7052439 
    2580    932.31766   -6357.0876   -6253.0862   -2619.7205    17616.921    1.7264336 
    2590    947.31009    -6357.359   -6251.6852   -2954.9703    17637.099    1.7494494 
    2600    959.81269   -6357.4349   -6250.3664   -2996.4705    17654.603    1.7688678 
    2610    952.04323   -6355.3543   -6249.1524   -3411.1452    17669.361    1.7848329 
    2620    943.66192   -6353.2972   -6248.0303   -3906.4669    17681.079     1.797715 
    2630    937.68645   -6351.5778   -6246.9774    -3587.116    17689.449     1.808212 
    2640    924.97258    -6349.145   -6245.9629   -3128.9034     17694.74    1.8197863 
    2650    954.59634   -6351.4536    -6244.967   -3894.7325    17697.249    1.8332522 
    2660    961.40869   -6351.2546    -6244.008   -3489.3368     17696.58    1.8514433 
    2670    944.07896   -6348.4519   -6243.1385   -1892.8603    17693.096    1.8730615 
    2680    930.82195   -6346.1501   -6242.3155   -976.03997    17688.027    1.8886534 
    2690    947.26173   -6347.1713   -6241.5028   -949.65282    17682.175    1.8955802 
    2700    953.71206   -6347.0915   -6240.7035   -1296.1322    17675.605    1.9013837 
    2710    963.25747   -6347.4066   -6239.9538   -1577.6568    17668.047    1.9120833 
    2720    959.55568   -6346.2961   -6239.2563   -1395.0671    17659.324    1.9278922 
    2730    959.94665    -6345.711   -6238.6275   -1197.2707    17649.563    1.9434602 
    2740    946.51319   -6343.6392   -6238.0542   -512.68171    17639.001    1.9572714 
    2750    917.55021   -6339.8589   -6237.5048    508.48396    17628.194    1.9695798 
    2760    929.52363   -6340.6263   -6236.9365    941.17085    17617.897    1.9795396 
    2770    940.60706   -6341.2591    -6236.333     1388.885    17608.539    1.9898135 
    2780    965.63098   -6343.4548   -6235.7372    1175.1649    17600.405    2.0013635 
    2790    993.47171   -6346.0179   -6235.1946    863.37749     17593.33    2.0151151 
    2800    986.88911   -6344.8541   -6234.7652    1965.0611    17587.184    2.0342574 
    2810    976.27704   -6343.3568   -6234.4516    2934.8954    17582.723    2.0546051 
    2820     995.5898   -6345.3118   -6234.2522    3144.4844    17580.684    2.0720427 
    2830    992.66904   -6344.9064   -6234.1726      2977.47    17581.244    2.0910141 
    2840    1003.8682   -6346.2219   -6234.2389    1900.0005    17584.181    2.1107895 
    2850    1015.3767   -6347.7281   -6234.4613    804.92186    17588.672    2.1315549 
    2860    1025.4378   -6349.2708   -6234.8817    206.27563    17593.805    2.1568642 
    2870    997.50454   -6346.7675   -6235.4944       350.39    17599.105    2.1862881 
    2880    965.39682   -6343.9157   -6236.2242    784.09404    17604.659    2.2145891 
    2890    953.83761    -6343.408    -6237.006    1402.3997    17610.831    2.2401249 
    2900    947.72409   -6343.5336   -6237.8135    1592.4842    17618.077    2.2659846 
    2910    945.06098   -6344.0509    -6238.628    927.90123    17626.513    2.2912137 
    2920    948.21166   -6345.2142   -6239.4397   -113.22017    17635.608    2.3143043 
    2930    929.79292   -6343.9559   -6240.2361   -476.49365    17644.569    2.3392538 
    2940    917.25454   -6343.3064   -6240.9852      -450.43    17653.087    2.3697825 
    2950    937.17689   -6346.2413   -6241.6978   -455.26079    17661.156    2.4060372 
    2960    934.41348   -6346.6311   -6242.3958   -388.42883    17668.796    2.4457429 
    2970     920.0937   -6345.7029    -6243.065   -776.39924    17676.021    2.4816377 
    2980    924.82855   -6346.8658   -6243.6998   -1483.9427    17682.508    2.5083114 
    2990    910.79652   -6345.8852   -6244.2845   -1359.1363    17687.768     2.530046 
    3000    906.88576   -6345.9683   -6244.8038   -1181.2637    17691.861    2.5514555 
    3010    921.54674   -6348.0648   -6245.2649   -1772.5258    17694.888    2.5730302 
    3020    917.74513   -6348.0591   -6245.6832   -2094.8849    17696.448    2.5910911 
    3030     916.4287   -6348.2889   -6246.0599   -2260.4974    17696.268    2.6025042 
    3040    928.15271   -6349.9389    -6246.402   -2401.2172    17694.219    2.6084121 
    3050    922.58883   -6349.6361   -6246.7199   -2552.0656    17690.175    2.6116781 
    3060    918.66836   -6349.4839   -6247.0051   -2203.5091    17684.068    2.6164192 
    3070    924.00312   -6350.3284   -6247.2545   -1394.6017    17676.208    2.6285049 
    3080    918.31045   -6349.9125   -6247.4736   -638.58771    17667.237    2.6500462 
    3090    909.34224   -6349.0815    -6247.643   -110.66594    17657.804    2.6753103 
    3100     922.1653   -6350.6321   -6247.7632   -433.95379    17648.282    2.6994464 
    3110    924.97928   -6351.0223   -6247.8394   -669.50557    17638.496    2.7220906 
    3120    927.07209   -6351.3166   -6247.9003   -1346.6307    17628.174    2.7422392 
    3130    913.91025   -6349.8777   -6247.9296   -1211.1286     17616.89    2.7584272 
    3140     918.5403   -6350.3849   -6247.9203   -798.52402    17604.703    2.7726028 
    3150     901.2911   -6348.3896   -6247.8492   -35.233872    17591.975    2.7919708 
    3160    885.60019   -6346.4962   -6247.7061    411.34846    17579.285    2.8224107 
    3170     894.1821    -6347.206   -6247.4586    222.05863    17566.982    2.8644997 
    3180    902.74511   -6347.8082   -6247.1056    44.911672    17554.949    2.9096555 
    3190    921.64473   -6349.4892   -6246.6784    376.12128    17543.069    2.9465061 
    3200    933.41819   -6350.3221   -6246.1979    1010.9417      17531.6    2.9703404 
    3210    946.57959   -6351.2972   -6245.7048    1137.8082    17521.005    2.9852232 
    3220     940.5395   -6350.1485   -6245.2299    1543.5691    17511.441    3.0038433 
    3230    920.17785   -6347.4038   -6244.7565    2538.3275    17503.251    3.0299747 
    3240    932.68968   -6348.3061   -6244.2632    2922.1252    17497.125    3.0562476 
    3250    943.98713   -6349.0569   -6243.7537    3223.4398    17493.426    3.0803165 
    3260    940.48568   -6348.1773   -6243.2647    3463.8647    17492.382    3.1039291 
    3270    926.57745   -6346.1454   -6242.7843    3188.0453    17494.159    3.1251098 
    3280    957.55587   -6349.1229   -6242.3061    1673.9127     17498.43    3.1412954 
    3290    965.30173   -6349.5262   -6241.8454     1415.392    17504.163    3.1566535 
    3300    942.03908   -6346.5318   -6241.4459     1941.725    17511.101    3.1736937 
    3310    949.38522   -6346.9873    -6241.082     1464.683    17519.532    3.1876681 
    3320    955.92258   -6347.3625   -6240.7279    1229.0652    17529.175    3.1957104 
    3330    978.20595   -6349.5433    -6240.423    746.25892    17539.795    3.1988685 
    3340    990.98665   -6350.7425   -6240.1964   -377.76543    17550.966    3.2038422 
    3350    983.40761   -6349.7847   -6240.0841   -1014.5956    17561.841    3.2153762 
    3360    964.55634   -6347.6737    -6240.076   -332.24928    17571.954     3.232694 
    3370    953.72565   -6346.5255    -6240.136    931.04097    17581.833    3.2526456 
    3380    957.36564   -6347.0431   -6240.2475    1485.7147    17592.415    3.2748258 
    3390    949.30397   -6346.2933   -6240.3971    1631.1122    17604.205    3.2985907 
    3400    964.36446   -6348.1625   -6240.5862    624.00452    17617.241     3.318537 
    3410    955.54485   -6347.4105   -6240.8181    104.62888    17630.848    3.3350476 
    3420    935.07255   -6345.3988     -6241.09   -143.07103    17644.532    3.3496491 
    3430     922.0226   -6344.2002   -6241.3472   -488.99312    17658.081    3.3599503 
    3440    944.44815   -6346.9376    -6241.583   -1378.2203    17671.155    3.3646701 
    3450    951.62821   -6347.9835   -6241.8279   -1177.2378    17683.157    3.3664743 
    3460    937.89884   -6346.7252   -6242.1012   -585.05212    17694.183    3.3696106 
    3470    953.91303   -6348.8073   -6242.3969    -463.8526    17704.682    3.3807855 
    3480    975.61875     -6351.57   -6242.7383    -506.0265    17714.768    3.4028496 
    3490    957.54688   -6349.9732   -6243.1574     80.08867    17724.487     3.428145 
    3500    923.02961   -6346.5783    -6243.613   -83.988123    17734.207    3.4486696 
    3510    899.25558   -6344.3338   -6244.0205   -483.42216    17743.843    3.4628403 
    3520    903.32123   -6345.1129   -6244.3461    -870.9031    17753.079    3.4731223 
    3530    939.45488   -6349.4122   -6244.6146   -2061.5298    17761.522    3.4881495 
    3540     956.7635   -6351.6094    -6244.881   -2957.5151    17768.263    3.5120805 
    3550    963.25375   -6352.6471   -6245.1947   -3223.4761    17772.552    3.5418555 
    3560    952.29688   -6351.8061   -6245.5759   -2966.8418    17774.144    3.5765226 
    3570    920.52164   -6348.6636    -6245.978   -1719.6372    17773.296    3.6107256 
    3580    910.07949   -6347.8597   -6246.3389   -858.33424    17770.955    3.6362366 
    3590    925.07426   -6349.8462   -6246.6528   -1031.6417    17767.816    3.6531963 
    3600    926.66392   -6350.3116   -6246.9408   -1060.2039    17763.819    3.6647901 
    3610      915.965   -6349.3718   -6247.1945   -559.96146    17758.968    3.6715723 
    3620    910.12069   -6348.9239   -6247.3985   -263.00097    17753.629    3.6739642 
    3630    924.98345   -6350.7359   -6247.5526   -441.53981    17748.035     3.674012 
    3640     928.5515   -6351.2592   -6247.6778   -386.49504    17742.085    3.6753581 
    3650    923.57032   -6350.8108   -6247.7851    73.294678    17735.817    3.6807896 
    3660    917.86201   -6350.2513   -6247.8624    1011.3715    17729.637     3.692358 
    3670    920.45095    -6350.573   -6247.8953    1843.6935    17724.306    3.7064239 
    3680    944.96223   -6353.3164   -6247.9044    1902.8685     17720.45    3.7156421 
    3690    933.17766   -6352.0071   -6247.9097    2294.1763    17718.237    3.7179121 
    3700    925.82557    -6351.191   -6247.9138     2100.582    17717.909    3.7171497 
    3710    928.25759   -6351.4493   -6247.9008    1671.0087    17719.335    3.7154734 
    3720    920.29112   -6350.5165   -6247.8567    1367.3007     17722.21    3.7181828 
    3730    940.08083   -6352.6513   -6247.7839    361.12223    17726.216     3.732689 
    3740     949.6407   -6353.6469   -6247.7131   -465.91502    17730.566    3.7585045 
    3750    923.23463   -6350.6499   -6247.6617   -324.91126    17734.612    3.7903292 
    3760    899.78566   -6347.9494    -6247.577   -129.88493    17738.407    3.8222345 
    3770    928.19138   -6350.9677   -6247.4265   -747.75383    17742.043    3.8419627 
    3780    947.71166   -6352.9577    -6247.239   -1121.6956    17745.083    3.8495519 
    3790     947.1448   -6352.7178   -6247.0624   -939.03348    17747.232    3.8506047 
    3800    963.43504   -6354.3935   -6246.9209   -748.35353    17748.584    3.8499425 
    3810    933.77318   -6350.9711   -6246.8073    86.118495    17749.385    3.8554497 
    3820    931.12016   -6350.5736   -6246.7057    601.31469     17750.24    3.8696277 
    3830     932.6139    -6350.627   -6246.5925    1288.2901    17751.638    3.8959059 
    3840    925.94453   -6349.7562   -6246.4657    1332.8753      17754.1    3.9312636 
    3850    939.18625   -6351.0851   -6246.3174   -102.68664    17757.581    3.9648076 
    3860    928.74338   -6349.7521   -6246.1494   -646.39202    17761.079     3.990041 
    3870     916.7047   -6348.2267   -6245.9669     51.95751    17764.149    4.0085544 
    3880    916.41994   -6347.9724   -6245.7444    1238.5768    17767.318      4.02512 
    3890    940.65126    -6350.419   -6245.4879    2108.4395    17771.553    4.0418038 
    3900    968.85334   -6353.3105   -6245.2335    2010.0038    17777.549    4.0584756 
    3910    983.63988   -6354.7566   -6245.0301    1431.5992    17785.286    4.0751587 
    3920    973.58603   -6353.5166   -6244.9116    959.61715    17794.324    4.0932957 
    3930    941.62904   -6349.9029   -6244.8628    566.80226    17804.253    4.1168296 
    3940    928.44688   -6348.3896     -6244.82   -88.922708    17814.725    4.1476056 
    3950    932.81906   -6348.8167   -6244.7593   -619.56822     17825.23    4.1808924 
    3960    938.54534   -6349.3843   -6244.6882   -710.65811     17835.34    4.2147055 
    3970    948.45745   -6350.4284   -6244.6266   -1241.0378    17844.903    4.2524034 
    3980    937.68163   -6349.1738    -6244.574   -1497.8494    17853.535    4.2927149 
    3990    929.66727   -6348.2329   -6244.5271   -1953.0878    17860.961    4.3293783 
    4000    937.09414   -6349.0049   -6244.4707   -3131.3223    17866.728    4.3601915 
    4010    935.26836   -6348.7362   -6244.4056   -3837.9805    17869.917    4.3863735 
    4020    949.29131   -6350.2391   -6244.3442   -4252.1031    17869.865    4.4057867 
    4030    967.83459   -6352.2827   -6244.3193   -4120.0321    17866.197    4.4203952 
    4040    957.95246   -6351.2184   -6244.3574   -3304.4582    17859.002    4.4350239 
    4050    946.02453   -6349.9806   -6244.4501   -2353.2379    17848.902    4.4477395 
    4060    950.46027   -6350.5949   -6244.5696   -2224.4926    17836.589    4.4547381 
    4070    948.67788   -6350.5464   -6244.7199   -2146.6077    17822.229    4.4602885 
    4080    934.73281   -6349.1669    -6244.896   -2155.8062    17805.856    4.4724682 
    4090    923.78653   -6348.1228    -6245.073   -2067.2831    17787.459    4.4944214 
    4100    927.20252   -6348.6593   -6245.2284   -1893.1954    17767.077    4.5182561 
    4110    946.57504   -6350.9694   -6245.3775   -1872.7867    17744.821    4.5367811 
    4120    955.05982   -6352.0849   -6245.5465   -1844.1474    17720.702    4.5511923 
    4130    970.30103   -6354.0028   -6245.7643   -1971.5944    17694.716    4.5577498 
    4140    974.66641   -6354.7954   -6246.0698   -1732.4752    17666.801    4.5567226 
    4150    953.39612   -6352.8095   -6246.4567   -1060.4768    17637.132    4.5560754 
    4160    922.57904   -6349.7717   -6246.8566    36.058225    17606.266    4.5547277 
    4170    916.93439   -6349.4983   -6247.2129    766.36764    17575.041    4.5497892 
    4180    911.27237   -6349.1664   -6247.5126    1576.8868    17544.134    4.5456917 
    4190    909.72582   -6349.2238   -6247.7426    2178.9242    17514.202    4.5423566 
    4200    938.18519   -6352.5906   -6247.9347     2500.816    17485.741     4.534884 
    4210    950.93242   -6354.2004   -6248.1224       2943.5    17459.053    4.5225536 
    4220     959.6315   -6355.3972   -6248.3488    3127.2477    17434.497    4.5086417 
    4230    951.77557   -6354.8028   -6248.6308     3571.683    17412.291    4.4999982 
    4240    935.70956   -6353.3199   -6248.9401    4251.3793    17392.809    4.5005877 
    4250    948.77625   -6355.1062   -6249.2688    4853.4311     17376.59    4.5081303 
    4260    948.39695     -6355.43   -6249.6349    5754.0627    17364.166    4.5204991 
    4270    940.64411   -6354.9625   -6250.0322    6376.4684    17356.266    4.5337591 
    4280    958.13456   -6357.3666   -6250.4853    5979.8406    17353.358    4.5467696 
    4290    943.15655   -6356.2063   -6250.9958    5624.0326    17355.292    4.5636788 
    4300    928.92728   -6355.1624   -6251.5392    5204.5413    17361.825    4.5862071 
    4310    923.81044   -6355.1227   -6252.0702    4753.0561    17372.676    4.6120194 
    4320    915.16647   -6354.6591   -6252.5709    3964.3005     17387.53     4.641619 
    4330    913.70897   -6354.9468   -6253.0212    3223.0028    17405.867     4.676292 
    4340    903.74119   -6354.2245   -6253.4108    2692.2332    17427.128    4.7135295 
    4350    879.20811   -6351.7927   -6253.7157    2397.5003    17450.956    4.7519915 
    4360    893.78868   -6353.6203   -6253.9169    1155.1273    17477.041    4.7886435 
    4370     911.5609   -6355.6943   -6254.0083    83.715097      17504.5    4.8227554 
    4380    906.37436   -6355.1215    -6254.014    -669.7542    17532.421    4.8546866 
    4390    889.39251   -6353.1491    -6253.936   -708.43921    17560.215    4.8836588 
    4400    900.23161   -6354.1889   -6253.7667   -699.21054    17587.771      4.91259 
    4410    894.90269   -6353.3161   -6253.4884   -481.08709    17615.115    4.9445422 
    4420    910.66555   -6354.6811    -6253.095   -1865.7998    17642.224    4.9765002 
    4430    939.82635   -6357.4217   -6252.5826   -3578.9115    17668.032    5.0060244 
    4440    950.99035   -6358.1226   -6252.0382   -4117.2501    17691.146    5.0312642 
    4450    916.24122   -6353.7254   -6251.5173   -2941.6648    17711.116    5.0502644 
    4460    899.84396   -6351.3553   -6250.9764    -2019.159    17728.723    5.0616352 
    4470    908.31042   -6351.6453   -6250.3219   -2395.5519     17744.63    5.0640107 
    4480    905.10555   -6350.5277   -6249.5619   -3012.7824    17758.589    5.0568065 
    4490    906.97955   -6349.9175   -6248.7426     -3417.94     17770.08    5.0458241 
    4500    892.69689   -6347.4677    -6247.886   -2916.6535    17778.791    5.0390488 
    4510    900.13559   -6347.4227   -6247.0112   -2688.2401    17785.044    5.0380305 
    4520    946.82845   -6351.7628   -6246.1427   -3190.0338    17789.005    5.0406934 
    4530    965.33738   -6353.0683   -6245.3835    -3381.459    17790.286    5.0447904 
    4540    949.69834   -6350.7418   -6244.8015   -2616.0978     17788.78    5.0516645 
    4550    934.09606   -6348.5657   -6244.3659   -1805.5634     17785.04    5.0667499 
    4560    912.35627   -6345.7806   -6244.0059   -1011.0147    17779.772    5.0960842 
    4570    908.34653   -6345.0117   -6243.6843   -652.52659    17773.612    5.1372694 
    4580    909.50119   -6344.8099   -6243.3537   -152.75001    17766.931    5.1755446 
    4590     951.0148   -6349.1112   -6243.0241   -415.21929    17760.062    5.2014156 
    4600    947.70967   -6348.4446   -6242.7262   -178.33151     17752.91    5.2218144 
    4610    947.32151   -6348.1693   -6242.4942    344.12385    17745.647    5.2375581 
    4620    951.83216   -6348.4846   -6242.3063    554.46823     17738.67    5.2529618 
    4630    946.97113   -6347.8028   -6242.1668    841.61902    17732.194    5.2660158 
    4640    938.69168   -6346.7789   -6242.0665    831.28295    17726.428     5.266186 
    4650    934.03681   -6346.1613   -6241.9681   -3.1997615    17721.312    5.2527272 
    4660    948.69902   -6347.6941   -6241.8653   -890.17688    17716.203    5.2379554 
    4670    940.23512   -6346.6491   -6241.7645    -900.2276    17710.436    5.2311013 
    4680    939.06713   -6346.4478   -6241.6935   -666.84886    17703.944    5.2260854 
    4690    947.08823    -6347.283   -6241.6339   -536.37424    17696.918    5.2242788 
    4700     980.7641   -6351.0159   -6241.6102   -977.17501    17689.431    5.2328212 
    4710    987.45595   -6351.8275   -6241.6753   -777.25187    17681.222    5.2484816 
    4720    953.11532   -6348.1543   -6241.8329    293.94853    17672.478    5.2621638 
    4730    940.28352   -6346.9143   -6242.0243    736.18656    17663.975    5.2700722 
    4740    954.51425   -6348.7219   -6242.2444    605.25998    17656.095    5.2777454 
    4750    955.26775   -6349.0728   -6242.5112    504.00961    17648.782    5.2876982 
    4760    966.43086   -6350.6546   -6242.8478    525.75005    17641.943    5.2984871 
    4770    958.14471   -6350.1425     -6243.26    696.69619    17635.594    5.3142958 
    4780     950.5324   -6349.7683    -6243.735    642.47826     17629.84    5.3359687 
    4790    950.12865    -6350.262   -6244.2737    713.84597    17624.652    5.3586233 
    4800    938.09383    -6349.489   -6244.8432    1014.3363    17620.132    5.3829107 
    4810    962.69534   -6352.8467   -6245.4565    334.58809    17616.413    5.4109903 
    4820    944.42964   -6351.4883   -6246.1357     328.0994    17613.057    5.4433612 
    4830    910.54789   -6348.3799    -6246.807    293.27885     17609.99    5.4739828 
    4840    933.63067   -6351.5868   -6247.4389   -930.64665    17607.085    5.4933007 
    4850    943.21105    -6353.273   -6248.0564   -1402.0597    17603.493    5.5022816 
    4860    935.54648   -6353.0213   -6248.6597   -813.68781    17598.846    5.5093981 
    4870    922.14032   -6352.0875   -6249.2214   -190.55491    17593.544    5.5207927 
    4880    902.23013   -6350.3325   -6249.6874    263.70193    17588.109    5.5392684 
    4890    912.09532   -6351.8043   -6250.0587    212.06347    17582.885    5.5640686 
    4900    897.97191   -6350.4946   -6250.3245    664.76439    17577.933    5.5956185 
    4910    889.10777   -6349.6709   -6250.4896    987.53431    17573.542    5.6248792 
    4920     887.3086   -6349.5149   -6250.5343    1638.0443    17570.036    5.6411384 
    4930    924.26235    -6353.597   -6250.4942    1447.5327    17567.828    5.6461835 
    4940    929.18247   -6354.0604   -6250.4087    1115.3206    17566.834    5.6537452 
    4950    928.23359   -6353.8677   -6250.3218    418.21213     17566.74    5.6708427 
    4960    937.13897   -6354.7693     -6250.23   -225.86548    17567.002    5.6989983 
    4970    921.35918   -6352.9201   -6250.1411     688.8447    17567.209    5.7372335 
    4980    905.80149   -6351.0722   -6250.0287    1967.3839    17568.028    5.7821695 
    4990    922.03567   -6352.7408   -6249.8863    2196.5248    17570.382     5.828375 
    5000    921.41223   -6352.5064   -6249.7215    2400.4384    17574.551    5.8692895 
Loop time of 2025.37 on 16 procs for 3000 steps with 864 atoms

Performance: 0.128 ns/day, 187.534 hours/ns, 1.481 timesteps/s
95.7% CPU use with 16 MPI tasks x 1 OpenMP threads

MPI task timing breakdown:
Section |  min time  |  avg time  |  max time  |%varavg| %total
---------------------------------------------------------------
Pair    | 1159.1     | 1585.5     | 1946.3     | 586.0 | 78.28
Bond    | 0.00024128 | 0.00082724 | 0.0021663  |   0.0 |  0.00
Neigh   | 0.039158   | 0.045436   | 0.060533   |   2.9 |  0.00
Comm    | 77.906     | 275.06     | 573.2      | 975.9 | 13.58
Output  | 0.18817    | 0.19229    | 0.22815    |   2.5 |  0.01
Modify  | 0.57113    | 164.6      | 380.38     |1179.7 |  8.13
Other   |            | 0.013      |            |       |  0.00

Nlocal:        54.0000 ave          71 max          46 min
Histogram: 3 3 3 4 1 0 0 0 0 2
Nghost:        566.625 ave         651 max         487 min
Histogram: 3 2 1 2 0 0 2 2 2 2
Neighs:         0.00000 ave           0 max           0 min
Histogram: 16 0 0 0 0 0 0 0 0 0
FullNghs:      2688.00 ave        3942 max        2079 min
Histogram: 3 3 4 1 1 2 0 0 0 2

Total # of neighbors = 43008
Ave neighs/atom = 49.777778
Ave special neighs/atom = 0.0000000
Neighbor list builds = 300
Dangerous builds = 300
unfix   2

fix     3 all npt temp 937.5 937.5 $(100.0*dt) aniso 1.01325 1.01325 $(1000.0*dt)
fix     3 all npt temp 937.5 937.5 0.10000000000000000555 aniso 1.01325 1.01325 $(1000.0*dt)
fix     3 all npt temp 937.5 937.5 0.10000000000000000555 aniso 1.01325 1.01325 1
run     20000
Per MPI rank memory allocation (min/avg/max) = 8.906 | 8.911 | 8.919 Mbytes
Step Temp PotEng TotEng Press Volume c_msd[4] 
    5000    921.41223   -6352.5064   -6249.7215    2400.4384    17574.551    5.8692895 
    5010    930.55808   -6353.5151   -6249.7099    1956.0624    17575.509    5.8890542 
    5020    936.08507   -6354.1031   -6249.6814     1322.674    17578.077    5.8881393 
    5030    937.90814   -6354.2727   -6249.6476    681.30242    17581.747    5.8776271 
    5040    924.74591    -6352.765   -6249.6082      19.7335    17585.963    5.8742984 
    5050     905.6077   -6350.5563   -6249.5344   -165.82113    17590.234    5.8783338 
    5060    925.89312   -6352.6834   -6249.3987   -689.93283    17594.362    5.8820743 
    5070    960.83153   -6356.4076   -6249.2254   -1389.0887    17597.918    5.8894151 
    5080    956.66612   -6355.7883   -6249.0707   -1483.9859    17600.386    5.9046141 
    5090     953.2549   -6355.2983   -6248.9613   -1673.9916    17601.621    5.9211908 
    5100    936.53296    -6353.345   -6248.8733   -1388.1728    17601.503      5.93321 
    5110    925.12697   -6351.9789   -6248.7796   -478.29912    17600.268    5.9436468 
    5120    916.15039   -6350.8362   -6248.6383     618.8237    17598.646    5.9620358 
    5130    931.57135   -6352.3494   -6248.4312    811.88054    17597.463    5.9913778 
    5140    945.23971   -6353.6054   -6248.1624    473.09154    17596.913    6.0251707 
    5150    956.03224   -6354.4911   -6247.8442     94.79157    17596.775    6.0541478 
    5160    1001.8551   -6359.2805    -6247.522   -1143.0476    17596.635    6.0705541 
    5170    992.91257   -6358.0338   -6247.2729   -1113.5956    17595.656    6.0784097 
    5180    964.49147   -6354.7118   -6247.1213    57.994549     17593.83    6.0913214 
    5190    946.33203   -6352.5819   -6247.0172    1506.2501    17592.067    6.1191915 
    5200    930.09082   -6350.6688   -6246.9158    2093.9723    17591.477    6.1566509 
    5210    921.74613   -6349.6201   -6246.7979    2482.2551     17592.62    6.1939133 
    5220    910.61352   -6348.1944   -6246.6141    2709.7783    17595.847    6.2229802 
    5230    945.14414   -6351.8027   -6246.3704    1446.6253     17601.22    6.2428297 
    5240    944.62065   -6351.4517   -6246.0778    465.48254    17607.878     6.260077 
    5250    938.82441   -6350.4988   -6245.7715   -541.91621    17614.949    6.2783704 
    5260    943.87243   -6350.7263   -6245.4359   -1040.0432     17621.65    6.3011064 
    5270    935.54302   -6349.4353   -6245.0741   -190.31132    17627.648    6.3271244 
    5280    937.76069      -6349.3   -6244.6914    463.34547     17633.51    6.3506641 
    5290    941.82452   -6349.3398   -6244.2779    195.99144    17639.743    6.3680403 
    5300    936.76193   -6348.3398   -6243.8426   -314.01775    17646.183    6.3791072 
    5310    940.72709    -6348.324   -6243.3844   -588.90949    17652.434    6.3857065 
    5320    951.01192   -6349.0061   -6242.9193   -639.88908    17658.255    6.3918462 
    5330    934.60979   -6346.7176   -6242.4604    63.825817     17663.68    6.3992984 
    5340    933.45592   -6346.1318   -6242.0034   -168.20926    17669.136    6.4064507 
    5350    950.55618   -6347.5591   -6241.5231   -1434.3736    17674.436    6.4177731 
    5360    955.65522   -6347.6503   -6241.0455   -2089.6566    17678.643    6.4337842 
    5370    949.79785   -6346.5519   -6240.6005   -1739.1646    17681.226    6.4495774 
    5380    944.03877   -6345.4888   -6240.1799   -1412.2359    17682.374    6.4615576 
    5390    950.37666   -6345.7959     -6239.78   -927.78333    17682.366     6.474978 
    5400    961.41008   -6346.6529   -6239.4062    -488.7579    17681.574    6.4948169 
    5410    966.35404    -6346.865   -6239.0668   -429.29094     17680.34    6.5129375 
    5420    992.64293    -6349.529   -6238.7982   -816.03434    17678.704    6.5198303 
    5430    995.66652    -6349.705    -6238.637   -1173.4509    17676.384    6.5196612 
    5440    982.39063   -6348.2084   -6238.6212   -1339.9327    17673.057    6.5203425 
    5450    967.37167   -6346.6231   -6238.7113   -830.18323    17668.623    6.5282835 
    5460    965.49603   -6346.5753   -6238.8727   -399.88353    17663.454    6.5465233 
    5470    979.44328   -6348.3839   -6239.1255   -787.87521    17657.833    6.5732218 
    5480    958.80661   -6346.4153    -6239.459   -822.79056    17651.557     6.597957 
    5490    985.82212   -6349.8713   -6239.9014   -1788.6502    17644.435    6.6085914 
    5500    973.69505   -6349.0813   -6240.4642   -1435.6854    17635.872    6.6102766 
    5510    965.31729   -6348.8294   -6241.1468   -607.77596    17626.053    6.6133504 
    5520    963.20216   -6349.3783   -6241.9317    256.74001    17615.639    6.6237063 
    5530    946.38055   -6348.3484   -6242.7782    1761.3733    17605.409    6.6454799 
    5540    950.08853   -6349.6383   -6243.6545    2180.6995    17596.473     6.672449 
    5550    939.36928    -6349.313    -6244.525    1938.1064    17589.246    6.7019385 
    5560    911.89989   -6347.0276   -6245.3038    1472.5763    17583.562     6.737349 
    5570     905.0595   -6346.8918    -6245.931    1031.6986    17579.083    6.7703504 
    5580    921.72826    -6349.255   -6246.4348    465.51782    17575.422     6.793582 
    5590    930.54951    -6350.644   -6246.8398    535.00839    17572.193    6.8136627 
    5600    936.98532   -6351.7117   -6247.1896    701.85524    17569.375    6.8408073 
    5610     914.0728   -6349.4328   -6247.4666     1448.497    17567.177    6.8799156 
    5620     921.4426   -6350.4617   -6247.6734    1545.2566    17566.126    6.9250479 
    5630    923.46058    -6350.821   -6247.8076    900.32403    17566.305    6.9710335 
    5640    937.61059   -6352.4907   -6247.8989   -386.62991    17567.183    7.0099662 
    5650    949.00465   -6353.8419    -6247.979   -1329.8943    17567.775    7.0352443 
    5660    936.64343   -6352.5475   -6248.0635    -911.4664     17567.37    7.0468593 
    5670    923.99092   -6351.2109   -6248.1383   -330.83535    17566.201    7.0527602 
    5680    917.11051   -6350.4742   -6248.1692      238.283    17564.766    7.0552201 
    5690     927.6126   -6351.6404   -6248.1638    542.72338    17563.491    7.0507962 
    5700    920.62076   -6350.8182   -6248.1216    1043.0259    17562.697    7.0437906 
    5710    938.42191   -6352.7392   -6248.0569    87.458302    17562.643    7.0461898 
    5720    968.01459   -6355.9824   -6247.9989    -1007.819    17562.655    7.0657463 
    5730    959.75208   -6355.0565   -6247.9947   -528.97007    17561.957    7.0962915 
    5740    934.96491   -6352.3274   -6248.0307    618.63614    17560.879    7.1283631 
    5750    939.49865   -6352.8831   -6248.0806     599.0113    17560.202    7.1519892 
    5760     926.1006   -6351.4366   -6248.1287    802.64585    17560.042    7.1665984 
    5770    911.31415   -6349.8057   -6248.1473    731.58693    17560.524    7.1761677 
    5780    911.54956    -6349.804   -6248.1193    202.88975    17561.575    7.1824035 
    5790    894.36732   -6347.7844   -6248.0164    449.37977    17562.884    7.1857757 
    5800    913.31738   -6349.7152   -6247.8333    632.32239    17564.556    7.1931172 
    5810    924.44945   -6350.7012   -6247.5775    1200.3792    17566.792    7.2150747 
    5820    924.51124   -6350.4059   -6247.2752    1560.3704    17570.017    7.2550467 
    5830    932.76864   -6350.9844   -6246.9327     1558.284    17574.532    7.3036405 
    5840    934.32033   -6350.7721   -6246.5473    1150.2961     17580.33    7.3472581 
    5850    931.52507   -6350.0388   -6246.1258     712.5813     17587.12    7.3824208 
    5860    935.37161    -6350.001   -6245.6589    276.32534    17594.538    7.4131993 
    5870    934.70467   -6349.3945   -6245.1268   -632.85362     17602.18    7.4419715 
    5880    942.33304   -6349.6513   -6244.5327   -1623.6236    17609.329    7.4697473 
    5890    957.73807   -6350.7188   -6243.8816    -1883.348    17615.223     7.492799 
    5900    964.88408   -6350.8481   -6243.2138   -1169.9779    17619.651    7.5036668 
    5910    950.09241   -6348.5305   -6242.5463    316.15626    17623.204    7.5051981 
    5920    949.06156   -6347.7372   -6241.8679    643.29339    17626.938    7.5055304 
    5930    946.79649   -6346.7773   -6241.1607    464.45943    17631.202    7.5042066 
    5940    957.87991   -6347.2779    -6240.425    239.76409    17635.865    7.5043039 
    5950    983.52611   -6349.4075   -6239.6937   -197.44355    17640.741    7.5158833 
    5960    986.26929   -6349.0377   -6239.0178   -333.12662    17645.507    7.5403816 
    5970     986.9091   -6348.5337   -6238.4425    115.34098    17650.084    7.5687625 
    5980    1001.6785   -6349.7158    -6237.977    542.66501    17654.794    7.6007992 
    5990    992.61309   -6348.3642   -6237.6367    736.58273    17659.986    7.6402596 
    6000    1014.6075   -6350.6178   -6237.4368    -295.4227    17665.742    7.6795144 
    6010     1017.785   -6350.9425   -6237.4071   -987.02629     17671.34    7.7141262 
    6020    995.58452   -6348.6159    -6237.557   -628.63381    17676.232     7.741701 
    6030    972.14389   -6346.3228   -6237.8787    129.24328    17680.655    7.7649911 
    6040    950.58483   -6344.3501   -6238.3109    507.17249    17685.189    7.7934291 
    6050    955.20564   -6345.4093   -6238.8546    1281.2679    17690.229     7.830578 
    6060     946.7657   -6345.1298   -6239.5166    2336.1506     17696.43    7.8680407 
    6070    954.69515   -6346.8327   -6240.3351    2256.1543    17704.596    7.8923407 
    6080    966.43931    -6349.154   -6241.3463    741.79901    17714.628    7.9039495 
    6090    955.18097   -6349.1053   -6242.5534   -1031.6991    17725.368    7.9075072 
    6100     919.6105   -6346.4282   -6243.8443   -1806.6498    17735.431    7.9103781 
    6110    899.94604   -6345.4359   -6245.0455   -2115.5193    17744.099    7.9225511 
    6120    904.81183   -6346.9837   -6246.0506   -2460.9544    17751.082     7.946929 
    6130    922.54826   -6349.7568   -6246.8452   -2966.6944    17756.035    7.9754858 
    6140    925.01975   -6350.6396   -6247.4523   -3335.5223    17758.543    7.9959439 
    6150     923.6782   -6350.9417    -6247.904   -3485.0966    17758.263    8.0065068 
    6160    927.01783   -6351.6414   -6248.2312   -2752.7177    17755.095    8.0178751 
    6170    928.20878   -6352.0136   -6248.4705   -1701.0072    17749.575    8.0323746 
    6180    923.57113    -6351.675   -6248.6492   -1394.8718    17742.495    8.0452978 
    6190    923.85656   -6351.8313   -6248.7737   -1725.8649    17734.119    8.0562603 
    6200    945.77789    -6354.378   -6248.8751   -1883.3674    17724.216    8.0649272 
    6210     932.4577   -6352.9868   -6248.9698    -1523.348    17712.654     8.074881 
    6220    920.94399   -6351.7836   -6249.0509   -1010.2116    17699.687    8.0903884 
    6230    913.02443   -6350.9311   -6249.0818   -677.31218    17685.721    8.1079577 
    6240    902.77493   -6349.7637   -6249.0578   -308.42109    17671.032    8.1189593 
    6250    904.73249   -6349.8808   -6248.9566   -151.13319      17655.9    8.1173938 
    6260    925.39726   -6352.0132   -6248.7837   -70.023212     17640.49    8.1081212 
    6270    928.47565   -6352.1425   -6248.5696    422.03036    17624.896    8.1037029 
    6280    933.28759   -6352.4398   -6248.3301    1104.1611    17609.518    8.1081127 
    6290    946.21289   -6353.6341   -6248.0827     1462.123    17594.876    8.1144037 
    6300    955.75413    -6354.472   -6247.8562     1136.611    17581.251    8.1217464 
    6310    936.77535   -6352.1592   -6247.6605    612.65401    17568.414    8.1365619 
    6320    910.43319   -6349.0242    -6247.464    866.93891    17556.006    8.1633181 
    6330    901.40191   -6347.7598    -6247.207      1747.63     17544.24    8.1969405 
    6340    909.30915    -6348.293   -6246.8582    2402.6919    17533.766    8.2236755 
    6350    924.93307   -6349.6031   -6246.4254    3070.6901    17525.163    8.2384741 
    6360    918.27151   -6348.3703   -6245.9358    4151.1998    17519.058     8.247161 
    6370     933.0787   -6349.4868   -6245.4005    4182.9129    17516.237    8.2516981 
    6380    955.10732   -6351.3955   -6244.8518     3735.222    17516.813    8.2549571 
    6390     956.2816   -6351.0084   -6244.3337    3248.3292      17520.5    8.2622244 
    6400    970.73796    -6352.152   -6243.8647     2521.361    17526.898    8.2738094 
    6410    969.36645   -6351.5925   -6243.4582    2630.4854    17535.541    8.2848371 
    6420    955.72884   -6349.7341   -6243.1212    3127.7151    17546.519    8.2900739 
    6430    962.77519   -6350.2399   -6242.8409    3108.8959    17560.212    8.2905587 
    6440    966.52766   -6350.4258   -6242.6082    2798.7844    17576.683    8.2963724 
    6450    966.28169   -6350.2386   -6242.4484    2374.6135    17595.715    8.3169777 
    6460    939.55469   -6347.1468   -6242.3381    1827.7182     17617.01    8.3526242 
    6470    937.82203   -6346.8534   -6242.2379    363.65226    17640.067    8.4012321 
    6480    933.88218    -6346.279    -6242.103   -512.05303    17663.832    8.4567403 
    6490    945.06094     -6347.37    -6241.947   -691.25102    17687.571     8.512775 
    6500    956.70464   -6348.5158    -6241.794   -815.75817    17711.058    8.5665934 
    6510    955.08297   -6348.2057   -6241.6648   -866.28435    17734.207    8.6168404 
    6520     977.6882   -6350.6385   -6241.5759   -2050.6742    17756.837    8.6590618 
    6530    973.09193   -6350.1022   -6241.5523   -2301.6757    17778.103    8.6892993 
    6540    927.59486    -6345.087   -6241.6124   -1278.9959    17797.799    8.7107145 
    6550    909.59542   -6343.1552   -6241.6884     -1281.76    17816.585    8.7320525 
    6560     911.8967   -6343.4331   -6241.7096   -1741.6652    17834.526    8.7585684 
    6570    927.03438   -6345.0892   -6241.6771   -3298.3884    17851.123    8.7871673 
    6580    921.13875   -6344.3508   -6241.5964   -4511.7112    17865.151    8.8197593 
    6590     916.6525   -6343.7214   -6241.4674   -5241.7886    17875.515    8.8543376 
    6600     927.7399   -6344.7856   -6241.2948   -5416.7874    17881.547    8.8854676 
    6610    914.84759   -6343.1138   -6241.0611   -4758.4731    17883.068    8.9131741 
    6620    932.97231   -6344.8397   -6240.7652   -4179.7635     17880.49    8.9308561 
    6630    946.36395   -6345.9714   -6240.4031   -3517.7758    17874.282    8.9390112 
    6640    963.89868    -6347.536   -6240.0116   -2962.9087    17864.927    8.9419675 
    6650    982.51972   -6349.2281   -6239.6265   -1704.5345    17852.948    8.9418002 
    6660     971.6201    -6347.674   -6239.2883   -101.30255    17839.353    8.9425676 
    6670    955.63206   -6345.5932    -6238.991    1093.2188    17825.448    8.9458479 
    6680    966.16883   -6346.5091   -6238.7315    1254.8352    17812.174    8.9551352 
    6690    955.00254   -6345.0387   -6238.5067    1870.1542    17799.825    8.9712428 
    6700    955.06029   -6344.8514   -6238.3129    2244.5084    17788.868    8.9927737 
    6710    955.48459   -6344.7364   -6238.1507    2023.3062    17779.603    9.0137715 
    6720    959.78049   -6345.0896   -6238.0246    1388.6985    17771.888    9.0247144 
    6730    983.64855   -6347.6853   -6237.9578    765.92111    17765.223     9.027247 
    6740    974.85655   -6346.7324   -6237.9857    1170.1566    17759.165    9.0366753 
    6750    964.45711   -6345.6921   -6238.1054    1230.7638    17753.956    9.0609685 
    6760     976.2805   -6347.2154   -6238.3098    537.90871    17749.636     9.092352 
    6770    965.52266    -6346.319   -6238.6135    408.80258    17745.751    9.1230596 
    6780    939.78894   -6343.8164   -6238.9816    234.81265     17742.16    9.1498593 
    6790    952.45401   -6345.6431   -6239.3954   -1114.7299    17738.612    9.1720427 
    6800    963.79133   -6347.3906   -6239.8782   -2097.6308    17734.083    9.1927345 
    6810    957.04071   -6347.1985   -6240.4391   -2202.0213    17727.766    9.2111142 
    6820    955.51564   -6347.6566   -6241.0674   -2169.0151    17719.468    9.2221456 
    6830    962.13238     -6349.07   -6241.7427   -1998.4018     17709.17    9.2202373 
    6840    965.05101   -6350.1342   -6242.4813   -1520.1578    17696.993    9.2064719 
    6850    967.44507    -6351.185   -6243.2651   -759.06142    17683.307     9.192035 
    6860    967.26703   -6351.9963   -6244.0962    214.11168    17668.696    9.1878839 
    6870    917.45356   -6347.2252   -6244.8819    2256.1797    17654.067    9.1985026 
    6880    908.53348    -6346.897   -6245.5488    2398.7121    17640.873     9.221919 
    6890    919.57461   -6348.6846   -6246.1047     994.1409    17629.327    9.2464336 
    6900    945.82847   -6352.0965   -6246.5879   -571.72834    17618.361    9.2635449 
    6910     964.5112    -6354.642   -6247.0493   -811.22765    17606.784    9.2778837 
    6920    955.73736   -6354.1099    -6247.496       426.14    17594.393    9.3001237 
    6930    949.27671   -6353.8204   -6247.9272    1933.4602    17582.092    9.3330059 
    6940    919.17303   -6350.8379   -6248.3028    3452.8494    17571.155    9.3681202 
    6950    921.39307   -6351.3975   -6248.6147    3521.7941    17562.744    9.3992128 
    6960    922.34542   -6351.7614   -6248.8724    3460.4127    17557.077    9.4260114 
    6970    901.98896   -6349.6917   -6249.0735    3333.4119    17554.173    9.4581807 
    6980    891.88402   -6348.6862   -6249.1952    2810.8565    17553.956    9.5006959 
    6990    903.35039   -6349.9957   -6249.2256     2607.565     17556.11    9.5466208 
    7000     928.3703   -6352.7528   -6249.1917    1986.9283    17560.451    9.5876748 
    7010    948.06992    -6354.897   -6249.1384    1782.6843    17566.615    9.6206309 
    7020    941.59004   -6354.1317   -6249.0959    1463.5205    17574.428    9.6400055 
    7030    949.13219   -6354.9427   -6249.0656    26.091167    17583.599    9.6441096 
    7040    975.45782   -6357.8775   -6249.0637   -1670.8046    17593.026    9.6475892 
    7050    975.41218   -6357.9452   -6249.1365   -1780.4926    17601.423    9.6711987 
    7060    938.98627   -6354.0352   -6249.2899   -196.12108     17608.68    9.7079332 
    7070    915.51259   -6351.5844   -6249.4575    993.88492    17615.928    9.7328567 
    7080    904.77107   -6350.5211   -6249.5925    1301.6839    17624.148    9.7411654 
    7090    908.51268   -6351.0053   -6249.6593    370.32261    17633.599    9.7426573 
    7100     933.9591   -6353.8434   -6249.6588   -1567.5719    17643.549    9.7463269 
    7110    942.89852   -6354.8197   -6249.6379   -2264.6719    17652.537    9.7554739 
    7120    929.59171   -6353.3235   -6249.6261   -1734.4641    17659.922    9.7646975 
    7130    904.64493   -6350.5144   -6249.5999    -847.2239    17666.061    9.7763421 
    7140    910.47925   -6351.0741   -6249.5087   -815.28441    17671.577    9.7983581 
    7150    919.31399   -6351.8741   -6249.3233   -527.99765    17676.592    9.8302195 
    7160    916.59259   -6351.3177   -6249.0704    106.26231    17681.308    9.8649617 
    7170    890.49351   -6348.0472   -6248.7113    1471.1076    17686.308    9.8988185 
    7180    866.51565   -6344.8616   -6248.2004    2469.2577    17692.644    9.9224846 
    7190    878.35278   -6345.4433   -6247.4617    2399.4881    17701.147     9.925852 
    7200    906.80397   -6347.6045   -6246.4491    1827.0684    17711.858    9.9133098 
    7210    924.46703   -6348.3718   -6245.2462    1497.7993    17724.392    9.8978979 
    7220    928.77705   -6347.5969   -6243.9904    1221.1199    17738.491    9.8848263 
    7230    928.74004   -6346.4009   -6242.7986    383.31315    17753.895    9.8746554 
    7240    952.10931   -6347.9585   -6241.7492   -1495.3732    17769.864     9.871487 
    7250    963.81533   -6348.4032   -6240.8881     -2743.52    17784.945    9.8850879 
    7260     941.0009   -6345.2085   -6240.2384   -2859.8714     17798.08    9.9201529 
    7270    926.29494   -6343.0673   -6239.7377   -2717.6232    17809.033    9.9651432 
    7280    920.30179   -6341.9682   -6239.3072   -2730.9677    17817.859    10.006247 
    7290    944.98579   -6344.3266    -6238.912   -3753.9162    17824.409      10.0395 
    7300    943.88128   -6343.8563   -6238.5649   -3767.1953    17827.945    10.061449 
    7310    935.61856   -6342.6508   -6238.2812    -3399.377    17828.356     10.07354 
    7320    951.52795   -6344.1829   -6238.0385   -3789.8884    17825.792    10.091376 
    7330    946.23387    -6343.398   -6237.8442   -3598.7771    17819.985    10.118115 
    7340    924.60456   -6340.8199   -6237.6789   -3031.5535    17811.026    10.150682 
    7350    938.09976   -6342.1523   -6237.5059   -2538.3051     17799.34    10.190475 
    7360    962.83856   -6344.7461     -6237.34   -2071.1433    17785.313    10.237894 
    7370    965.69409   -6344.9459   -6237.2213   -1340.4684    17769.351    10.280313 
    7380    988.59486   -6347.4587   -6237.1794   -1121.9475    17751.994    10.308011 
    7390    982.27049   -6346.8034   -6237.2296     65.42809     17733.56    10.320348 
    7400    957.16262   -6344.1239    -6237.351    881.69078    17714.929     10.30852 
    7410    949.72383   -6343.4592   -6237.5161     328.4868    17696.716      10.2745 
    7420    945.58928    -6343.201    -6237.719   -366.32337    17678.566    10.244655 
    7430    931.58054   -6341.8687   -6237.9495    -379.3301    17659.978      10.2414 
    7440    916.26933    -6340.387   -6238.1758   -290.99818    17640.886    10.266228 
    7450     925.8549   -6341.6595   -6238.3789    25.968241    17621.383    10.306347 
    7460    940.35544   -6343.4621    -6238.564    787.85777    17601.765    10.342176 
    7470     972.5402   -6347.2618   -6238.7735    1105.2321    17582.581    10.358013 
    7480    984.95839   -6348.9492   -6239.0756    1926.5156    17564.184    10.357336 
    7490    957.77742   -6346.3207   -6239.4792    3407.2981    17547.287    10.353642 
    7500    942.93966   -6345.1239   -6239.9376    4380.8846    17533.039    10.356991 
    7510    957.82016   -6347.2977   -6240.4515    3908.8819    17522.182     10.36957 
    7520     961.1552   -6348.2716   -6241.0533     3454.442    17514.473    10.394441 
    7530    931.35848   -6345.5958   -6241.7014    3358.6974    17509.582    10.433772 
    7540    941.37799   -6347.3828   -6242.3707    2603.6528    17507.351    10.481429 
    7550    941.23733   -6348.0379   -6243.0414    3106.3468    17507.377    10.531589 
    7560    945.03537   -6349.1396   -6243.7194    3997.5528    17510.006    10.573427 
    7570    940.62297     -6349.32   -6244.3921    4574.2327    17515.959    10.595998 
    7580    955.29401   -6351.6228   -6245.0583     3795.491    17525.649    10.601716 
    7590    956.59679   -6352.4349   -6245.7251    2626.3773    17538.554    10.602411 
    7600     941.6086   -6351.4024   -6246.3646    2422.5655    17553.857      10.6018 
    7610    942.76735   -6352.1303   -6246.9632    2013.6981    17571.317    10.601691 
    7620    931.02377   -6351.3506   -6247.4935    1130.3415    17590.607    10.605587 
    7630    917.40078   -6350.2686   -6247.9311    311.03168    17611.026    10.615276 
    7640    924.18336   -6351.3622   -6248.2682   -336.56969    17631.918    10.642217 
    7650    928.03855   -6352.0654   -6248.5413   -347.45869    17652.757    10.690509 
    7660     917.2495   -6351.0821   -6248.7616   -28.434712    17673.505    10.747923 
    7670    927.05031   -6352.3427   -6248.9288   -637.65892    17694.329    10.806866 
    7680    918.87663   -6351.5277   -6249.0256   -1948.3198    17714.713    10.867386 
    7690    913.85465   -6350.9874   -6249.0455   -2726.6047    17733.662    10.921033 
    7700    909.61396   -6350.4724   -6249.0036   -2834.7575    17750.453    10.969329 
    7710    905.21737   -6349.8963    -6248.918   -2524.2376    17764.971    11.012745 
    7720    899.20539   -6349.0926   -6248.7849   -2908.2804    17777.376     11.04284 
    7730    920.26954     -6351.26   -6248.6026   -3750.8243    17787.349      11.0563 
    7740    946.94965   -6354.0228   -6248.3892   -4710.0507    17794.178    11.066999 
    7750    944.41214    -6353.548   -6248.1974    -5016.391    17797.091    11.095484 
    7760     929.6976   -6351.7468   -6248.0376    -4505.803    17795.808    11.142075 
    7770    883.69078   -6346.4258   -6247.8487   -2990.6392    17790.772    11.189613 
    7780    876.78961   -6345.3878   -6247.5806   -1876.4271    17783.155    11.222112 
    7790    907.13243   -6348.4033   -6247.2113   -1906.8711    17773.841      11.2289 
    7800    927.96751   -6350.2977   -6246.7816   -1164.8745    17762.984    11.221876 
    7810    914.76231   -6348.3671    -6246.324   -272.33062    17751.169    11.219235 
    7820    914.24364   -6347.8288   -6245.8435   -589.78425    17739.041    11.219115 
    7830     938.7976   -6350.0717   -6245.3474   -968.21138    17726.422    11.214491 
    7840    962.14121   -6352.2047   -6244.8764   -1081.0876    17713.021    11.207479 
    7850    968.94926   -6352.5701   -6244.4823   -1156.3006    17698.743    11.209443 
    7860    947.02074    -6349.831   -6244.1894   -1314.5643    17683.508    11.234088 
    7870    928.66439   -6347.5487   -6243.9548   -906.44837    17667.267    11.278989 
    7880    933.56091   -6347.8811    -6243.741   -799.46658    17650.261    11.325375 
    7890    931.58574   -6347.4397   -6243.5199   -102.57253    17632.705    11.370072 
    7900     926.4033   -6346.6352   -6243.2935    878.35356    17615.138     11.40908 
    7910    928.54302   -6346.6349   -6243.0545    1710.7829    17598.378    11.439863 
    7920    958.43367   -6349.7447     -6242.83    1562.9588    17583.035    11.467161 
    7930    956.66699   -6349.3755   -6242.6578     1707.227    17569.085    11.496283 
    7940    929.47093   -6346.2221   -6242.5382     2297.735    17556.644     11.52243 
    7950    935.81885   -6346.8225   -6242.4305    2836.6892    17546.165    11.536195 
    7960    957.48445   -6349.1443   -6242.3354      2564.34    17538.016    11.542214 
    7970    972.36898   -6350.7662   -6242.2969    1910.5983    17531.979    11.555772 
    7980    955.07048   -6348.8625    -6242.323    2145.2872    17527.628     11.58121 
    7990    954.95721    -6348.921   -6242.3941    2435.6024    17525.059    11.614446 
    8000     968.2646   -6350.5108   -6242.4994    2190.3266    17524.465    11.658479 
    8010    948.93198   -6348.4937   -6242.6389    2111.0922    17525.698    11.719721 
    8020     937.7185   -6347.4018   -6242.7979    2033.0919    17528.665    11.784987 
    8030    924.02201    -6346.019   -6242.9429    2242.0557     17533.32    11.834762 
    8040    932.56009   -6347.0779   -6243.0495    2147.8792    17539.784    11.859852 
    8050    964.58895    -6350.746   -6243.1446     1467.646    17547.945    11.871299 
    8060    947.97333   -6349.0201   -6243.2722    1332.8505    17557.328    11.893942 
    8070    933.06888   -6347.5009   -6243.4157    961.27765    17567.737    11.936429 
    8080    936.14209   -6347.9741    -6243.546    1026.4548    17578.925    11.992276 
    8090    926.92072   -6347.0479   -6243.6485    1432.9166    17590.934    12.048476 
    8100    937.13349   -6348.2637    -6243.725    1290.5936    17604.003    12.087049 
    8110    944.99919   -6349.1956   -6243.7795    1067.1999    17618.076    12.099112 
    8120    957.76025    -6350.697   -6243.8574    119.54704    17632.902    12.097064 
    8130    944.56145   -6349.3278   -6243.9605   -191.42269    17647.805    12.102128 
    8140    932.47891   -6348.0931   -6244.0737   -159.49081    17662.476    12.126815 
    8150    929.10934   -6347.7995    -6244.156     153.2821    17676.947    12.176397 
    8160    944.30154   -6349.5571   -6244.2188    437.35099     17691.44    12.237979 
    8170    955.71845   -6350.9169   -6244.3051    400.67453    17706.167    12.288465 
    8180    958.45346   -6351.3467   -6244.4298    305.84707    17721.132    12.313463 
    8190    953.36039   -6350.9391   -6244.5903    713.56832    17736.299    12.320418 
    8200    931.89581   -6348.7203   -6244.7659    1629.4835    17752.006     12.32205 
    8210    942.54165   -6350.0783   -6244.9364    1337.3293    17768.861    12.327629 
    8220    947.03428   -6350.7356   -6245.0925    292.22807     17786.68    12.336844 
    8230    935.42112   -6349.5984   -6245.2507   -710.86206    17804.624    12.350281 
    8240    937.00512     -6349.93   -6245.4057   -1437.4385    17821.863    12.370736 
    8250    936.99562   -6350.0753    -6245.552   -1938.5094    17837.777    12.400582 
    8260    922.20802   -6348.5563   -6245.6826   -2156.2209    17851.948    12.437048 
    8270    933.99876   -6349.9701   -6245.7811   -2859.6302    17864.128    12.468799 
    8280    949.95033   -6351.8466   -6245.8782   -3081.0177    17873.812     12.49008 
    8290    915.45703   -6348.1002   -6245.9796   -2046.8357    17880.914    12.504733 
    8300    894.66772   -6345.8369   -6246.0354   -1470.1019    17886.175    12.520792 
    8310    905.60268   -6347.0279   -6246.0066    -1358.562    17890.098    12.548796 
    8320    895.06008   -6345.7416   -6245.8963   -978.29124     17892.87    12.583741 
    8330    885.90867   -6344.5202   -6245.6958   -1027.6187    17894.767    12.611342 
    8340    911.41713   -6347.0709    -6245.401   -1813.3349    17895.714    12.623598 
    8350    943.55426   -6350.3078   -6245.0529   -2515.0963    17895.104    12.619713 
    8360    936.42373   -6349.1538   -6244.6943   -2103.2336    17892.455    12.600249 
    8370    927.65225   -6347.8149   -6244.3339   -1719.9494    17888.034    12.566946 
    8380    947.15696    -6349.596   -6243.9392   -2188.5525     17882.11     12.53111 
    8390    961.73914   -6350.8248   -6243.5414   -2167.8318     17874.41    12.511615 
    8400    926.66016   -6346.5249   -6243.1545   -1318.3745    17864.992    12.513594 
    8410    907.99887   -6344.0129   -6242.7242   -735.45556    17854.514    12.522178 
    8420    926.84994   -6345.5643   -6242.1728   -1190.5303    17843.411     12.52425 
    8430    944.26813   -6346.8256   -6241.4911   -1572.1844      17831.4    12.521731 
    8440    947.88698   -6346.4402    -6240.702   -1280.1366    17818.217    12.525859 
    8450    968.54488   -6347.8259   -6239.7833   -794.01954    17804.088    12.540255 
    8460    990.54964   -6349.2413    -6238.744    -362.6766    17789.401    12.551713 
    8470    974.45412   -6346.3404   -6237.6386    699.79594    17774.583    12.552331 
[...]
   22890    967.97171   -6351.6103   -6243.6316   -1329.5852    17624.904    34.915201 
   22900    978.11358   -6352.7174   -6243.6074   -1699.9893    17623.649    34.978745 
   22910    988.08589   -6353.9035    -6243.681   -1794.0495    17620.995    35.066406 
   22920    989.40099   -6354.2611   -6243.8919   -1112.2665    17616.895    35.166405 
   22930     970.8821   -6352.5507   -6244.2473    187.51325    17611.903    35.255981 
   22940    963.32083   -6352.1965   -6244.7366    553.26526    17606.965     35.31004 
   22950    982.78526   -6355.0242   -6245.3931   -352.76935    17602.351     35.31911 
   22960    965.22015   -6353.9108    -6246.239   -309.18211    17597.519     35.30885 
   22970    947.39294   -6352.9194   -6247.2363   -198.56369    17592.397    35.307498 
   22980    950.07406   -6354.3109   -6248.3287    170.41405    17587.106    35.321651 
   22990    942.86944   -6354.6379   -6249.4594    868.98505    17581.949    35.349229 
   23000    932.07985    -6354.499   -6250.5241    1107.5568    17577.447    35.380847 
   23010    935.09387   -6355.7778   -6251.4667    834.38066    17573.797    35.418425 
   23020    922.68808   -6355.1842   -6252.2569    965.24227    17570.843    35.466301 
   23030    900.48494   -6353.3093   -6252.8588    1129.4559    17568.663    35.514228 
   23040    908.31675   -6354.6056   -6253.2815    444.30441    17567.348    35.540397 
   23050    920.30129    -6356.237   -6253.5761    -752.9855    17566.334    35.553979 
   23060    908.26675   -6355.0894   -6253.7709   -582.38759    17564.811    35.575497 
   23070     931.3248   -6357.7874   -6253.8967   -1067.1945    17562.715    35.602877 
   23080    942.64331   -6359.1386   -6253.9853   -1272.6149    17559.749    35.616026 
   23090    938.06835    -6358.716    -6254.073   -824.68477    17555.756    35.609448 
   23100    911.56925   -6355.8275   -6254.1406     109.9975    17551.089    35.590807 
   23110    920.45988    -6356.843   -6254.1644    18.870524    17546.394    35.570184 
   23120      955.886   -6360.7959   -6254.1654   -1095.9082    17541.587    35.563217 
   23130    957.20954   -6360.9779   -6254.1997   -939.28167    17535.928     35.57969 
   23140    934.98072   -6358.5723   -6254.2738   -423.23074    17529.445    35.603313 
   23150    914.55434   -6356.3635   -6254.3436    -21.50426    17522.553    35.613931 
   23160    914.97386   -6356.4364   -6254.3696    60.930447    17515.558    35.611624 
   23170    897.80607   -6354.4783   -6254.3267    495.94038    17508.571    35.614424 
   23180    884.95746   -6352.9133   -6254.1949    763.26657    17501.897    35.631992 
   23190    908.91562   -6355.3532   -6253.9622    509.41111    17495.739    35.658991 
   23200    921.16068   -6356.4019    -6253.645    851.22254    17489.982    35.679652 
   23210    912.06917   -6355.0215   -6253.2788    2053.4994    17484.944    35.686739 
   23220    914.42483   -6354.8634    -6252.858     2624.795    17481.495    35.690111 
   23230    932.76544   -6356.4285   -6252.3771    2209.3496    17480.102    35.696697 
   23240    938.62847    -6356.563   -6251.8576    1895.8977    17480.518    35.721831 
   23250    940.12789   -6356.2001   -6251.3275    2163.9934    17482.553    35.780009 
   23260    944.58846   -6356.1658   -6250.7955    1811.5541     17486.33    35.864609 
   23270    947.80843   -6356.0046   -6250.2751    1580.0451    17491.674    35.941378 
   23280    957.18928   -6356.5514   -6249.7755     1344.559    17498.388    35.979668 
   23290    949.58498   -6355.2353   -6249.3076    1235.5112    17506.317    35.983899 
   23300    951.94086   -6355.0614    -6248.871    846.36272    17515.349    35.983522 
   23310     951.6028   -6354.6216   -6248.4689    931.51049    17525.239    36.001987 
   23320    955.76406   -6354.7259    -6248.109    1004.2534    17536.038    36.029877 
   23330    978.42009   -6356.9457   -6247.8014    92.637135    17547.714    36.068831 
   23340    992.69475   -6358.3074   -6247.5708   -633.99768    17559.622    36.132469 
   23350     976.7905   -6356.4279   -6247.4654   -186.60867    17571.226    36.212102 
   23360    932.89505    -6351.514   -6247.4481    1486.2224    17582.926    36.285809 
   23370    926.99574   -6350.8507    -6247.443    2084.4142    17595.938    36.345533 
   23380    953.66738   -6353.8101   -6247.4271    886.28544     17610.73    36.385085 
   23390    955.85837    -6354.043   -6247.4156   -369.35069     17626.46    36.395331 
   23400    951.96724   -6353.6431   -6247.4498   -711.99588    17642.121    36.377813 
   23410    946.39839   -6353.0885   -6247.5164   -182.05858    17657.457    36.352915 
   23420     962.1742   -6354.9627   -6247.6307   -65.717105    17672.785    36.350181 
   23430    962.16564   -6355.1477   -6247.8167   -71.060253    17688.229    36.394028 
   23440    937.43722   -6352.6601   -6248.0876   -86.555591    17703.792    36.483058 
   23450    932.15741     -6352.41   -6248.4264   -747.90553    17719.417     36.59528 
   23460     938.4322   -6353.5257   -6248.8421    -1891.652    17734.559    36.727128 
   23470    935.23426   -6353.7031   -6249.3763   -2382.7227    17748.328    36.866031 
   23480    916.23212   -6352.2334   -6250.0263   -2530.2143    17760.262    36.986847 
   23490    913.65212   -6352.6762   -6250.7569   -2934.1112     17770.17    37.054485 
   23500     936.2209   -6356.0118    -6251.575   -3519.8008    17777.672    37.058876 
   23510    931.67672   -6356.4147   -6252.4848   -3415.9242    17782.316    37.033535 
   23520    925.15287   -6356.6326   -6253.4304   -2919.7821    17784.142    36.994163 
   23530    930.81407   -6358.2018   -6254.3681   -2922.0364    17783.461    36.942268 
   23540    920.18766   -6357.9008   -6255.2525   -3072.1157    17780.276    36.895217 
   23550    901.90854     -6356.65   -6256.0407    -3145.126    17774.465    36.863551 
   23560    874.79517   -6354.2565   -6256.6718   -3298.6603    17765.911    36.839862 
   23570    857.72799   -6352.7889    -6257.108   -2976.3876    17754.519     36.82058 
   23580    874.50024   -6354.9143   -6257.3625   -3561.5831     17740.41    36.818089 
   23590    905.39126   -6358.4988   -6257.5011   -4657.4721    17723.085    36.837868 
   23600     916.0232   -6359.7608   -6257.5771   -4704.2334    17701.727    36.863505 
   23610    921.56207   -6360.4153   -6257.6137   -3521.6678    17676.292    36.875739 
   23620    918.78521   -6360.0863   -6257.5944   -1959.9741    17647.687    36.860261 
   23630     922.8804   -6360.4742   -6257.5255   -1484.8174    17617.095     36.81718 
   23640    924.79969   -6360.5946   -6257.4318   -1396.4419    17584.969    36.774295 
   23650    908.05504   -6358.5802   -6257.2853   -115.68279    17551.544    36.752963 
   23660    910.38245   -6358.6126   -6257.0581     1271.865    17517.791    36.748194 
   23670    915.88158   -6358.9106   -6256.7426     2003.412    17484.825    36.748365 
   23680    927.95057   -6359.8905   -6256.3762     1997.962    17453.262    36.742804 
   23690    925.60251   -6359.2232   -6255.9709    2378.6567    17423.215    36.727145 
   23700     924.2087   -6358.6289    -6255.532    3502.8806    17395.027    36.706195 
   23710    920.21095   -6357.6893   -6255.0384    5458.7921    17369.635    36.680602 
   23720    914.68687   -6356.5192   -6254.4845    6974.2995    17348.532    36.665263 
   23730    924.50497   -6357.0285   -6253.8985     6480.517    17332.814    36.671793 
   23740    928.47294   -6356.8712   -6253.2987    5727.1366    17322.253    36.691687 
   23750    930.26004     -6356.47   -6252.6981    5378.9244    17316.293    36.707774 
   23760    956.18715   -6358.7694   -6252.1053    4601.2889     17314.59     36.69559 
   23770    981.99342   -6361.1012   -6251.5583    3152.0902    17316.533    36.643527 
   23780    983.29392   -6360.8049    -6251.117    2170.2904    17321.076    36.556796 
   23790    954.08335   -6357.2275   -6250.7981    2313.2577    17327.502     36.44741 
   23800    964.20248   -6358.1182     -6250.56    1604.8015    17335.768    36.340193 
   23810    985.84094   -6360.3606   -6250.3886    1099.1991    17345.423    36.262927 
   23820    975.25414   -6359.1173   -6250.3262    1447.2543    17356.112     36.22942 
   23830     965.0843   -6358.0183   -6250.3616    1853.2538    17368.059    36.247182 
   23840    948.47369   -6356.2505   -6250.4468    2033.3992    17381.595      36.3041 
   23850    939.38545   -6355.3329    -6250.543     952.4647    17396.788     36.36874 
   23860    962.15062   -6357.9711   -6250.6418   -657.18178     17412.84    36.424255 
   23870    956.82809    -6357.518   -6250.7824   -1017.7351    17428.568    36.476888 
   23880    918.81283   -6353.4428   -6250.9479   -367.88831    17443.657    36.523628 
   23890     939.8981   -6355.9598   -6251.1127   -588.60346    17458.458    36.549022 
   23900    942.81986   -6356.4467   -6251.2737   -27.571611    17472.965    36.552913 
   23910    941.16208   -6356.4592   -6251.4711    173.02051    17487.511    36.554316 
   23920    925.79932   -6354.9495   -6251.6752    217.81696    17502.273    36.575912 
   23930    909.56259   -6353.3054   -6251.8423   -7.1135355    17517.281    36.614941 
   23940    942.68204   -6357.1373   -6251.9797   -1826.3924    17532.224    36.659731 
   23950    944.38469   -6357.4838   -6252.1362   -3023.5325    17545.775    36.703164 
   23960    908.95878   -6353.7429   -6252.3472   -2783.6669    17556.983    36.738384 
   23970    908.33885   -6353.9124   -6252.5858   -2746.0908    17565.909    36.756515 
   23980    928.81935   -6356.4645   -6252.8533   -3185.7304    17572.562    36.761724 
   23990    929.73318   -6356.8968   -6253.1836   -3037.5238    17576.659    36.775156 
   24000    938.63925   -6358.3273   -6253.6206   -2894.6512    17578.242    36.815167 
   24010    939.56646   -6359.0079   -6254.1979   -2575.8086    17577.448    36.868967 
   24020     927.0093   -6358.3187   -6254.9094   -2267.5744     17574.52    36.909579 
   24030    909.36305    -6357.143   -6255.7022   -2077.0369    17569.715     36.93157 
   24040    898.69985   -6356.7532   -6256.5019    -1953.769    17563.171    36.946415 
   24050    888.32304   -6356.3389   -6257.2451   -1334.3024    17555.046    36.962663 
   24060     879.5889   -6355.9985   -6257.8791   -1173.9013    17545.793     36.97546 
   24070    903.28311   -6359.1637   -6258.4011   -2483.5044    17535.448    36.994062 
   24080    900.53575   -6359.3021    -6258.846   -2655.1789    17523.155    37.031022 
   24090    882.78351   -6357.6726   -6259.1968   -2094.9146    17508.736    37.083477 
   24100    890.05872   -6358.7261   -6259.4387   -1990.2532    17492.567    37.118504 
   24110    900.02781   -6359.9742   -6259.5747     -2138.12     17474.76    37.121874 
   24120    914.33376   -6361.6319   -6259.6366   -1732.2543     17455.26    37.116304 
   24130    915.62126   -6361.7729    -6259.634   -353.63797    17434.453    37.115742 
   24140    927.61348   -6363.0563   -6259.5796    1141.4426    17413.409    37.119675 
   24150    933.74222   -6363.6477   -6259.4874    2240.8954    17393.319    37.124909 
   24160    925.15557   -6362.5812   -6259.3787    2601.1443     17375.03    37.129667 
   24170    920.56257   -6361.9337   -6259.2436    2605.9898    17358.862    37.130557 
   24180    928.05419    -6362.599   -6259.0731    2398.9045    17344.821    37.122271 
   24190    914.00629   -6360.8324   -6258.8736    2412.0531    17332.756     37.09891 
   24200    890.56422   -6357.9596   -6258.6158     2560.008    17322.681    37.063857 
   24210    902.27725   -6358.9128   -6258.2624    2353.8998    17314.662    37.029553 
   24220    909.13078   -6359.2243   -6257.8094    1825.1536     17308.51    37.012926 
   24230    917.14142   -6359.5819   -6257.2733    1907.6375    17303.888    37.015726 
   24240    933.54947   -6360.8116   -6256.6727    2383.5089    17300.832    37.045592 
   24250    919.60339    -6358.608   -6256.0248     3107.192    17299.724    37.101469 
   24260     943.7104   -6360.6319   -6255.3595    2856.0909     17301.04    37.155635 
   24270    955.69502   -6361.3034   -6254.6941     2294.751    17304.643     37.18817 
   24280    950.11931   -6360.0734   -6254.0862    1945.9668    17310.105    37.204969 
   24290    944.31351   -6358.8766    -6253.537    2019.6174    17317.149    37.232864 
   24300    936.75492   -6357.5214    -6253.025    2244.5016    17325.847    37.282006 
   24310    946.75348    -6358.158   -6252.5463    1341.0689    17336.279    37.335155 
   24320    940.88747   -6357.0532   -6252.0958    249.48344    17347.801    37.361643 
   24330    941.48654   -6356.7106   -6251.6864   -340.49816    17359.581    37.347383 
   24340    930.01056   -6355.0425   -6251.2985   -121.75428    17371.176    37.316442 
   24350    921.75758   -6353.7537   -6250.9302    335.14615      17382.7     37.30255 
   24360     919.4074   -6353.1177   -6250.5564    1297.5602    17394.578    37.330844 
   24370    933.98546   -6354.3586   -6250.1712    1206.4068    17407.452    37.396119 
   24380    954.49166   -6356.2706   -6249.7956    557.13462    17421.301    37.464552 
   24390    944.69118   -6354.8484   -6249.4667    544.64904    17435.694    37.523191 
   24400    937.96455   -6353.8159   -6249.1846    190.92229    17450.543    37.577841 
   24410    945.19324   -6354.3593   -6248.9216   -402.68124     17465.59    37.635638 
   24420    946.74182   -6354.2791   -6248.6686   -957.24057     17480.36     37.69495 
   24430    959.95096   -6355.5384   -6248.4544   -1413.1519    17494.392    37.751495 
   24440    946.46687   -6353.8603   -6248.2805   -1884.7631    17507.293    37.800593 
   24450    951.03238   -6354.2379   -6248.1488   -2406.9392     17518.67    37.822926 
   24460    938.58806   -6352.7431   -6248.0422   -1927.2978    17528.185    37.809094 
   24470    922.33852   -6350.8353    -6247.947   -1478.1529    17536.141    37.768324 
   24480    934.06338   -6352.0366   -6247.8405   -2076.4477    17542.807    37.723373 
   24490    920.46111   -6350.4024   -6247.7235   -2013.9917    17547.823     37.69847 
   24500    892.71743   -6347.1578   -6247.5738   -1168.1464    17551.275    37.686276 
   24510    915.55079     -6349.49   -6247.3589   -1482.2085    17553.685    37.679179 
   24520    941.44618   -6352.0993   -6247.0795    -2073.532     17554.86    37.687308 
   24530    942.99355   -6352.0003   -6246.8079   -1519.9737    17554.399    37.704135 
   24540    933.28367   -6350.6632    -6246.554    45.917796    17552.755    37.714426 
   24550    928.62622   -6349.8826    -6246.293    1210.9695    17551.109    37.718299 
   24560    938.32744   -6350.6915   -6246.0197     1856.981     17550.42    37.720205 
   24570    956.32179   -6352.4316   -6245.7525    2257.7323    17551.248    37.719455 
   24580    939.73085   -6350.3513    -6245.523     2912.949    17553.972    37.722697 
   24590    911.91738   -6347.0319   -6245.3061    3148.1594    17559.094    37.732717 
   24600    920.34491   -6347.7129   -6245.0471    2634.4041    17566.796    37.760729 
   24610    943.51076   -6349.9994   -6244.7494    1982.1735    17576.711    37.808037 
   24620    949.30488   -6350.3275   -6244.4312    1406.6684    17588.329     37.86537 
   24630    973.56554   -6352.7169   -6244.1142    740.98441    17601.172    37.926609 
   24640    992.45034   -6354.5366   -6243.8273     325.4806    17614.738    37.984688 
   24650    986.40291   -6353.6594   -6243.6247    99.193738    17628.661    38.043662 
   24660    977.66995   -6352.5869   -6243.5263    76.163371    17642.778    38.087465 
   24670    977.97116    -6352.613   -6243.5188   -1114.1656    17656.944    38.097685 
   24680    966.37717   -6351.4039    -6243.603   -2028.4725     17670.27    38.089607 
   24690    940.92697     -6348.74   -6243.7782   -1608.1446    17682.058    38.089147 
   24700    930.98408   -6347.8926   -6244.0399    -851.0632    17692.571    38.096493 
   24710    935.97991    -6348.804    -6244.394   -629.21063    17702.384    38.104639 
   24720    954.71938   -6351.3836   -6244.8832   -1454.1183    17711.622     38.11542 
   24730    952.53135   -6351.7955   -6245.5392   -2298.7171    17719.669    38.133482 
   24740    949.67612    -6352.291   -6246.3532   -2417.3474    17725.875    38.157131 
   24750    956.81731   -6354.0417   -6247.3073   -1993.0161    17730.108    38.175304 
   24760    938.68672   -6353.0375   -6248.3255   -1181.2934    17732.712    38.184939 
   24770    915.10525   -6351.3915   -6249.3102   -1084.2939    17734.274    38.191843 
   24780    903.87247   -6351.0026   -6250.1743    -1754.324    17734.874    38.207018 
   24790    910.89942   -6352.5155   -6250.9033   -2783.1298    17733.974    38.232097 
   24800    911.25635    -6353.179    -6251.527   -3352.6024    17730.752    38.256559 
   24810    902.72511   -6352.7553   -6252.0549   -2808.6007    17724.778    38.260859 
   24820    905.10003   -6353.4451   -6252.4798    -2333.224    17716.428    38.249472 
   24830    916.31749    -6355.032   -6252.8154    -2718.169    17706.027    38.238559 
   24840    918.36113   -6355.5317   -6253.0872   -2840.2384    17693.363     38.23152 
   24850     920.6636   -6356.0314     -6253.33   -2255.1619     17678.36    38.222595 
   24860     906.1537   -6354.6061   -6253.5233   -1014.3098    17661.517    38.217663 
   24870    919.44327   -6356.2237   -6253.6584   -837.97889    17643.745     38.21575 
   24880    934.66879   -6358.0346   -6253.7709   -1205.9864    17625.245    38.192394 
   24890    912.05588   -6355.5983   -6253.8571    -496.8844    17605.849    38.127691 
   24900    910.06322   -6355.4016   -6253.8827     203.7056    17586.059    38.021261 
   24910    922.91263   -6356.7917   -6253.8394    751.29469    17566.462    37.905611 
   24920    931.16532   -6357.6171   -6253.7442    1351.1028    17547.528    37.825642 
   24930    940.06771   -6358.4857   -6253.6197    1725.5921    17529.753    37.804879 
   24940    968.10608   -6361.5127    -6253.519     1819.449    17513.421    37.837041 
   24950    947.00217   -6359.0922   -6253.4527    2803.5556     17498.72    37.901748 
   24960    951.95254   -6359.6281   -6253.4363     3200.863    17486.307     37.96584 
   24970    951.24077   -6359.5701   -6253.4577     3036.301    17476.514    37.999189 
   24980      947.145   -6359.1827   -6253.5272    2575.9799    17469.215    38.001188 
   24990    943.61706   -6358.8933   -6253.6314    2546.3969     17464.08    37.985082 
   25000    925.15919   -6356.9418   -6253.7389    3194.5958    17461.093    37.959645 
Loop time of 13454 on 16 procs for 20000 steps with 864 atoms

Performance: 0.128 ns/day, 186.861 hours/ns, 1.487 timesteps/s
94.5% CPU use with 16 MPI tasks x 1 OpenMP threads

MPI task timing breakdown:
Section |  min time  |  avg time  |  max time  |%varavg| %total
---------------------------------------------------------------
Pair    | 7096.9     | 10548      | 12846      |1714.1 | 78.40
Bond    | 0.0016623  | 0.0044479  | 0.012649   |   4.5 |  0.00
Neigh   | 0.25447    | 0.30523    | 0.36273    |   5.9 |  0.00
Comm    | 469.87     | 2005.5     | 5883.6     |3122.3 | 14.91
Output  | 1.1714     | 1.1977     | 1.5843     |   9.1 |  0.01
Modify  | 9.5588     | 899.18     | 2129.8     |2656.9 |  6.68
Other   |            | 0.08611    |            |       |  0.00

Nlocal:        54.0000 ave          71 max          47 min
Histogram: 4 3 3 1 3 0 0 1 0 1
Nghost:        529.438 ave         559 max         500 min
Histogram: 3 0 1 3 0 2 2 3 1 1
Neighs:         0.00000 ave           0 max           0 min
Histogram: 16 0 0 0 0 0 0 0 0 0
FullNghs:      2702.75 ave        3899 max        2123 min
Histogram: 4 4 0 3 2 0 1 0 1 1

Total # of neighbors = 43244
Ave neighs/atom = 50.050926
Ave special neighs/atom = 0.0000000
Neighbor list builds = 2000
Dangerous builds = 2000
unfix   3
                
Total wall time: 4:38:56
