LAMMPS (29 Sep 2021 - Update 3)
OMP_NUM_THREADS environment is not set. Defaulting to 1 thread. (src/comm.cpp:98)
  using 1 OpenMP thread(s) per MPI task
Reading data file ...
  orthogonal box = (0.0000000 0.0000000 0.0000000) to (15.857269 15.758596 73.856324)
  2 by 1 by 8 MPI processor grid
  reading atoms ...
  864 atoms
Finding 1-2 1-3 1-4 neighbors ...
  special bond factors lj:    0        0        0       
  special bond factors coul:  0        0        0       
     0 = max # of 1-2 neighbors
     0 = max # of 1-3 neighbors
     0 = max # of 1-4 neighbors
     1 = max # of special neighbors
  special bonds CPU = 0.001 seconds
  read_data CPU = 0.009 seconds
Neighbor list info ...
  update every 1 steps, delay 10 steps, check yes
  max neighbors/atom: 2000, page size: 100000
  master list distance cutoff = 6.22
  ghost atom cutoff = 6.22
  binsize = 3.11, bins = 6 6 24
  1 neighbor lists, perpetual/occasional/extra = 1 0 0
  (1) pair quip, perpetual
      attributes: full, newton on
      pair build: full/bin
      stencil: full/bin/3d
      bin: standard
Setting up Verlet run ...
  Unit style    : metal
  Current step  : 0
  Time step     : 0.001
Per MPI rank memory allocation (min/avg/max) = 8.896 | 8.907 | 8.915 Mbytes
Step Temp PotEng TotEng Press Volume c_msd[4] 
       0            0   -6680.0933   -6680.0933   -8281.1165    18455.831            0 
      10    70.089017   -6687.9205    -6680.102   -9637.9304    18455.831 0.00053514082 
      20    180.09083   -6700.2003   -6680.1109   -11326.743    18455.831 0.0066144209 
      30    218.60542   -6704.4933   -6680.1075   -10699.378    18455.831  0.022432956 
      40    219.14865   -6704.5494    -6680.103   -8951.3193    18455.831  0.042690684 
      50    240.47609   -6706.9311   -6680.1056   -8003.5149    18455.831  0.059191698 
      60    253.66901   -6708.4039   -6680.1068    -7626.627    18455.831   0.07070925 
      70     242.9182   -6707.2018   -6680.1039   -7466.6829    18455.831  0.079364222 
      80    245.92472    -6707.537   -6680.1038   -7609.4954    18455.831  0.086633288 
      90    257.49674   -6708.8305   -6680.1063   -7851.5904    18455.831  0.095173812 
     100    252.46946   -6708.2676   -6680.1043   -7551.0395    18455.831   0.10676573 
     110    248.46405   -6707.8212   -6680.1047   -7097.6705    18455.831   0.12025968 
     120    250.68872   -6708.0687    -6680.104   -6824.8497    18455.831   0.13340609 
     130      258.818   -6708.9777   -6680.1062   -6596.3887    18455.831   0.14573975 
     140    253.60976   -6708.3953   -6680.1047   -6185.2051    18455.831   0.15889724 
     150    247.40375   -6707.7026   -6680.1043   -5947.5032    18455.831   0.17318983 
     160    248.95468   -6707.8762   -6680.1049   -5851.7986    18455.831   0.18766652 
     170    251.06346   -6708.1121   -6680.1056   -5590.4969    18455.831   0.20144657 
     180    246.23782    -6707.572   -6680.1038   -5247.2261    18455.831   0.21382042 
     190    251.48989   -6708.1586   -6680.1045   -5416.1608    18455.831   0.22371169 
     200    260.44308   -6709.1586   -6680.1058   -5793.9896    18455.831   0.23141162 
     210    257.82494   -6708.8658    -6680.105   -6133.6533    18455.831   0.23844771 
     220    250.73963   -6708.0747   -6680.1043   -6257.2025    18455.831   0.24564622 
     230    248.07271   -6707.7773   -6680.1044   -6243.0592    18455.831   0.25309034 
     240    248.93862   -6707.8742   -6680.1047   -6226.9294    18455.831   0.26091643 
     250    248.99388   -6707.8804   -6680.1047   -6334.5414    18455.831   0.26913526 
     260    251.27669   -6708.1344   -6680.1041   -6551.8246    18455.831   0.27705303 
     270    260.34527   -6709.1477   -6680.1058        -6764    18455.831   0.28421607 
     280    260.83001   -6709.2011   -6680.1051   -6639.8092    18455.831   0.29163604 
     290    256.24266   -6708.6893    -6680.105   -6449.9322    18455.831   0.29974682 
     300    250.69638     -6708.07   -6680.1044   -6471.1016    18455.831   0.30849754 
     310    250.05901    -6707.999   -6680.1046   -6562.0942    18455.831   0.31777754 
     320    252.23509   -6708.2423   -6680.1051   -6693.6464    18455.831   0.32755563 
     330    250.81469   -6708.0833   -6680.1046   -6713.8004    18455.831   0.33779883 
     340    250.65515   -6708.0657   -6680.1047     -6614.52    18455.831   0.34801692 
     350    252.94275   -6708.3202   -6680.1041   -6588.7327    18455.831   0.35730468 
     360    261.50627   -6709.2774    -6680.106   -6797.9362    18455.831   0.36504658 
     370    261.10007   -6709.2316   -6680.1055   -6831.7443    18455.831   0.37190178 
     380    253.99916   -6708.4387   -6680.1047   -6726.1215    18455.831   0.37827271 
     390    253.05009   -6708.3325   -6680.1044    -6835.806    18455.831   0.38397661 
     400    258.03703   -6708.8906   -6680.1062   -6768.7818    18455.831   0.38955387 
     410      252.036   -6708.2195   -6680.1045   -6292.4532    18455.831   0.39652014 
     420    250.52201   -6708.0507   -6680.1046   -5826.2725    18455.831   0.40500255 
     430    256.29495   -6708.6954   -6680.1053    -5546.315    18455.831    0.4145153 
     440    262.43605   -6709.3808   -6680.1057   -5439.0868    18455.831   0.42473971 
     450    264.26046   -6709.5844   -6680.1058   -5272.9671    18455.831   0.43527985 
     460    262.52327   -6709.3894   -6680.1046   -5195.9426    18455.831   0.44476232 
     470    267.68384   -6709.9661   -6680.1056   -5304.7962    18455.831   0.45177569 
     480    270.55653   -6710.2863   -6680.1053   -5291.2639    18455.831   0.45687774 
     490    270.72724   -6710.3054   -6680.1053   -5218.7322    18455.831   0.46120142 
     500    269.05227   -6710.1187   -6680.1055   -5175.8745    18455.831   0.46642946 
     510    263.94553   -6709.5489   -6680.1053   -5239.9274    18455.831   0.47407361 
     520    257.63711   -6708.8446   -6680.1048   -5291.7388    18455.831   0.48412853 
     530    257.06548   -6708.7811   -6680.1051   -5321.5334    18455.831   0.49506416 
     540    260.38526   -6709.1518   -6680.1055   -5376.0867    18455.831   0.50501047 
     550    260.91759   -6709.2118    -6680.106    -5479.615    18455.831   0.51322197 
     560    255.01677   -6708.5518   -6680.1043   -5675.0057    18455.831   0.52041437 
     570     259.1908   -6709.0183   -6680.1051   -6233.3417    18455.831    0.5272333 
     580    265.73933   -6709.7494   -6680.1058   -6810.0612    18455.831   0.53425593 
     590    267.07214   -6709.8973    -6680.105   -7271.0617    18455.831   0.54173358 
     600    270.59769   -6710.2906    -6680.105   -7669.4363    18455.831   0.54966243 
     610    275.51295   -6710.8394   -6680.1055   -7859.4286    18455.831   0.55825095 
     620    275.26386   -6710.8118   -6680.1057   -7564.3126    18455.831   0.56786247 
     630    267.62803    -6709.959   -6680.1047   -6980.9593    18455.831   0.57832835 
     640    265.09163   -6709.6761   -6680.1047   -6568.2152    18455.831   0.58820723 
     650    267.67247   -6709.9653    -6680.106    -6347.284    18455.831   0.59641333 
     660    264.01415   -6709.5562    -6680.105   -5916.0469    18455.831   0.60309646 
     670    263.52965    -6709.502   -6680.1049   -5671.0684    18455.831   0.60844331 
     680    269.00124    -6710.113   -6680.1055   -5692.2827    18455.831    0.6132683 
     690    271.45591    -6710.387   -6680.1057   -5574.8525    18455.831   0.61933075 
     700     270.0884   -6710.2336   -6680.1048   -5412.3704    18455.831   0.62727776 
     710    274.16504    -6710.689   -6680.1055   -5445.9009    18455.831   0.63604213 
     720    276.77226   -6710.9801   -6680.1057   -5459.4182    18455.831   0.64454539 
     730    275.88502   -6710.8806   -6680.1052    -5417.932    18455.831   0.65171241 
     740    275.85971   -6710.8783   -6680.1057   -5536.9233    18455.831   0.65662341 
     750    272.97993   -6710.5569   -6680.1056   -5708.1328    18455.831    0.6598394 
     760    268.28422    -6710.033   -6680.1055   -5761.8441    18455.831   0.66298993 
     770    264.14144   -6709.5705   -6680.1051   -5775.8492    18455.831   0.66717813 
     780    263.51726    -6709.501   -6680.1053   -5700.2554    18455.831   0.67265545 
     790    266.55703   -6709.8409    -6680.106    -5605.591    18455.831   0.67864068 
     800    265.59911   -6709.7343   -6680.1063   -5512.5062    18455.831   0.68325498 
     810    257.26872   -6708.8037    -6680.105    -5609.846    18455.831   0.68551207 
     820    257.02246   -6708.7759   -6680.1047   -5957.2323    18455.831   0.68532325 
     830    268.49996   -6710.0576    -6680.106   -6395.3276    18455.831   0.68384718 
     840      275.603   -6710.8497   -6680.1057   -6790.5333    18455.831   0.68323699 
     850    277.81756   -6711.0961   -6680.1052   -7039.0507    18455.831   0.68429619 
     860    281.61629     -6711.52   -6680.1053    -7112.387    18455.831   0.68675849 
     870    285.63694   -6711.9688   -6680.1055   -6936.0551    18455.831    0.6904508 
     880    286.29079   -6712.0419   -6680.1057   -6480.6542    18455.831   0.69538495 
     890    281.96956   -6711.5596   -6680.1055   -6039.8274    18455.831   0.70113257 
     900    274.65893   -6710.7442   -6680.1055     -5564.23    18455.831   0.70667182 
     910    267.20366   -6709.9114   -6680.1045   -5257.3591    18455.831   0.71136984 
     920     269.3838   -6710.1555   -6680.1053    -5367.122    18455.831   0.71512054 
     930    273.08823   -6710.5689   -6680.1055   -5720.7294    18455.831   0.71853359 
     940    275.14424   -6710.7982   -6680.1055   -5917.6904    18455.831   0.72236347 
     950    276.67291   -6710.9689   -6680.1056   -5610.0935    18455.831   0.72713733 
     960    276.62748   -6710.9635   -6680.1053   -5046.3658    18455.831   0.73337224 
     970     278.3434   -6711.1556   -6680.1059   -4610.3497    18455.831   0.74121898 
     980    276.50421   -6710.9503   -6680.1058   -4305.2609    18455.831   0.75038076 
     990    274.46428   -6710.7216   -6680.1047   -4327.9119    18455.831   0.75935205 
    1000    282.87647   -6711.6614   -6680.1061   -4696.6429    18455.831   0.76641954 
    1010    286.63377   -6712.0812   -6680.1068   -4990.2699    18455.831   0.77271728 
    1020    279.06324   -6711.2352   -6680.1053   -4771.2676    18455.831   0.78024384 
    1030    275.82234   -6710.8738   -6680.1054    -4403.339    18455.831   0.78871428 
    1040    278.66942   -6711.1919   -6680.1059   -3941.2604    18455.831   0.79675694 
    1050    279.04998   -6711.2352   -6680.1068   -3356.1301    18455.831   0.80429238 
    1060    270.39607   -6710.2685   -6680.1054   -2836.7873    18455.831   0.81167046 
    1070    268.92869   -6710.1046   -6680.1052   -2775.6081    18455.831   0.81774479 
    1080    276.86697   -6710.9921   -6680.1072   -2982.0197    18455.831   0.82183502 
    1090    273.51021   -6710.6167   -6680.1062   -3002.8881    18455.831   0.82504043 
    1100    268.10286   -6710.0129   -6680.1056    -3041.916    18455.831   0.82859974 
    1110    268.86345   -6710.0983   -6680.1061   -3274.5241    18455.831   0.83307382 
    1120    271.12867   -6710.3511   -6680.1063   -3502.0504    18455.831   0.83788345 
    1130    271.41072   -6710.3825   -6680.1063   -3567.0764    18455.831   0.84210043 
    1140    271.86949   -6710.4327   -6680.1053   -3657.0206    18455.831   0.84510588 
    1150    281.86599   -6711.5491   -6680.1065   -4076.7437    18455.831    0.8468347 
    1160    288.73127   -6712.3154    -6680.107   -4317.2032    18455.831    0.8485126 
    1170    284.72713   -6711.8682   -6680.1065   -4221.6867    18455.831   0.85124425 
    1180    277.76624   -6711.0907   -6680.1055   -3786.2546    18455.831   0.85522238 
    1190    278.42764   -6711.1658   -6680.1068   -3453.5254    18455.831   0.86063272 
    1200    274.57485   -6710.7358   -6680.1066   -3135.4804    18455.831   0.86799772 
    1210    268.17301   -6710.0207   -6680.1056   -3061.7485    18455.831   0.87596914 
    1220    269.73514   -6710.1951   -6680.1058   -3498.6687    18455.831   0.88197829 
    1230    275.57277   -6710.8475    -6680.107   -3998.6686    18455.831   0.88464671 
    1240    273.28864   -6710.5919   -6680.1062   -4275.4959    18455.831   0.88485118 
    1250    269.21341   -6710.1371    -6680.106   -4301.1389    18455.831   0.88413656 
    1260    268.47841   -6710.0549   -6680.1057   -4311.1873    18455.831   0.88296339 
    1270    272.54156   -6710.5085   -6680.1061   -4356.8217    18455.831   0.88172746 
    1280    277.77621   -6711.0926   -6680.1063   -4588.2508    18455.831   0.88180594 
    1290    280.19269   -6711.3629    -6680.107   -4852.3632    18455.831   0.88389526 
    1300    274.38994   -6710.7142   -6680.1056   -4801.0391    18455.831   0.88737003 
    1310    272.68687   -6710.5248   -6680.1062   -4600.8128    18455.831   0.89133871 
    1320    273.33879   -6710.5972   -6680.1059   -4506.2257    18455.831   0.89528436 
    1330    275.86937     -6710.88   -6680.1064   -4590.7459    18455.831   0.89889495 
    1340    276.57557   -6710.9584    -6680.106   -4592.8619    18455.831   0.90245999 
    1350    276.61512   -6710.9634   -6680.1066   -4506.7758    18455.831   0.90646299 
    1360    272.26073   -6710.4771    -6680.106   -4467.2196    18455.831   0.91136845 
    1370    268.73878   -6710.0839   -6680.1057   -4589.1112    18455.831   0.91701889 
    1380    269.83102   -6710.2061    -6680.106   -4803.1401    18455.831   0.92344131 
    1390    271.01809   -6710.3391   -6680.1066   -4995.7936    18455.831   0.93117145 
    1400    266.53417   -6709.8383   -6680.1061   -4887.7324    18455.831   0.93925395 
    1410    264.34979   -6709.5941   -6680.1054   -4661.6641    18455.831   0.94440069 
    1420    271.24246   -6710.3639   -6680.1064   -4782.1646    18455.831   0.94464645 
    1430    278.14891   -6711.1341   -6680.1062   -5345.1098    18455.831   0.94130273 
    1440    284.26073    -6711.816   -6680.1063   -5956.3496    18455.831    0.9366539 
    1450    286.06102   -6712.0176    -6680.107   -6473.9841    18455.831   0.93338269 
    1460    278.13817   -6711.1322   -6680.1055    -6637.014    18455.831   0.93336514 
    1470    274.95588   -6710.7774   -6680.1057   -6848.7234    18455.831   0.93597431 
    1480    275.34081   -6710.8209   -6680.1062   -7017.9963    18455.831   0.93943367 
    1490    271.96867   -6710.4442   -6680.1057   -6827.7136    18455.831   0.94245071 
    1500    271.43894   -6710.3851   -6680.1057   -6399.8258    18455.831   0.94456699 
    1510    273.11981   -6710.5738   -6680.1069   -5919.9683    18455.831   0.94612167 
    1520    266.58025   -6709.8431   -6680.1057   -5429.0631    18455.831   0.94681802 
    1530    264.24493   -6709.5825   -6680.1056   -5386.7007    18455.831   0.94511663 
    1540    268.14703   -6710.0187   -6680.1065   -5636.8718    18455.831   0.94138542 
    1550    270.20911    -6710.248   -6680.1058   -5845.7424    18455.831   0.93815309 
    1560    276.27553   -6710.9252   -6680.1062   -5792.6983    18455.831   0.93754478 
    1570    281.48981   -6711.5074   -6680.1068   -5440.6487    18455.831   0.94039184 
    1580    279.21915   -6711.2534    -6680.106   -4999.2991    18455.831   0.94601391 
    1590     277.1071   -6711.0177    -6680.106   -4867.2447    18455.831   0.95254979 
    1600    278.30993   -6711.1519    -6680.106   -4854.7315    18455.831   0.95811089 
    1610    283.09805   -6711.6862   -6680.1062   -4922.4033    18455.831   0.96206314 
    1620    285.07138   -6711.9077   -6680.1076   -4696.0901    18455.831   0.96577017 
    1630    273.23535   -6710.5854   -6680.1056   -4246.7962    18455.831   0.97096923 
    1640     267.7179   -6709.9697   -6680.1053   -4035.6486    18455.831     0.977191 
    1650    272.52244   -6710.5064   -6680.1061   -4111.8074    18455.831   0.98346373 
    1660     277.8589   -6711.1018   -6680.1062   -4253.7363    18455.831   0.98934697 
    1670    281.07361    -6711.461   -6680.1068   -4561.0787    18455.831   0.99446833 
    1680    278.83973   -6711.2107   -6680.1057   -4801.2753    18455.831   0.99855733 
    1690    282.27607   -6711.5942   -6680.1059   -5070.8212    18455.831    1.0013333 
    1700    288.92729   -6712.3376   -6680.1074   -5075.7299    18455.831    1.0032748 
    1710    283.97303   -6711.7838   -6680.1062   -4524.3033    18455.831    1.0056492 
    1720    280.32496   -6711.3763   -6680.1056   -4088.2037    18455.831    1.0090707 
    1730    285.00962   -6711.9005   -6680.1072   -4166.6509    18455.831    1.0129097 
    1740    281.71349    -6711.532   -6680.1064   -4428.6075    18455.831    1.0162807 
    1750    277.27178   -6711.0355   -6680.1055   -4669.9286    18455.831    1.0185587 
    1760    282.23006   -6711.5895   -6680.1063   -4723.6015    18455.831    1.0199448 
    1770    285.90961   -6712.0006   -6680.1069   -4414.9618    18455.831      1.02094 
    1780    282.38129   -6711.6061    -6680.106   -3873.7091    18455.831    1.0213084 
    1790    282.44165    -6711.613   -6680.1062   -3619.8434    18455.831    1.0208436 
    1800    287.55602   -6712.1841   -6680.1067   -3726.4708    18455.831    1.0207901 
    1810    288.11308   -6712.2473   -6680.1079    -3934.633    18455.831    1.0230701 
    1820    276.98552   -6711.0034   -6680.1052    -4186.202    18455.831    1.0283135 
    1830    277.15263   -6711.0235   -6680.1067   -4345.9838    18455.831    1.0350393 
    1840    276.23823   -6710.9215   -6680.1067   -4368.7653    18455.831    1.0414724 
    1850    273.19513   -6710.5804   -6680.1051   -4416.5455    18455.831    1.0455768 
    1860    283.83055   -6711.7684   -6680.1067   -4696.8368    18455.831    1.0462471 
    1870    291.37755   -6712.6113   -6680.1077   -4729.2468    18455.831    1.0448258 
    1880    283.33807   -6711.7134   -6680.1066   -4658.1696    18455.831    1.0428769 
    1890    273.10669    -6710.571   -6680.1055   -4806.2478    18455.831     1.040683 
    1900    272.25017   -6710.4761   -6680.1062   -4992.1727    18455.831    1.0384095 
    1910    274.11365   -6710.6842   -6680.1065    -4851.611    18455.831    1.0367748 
    1920     274.3815    -6710.714   -6680.1064   -4374.9654    18455.831    1.0362621 
    1930    273.80361   -6710.6496   -6680.1064   -3953.3671    18455.831    1.0369737 
    1940    273.81216   -6710.6506   -6680.1064   -3660.7249    18455.831     1.038631 
    1950     274.0972   -6710.6826   -6680.1067   -3555.6748    18455.831    1.0408007 
    1960     275.1804   -6710.8028    -6680.106   -3995.0323    18455.831    1.0431217 
    1970    281.99645   -6711.5638   -6680.1067   -4818.7611    18455.831    1.0450424 
    1980     287.0536   -6712.1285   -6680.1072   -5430.2829    18455.831    1.0464652 
    1990    282.90097   -6711.6645   -6680.1064   -5324.8363    18455.831    1.0478613 
    2000    278.29624   -6711.1501   -6680.1058   -5003.2499    18455.831    1.0492005 
Loop time of 1184.67 on 16 procs for 2000 steps with 864 atoms

Performance: 0.146 ns/day, 164.538 hours/ns, 1.688 timesteps/s
97.5% CPU use with 16 MPI tasks x 1 OpenMP threads

MPI task timing breakdown:
Section |  min time  |  avg time  |  max time  |%varavg| %total
---------------------------------------------------------------
Pair    | 468.08     | 860.18     | 1154.2     | 701.9 | 72.61
Bond    | 0.00014853 | 0.00036047 | 0.00074506 |   0.0 |  0.00
Neigh   | 0.018644   | 0.030674   | 0.051277   |   4.2 |  0.00
Comm    | 29.685     | 303.04     | 690.67     |1148.4 | 25.58
Output  | 0.28131    | 13.182     | 33.595     | 341.8 |  1.11
Modify  | 0.0085347  | 0.0099845  | 0.012894   |   1.3 |  0.00
Other   |            | 8.231      |            |       |  0.69

Nlocal:        54.0000 ave          86 max          35 min
Histogram: 1 1 3 7 2 1 0 0 0 1
Nghost:        537.750 ave         662 max         448 min
Histogram: 3 1 1 5 0 0 3 1 1 1
Neighs:         0.00000 ave           0 max           0 min
Histogram: 16 0 0 0 0 0 0 0 0 0
FullNghs:      2646.75 ave        5387 max        1216 min
Histogram: 2 2 3 4 3 1 0 0 0 1

Total # of neighbors = 42348
Ave neighs/atom = 49.013889
Ave special neighs/atom = 0.0000000
Neighbor list builds = 199
Dangerous builds = 198
Setting up Verlet run ...
  Unit style    : metal
  Current step  : 2000
  Time step     : 0.001
Per MPI rank memory allocation (min/avg/max) = 8.897 | 8.909 | 8.917 Mbytes
Step Temp PotEng TotEng Press Volume c_msd[4] 
    2000       1162.5   -6711.1501   -6581.4715    705.13548    18455.831    1.0492005 
    2010    1000.7275   -6693.0516    -6581.419    4499.5568     18456.34    1.0606902 
    2020    780.03811   -6668.1367   -6581.1223    9322.0597    18460.202    1.0861189 
    2030    723.51333   -6661.1278   -6580.4188     9819.643    18470.641    1.1098652 
    2040    685.90193    -6655.752   -6579.2386    8887.1526    18488.266     1.133891 
    2050    654.97174   -6650.9147   -6577.8517    8138.7647     18512.52     1.158719 
    2060    669.91481   -6651.2649   -6576.5349    6904.4742    18542.821    1.1825178 
    2070     695.0274   -6652.8594   -6575.3281    6138.2514    18578.366    1.2073976 
    2080     721.4266   -6654.5872    -6574.111    5387.0924    18618.541    1.2345105 
    2090    723.53265   -6653.4651    -6572.754    4591.1874    18662.776    1.2622986 
    2100      733.699   -6653.0761   -6571.2308    3242.8871     18710.42    1.2892168 
    2110    776.23675   -6656.0543    -6569.464    835.30257    18760.343    1.3169159 
    2120    784.50347   -6655.0437   -6567.5311   -26.309329    18810.828    1.3498525 
    2130    745.41669   -6648.7651   -6565.6127    734.18636    18861.133    1.3887498 
    2140    726.15725   -6644.7446   -6563.7407    1135.4467    18911.618    1.4275784 
    2150    743.56152   -6644.7339   -6561.7885    41.801977    18962.422    1.4625043 
    2160    759.55481    -6644.435   -6559.7055   -1448.7422    19012.698    1.4952033 
    2170    780.16301    -6644.562   -6557.5337   -2274.7551    19061.267    1.5270465 
    2180    791.92873   -6643.6436   -6555.3028   -2341.2861    19107.426    1.5592195 
    2190    790.20688   -6641.2104   -6553.0616   -2238.0204    19151.044    1.5916912 
    2200    791.08698   -6639.0565   -6550.8096    -2240.704    19192.163     1.623199 
    2210     800.9614   -6637.8721   -6548.5237   -2288.0223    19230.759    1.6524587 
    2220    803.41173   -6635.8278    -6546.206   -2239.9881    19266.817    1.6801281 
    2230    814.81659   -6634.7598   -6543.8658   -2725.9183    19300.341    1.7075145 
    2240    833.75895   -6634.4713   -6541.4642   -3448.1277    19330.999     1.736576 
    2250    832.72195   -6631.9332   -6539.0419    -3961.676    19358.266    1.7673916 
    2260    818.73313   -6627.9755   -6536.6446   -3839.7109    19381.827    1.7967463 
    2270    825.76811   -6626.3671   -6534.2514     -3796.25    19401.782    1.8206826 
    2280     856.2516    -6627.313   -6531.7969   -3581.4665    19418.261    1.8409754 
    2290    875.38278   -6626.9472   -6529.2969   -2924.0706    19431.526    1.8632676 
    2300    878.49852   -6624.8052   -6526.8074   -2341.6158     19442.14     1.887533 
    2310    905.93126   -6625.3657   -6524.3077   -2492.4028    19450.578    1.9078802 
    2320    921.15747    -6624.534   -6521.7775   -2865.2619    19456.812     1.923432 
    2330     925.2836   -6622.4791   -6519.2623   -2857.6711    19460.624    1.9386684 
    2340    911.24859   -6618.4355   -6516.7844   -2060.9486    19462.099    1.9557657 
    2350    894.36744   -6614.1133   -6514.3453   -946.49271    19461.902    1.9729845 
    2360    906.06098   -6612.9581   -6511.8857    -551.5247    19460.901    1.9898492 
    2370    939.38353   -6614.1473   -6509.3577   -735.37543    19459.451    2.0074475 
    2380    968.11996     -6614.77   -6506.7748    -652.3254    19457.468    2.0242685 
    2390    994.99972   -6615.1859   -6504.1922   -340.15602    19455.006    2.0385287 
    2400    987.67378   -6611.8239   -6501.6474     591.4891    19452.381    2.0538394 
    2410    975.83428   -6608.0318    -6499.176    1536.7381    19450.292    2.0745612 
    2420    978.92357    -6605.916   -6496.7156    2074.4471    19449.467    2.1006006 
    2430    1006.9897   -6606.5672    -6494.236    1955.0476    19450.284    2.1295801 
    2440    1020.6567   -6605.5845   -6491.7287    2322.0027    19452.711    2.1611107 
    2450    1031.7078   -6604.3511   -6489.2625    2671.9297    19456.982    2.1928531 
    2460    1042.8049   -6603.1495    -6486.823    1773.7356    19463.272    2.2193029 
    2470    1065.5788   -6603.2677   -6484.4008    239.17849    19470.854     2.239345 
    2480    1064.5847   -6600.7726   -6482.0166   -42.784842    19478.616     2.259073 
    2490    1057.9204   -6597.7137   -6479.7011    1051.6248    19486.338     2.281086 
    2500    1059.4207   -6595.6076   -6477.4277    2176.2218    19494.813    2.3044499 
    2510    1084.5082   -6596.1358   -6475.1573    2016.7793    19504.842    2.3293842 
    2520     1098.113   -6595.3896   -6472.8934    1589.3939    19516.366    2.3587407 
    2530    1115.0919    -6595.074   -6470.6839    1840.3603    19529.086    2.3923309 
    2540    1139.6029   -6595.6456   -6468.5212    2490.1226    19543.169    2.4277721 
    2550    1148.0989    -6594.531   -6466.4588    2876.2813    19559.101    2.4607466 
    2560    1155.9831   -6593.4456    -6464.494    2864.4289     19577.18    2.4892758 
    2570    1166.1797   -6592.7144   -6462.6253    2734.3882    19597.391    2.5135131 
    2580    1191.5251   -6593.7681   -6460.8517    2685.6394    19619.613    2.5371836 
    2590    1188.4206   -6591.7778   -6459.2077    3142.3436    19643.858    2.5669144 
    2600    1180.3124    -6589.377   -6457.7114    3568.3224    19670.413    2.6024968 
    2610    1148.1616   -6584.4235   -6456.3443    4453.2377    19699.688    2.6407885 
    2620    1147.4671   -6583.0437   -6455.0421     4378.397    19732.275    2.6800273 
    2630    1163.2805   -6583.4999   -6453.7342    3499.2723    19768.062    2.7195153 
    2640    1167.0911   -6582.6307     -6452.44    2685.5241    19806.358    2.7587932 
    2650    1163.7119   -6580.9856   -6451.1718    1493.2464    19846.411    2.8011958 
    2660    1182.9292   -6581.8689   -6449.9114    55.771201    19887.188    2.8498187 
    2670    1182.9083   -6580.6262    -6448.671   -682.12793    19927.493    2.9079322 
    2680    1170.2146   -6578.0404   -6447.5012   -682.50326    19966.664     2.978562 
    2690     1169.387   -6576.8264   -6446.3795   -941.37498    20004.625    3.0534554 
    2700    1151.0469   -6573.6802   -6445.2792   -1297.6194    20041.174    3.1185004 
    2710    1167.8078   -6574.4556   -6444.1848   -1895.5982    20075.987    3.1661562 
    2720    1195.8206   -6576.4789   -6443.0833   -2287.2981    20108.594    3.2033816 
    2730    1195.4025   -6575.3985   -6442.0495   -2013.0351    20138.729    3.2391538 
    2740    1212.4304   -6576.3687   -6441.1202   -2387.2137    20166.543     3.278716 
    2750    1210.3391   -6575.3068   -6440.2917   -2723.8324    20191.802    3.3261977 
    2760    1183.7286   -6571.6277    -6439.581   -2282.7838    20214.308    3.3771123 
    2770    1193.6557     -6572.11   -6438.9559   -2233.1855     20234.38    3.4269706 
    2780    1167.2076   -6568.5813   -6438.3775   -1705.0927    20252.197    3.4791967 
    2790    1154.5525   -6566.6412   -6437.8492   -1768.4836    20268.156    3.5340187 
    2800    1164.9178   -6567.2548   -6437.3065   -2327.3107    20282.262    3.5898767 
    2810    1153.6737   -6565.4596   -6436.7656   -2349.4823    20294.137    3.6471881 
    2820    1145.8287   -6564.0367   -6436.2178   -1884.9909    20303.791    3.7078083 
    2830    1159.9364   -6565.0402   -6435.6476   -1406.4214    20311.627     3.771227 
    2840    1165.9057   -6565.1287   -6435.0701   -1019.2293    20318.085    3.8361683 
    2850    1142.5496   -6561.9349   -6434.4818   -346.49895      20323.6    3.9003912 
    2860    1184.2111   -6565.9858   -6433.8852   -1319.6222    20328.564    3.9591418 
    2870    1199.4496   -6567.0966   -6433.2962    -1493.066    20332.389    4.0094071 
    2880    1198.0514   -6566.4441   -6432.7997   -1333.1365    20334.853    4.0506661 
    2890    1177.4013   -6563.7226   -6432.3817   -493.32109    20336.173    4.0893191 
    2900    1155.7118   -6560.9306   -6432.0092    418.52019    20337.047    4.1269573 
    2910    1193.3918    -6564.772   -6431.6474    402.88025    20338.217    4.1628829 
    2920    1198.6631   -6565.0332   -6431.3205    -92.32026    20339.703    4.2069763 
    2930    1190.7241   -6563.9082   -6431.0811   -386.05602    20341.097    4.2635602 
    2940    1216.8891   -6566.6649   -6430.9191   -527.12667    20342.141    4.3272384 
    2950    1208.4648   -6565.6726   -6430.8666    183.92463    20342.798     4.394062 
    2960    1182.8263   -6562.8504   -6430.9044    1089.9436    20343.631    4.4566217 
    2970    1194.6833   -6564.2808   -6431.0121    879.82692    20345.323     4.510391 
    2980    1178.2511   -6562.6175   -6431.1818    894.05792    20347.805    4.5591353 
    2990     1156.373   -6560.3811   -6431.3859    949.45733    20351.052    4.6082214 
    3000    1169.7746   -6562.0907   -6431.6005    626.84037    20355.081    4.6654146 
    3010     1143.884   -6559.4022   -6431.8002    669.30921    20359.677    4.7280672 
    3020    1149.4387   -6560.1946   -6431.9729     3.615979    20364.761    4.7807148 
    3030    1158.7847   -6561.3577   -6432.0935   -688.77061    20369.801    4.8207315 
    3040    1178.7643   -6563.6998   -6432.2069   -711.37616    20374.226    4.8605624 
    3050     1187.058   -6564.7771    -6432.359   -110.74646    20378.036     4.910644 
    3060    1172.5696   -6563.3688   -6432.5669   -120.32907    20381.656    4.9730085 
    3070    1144.3255   -6560.4323   -6432.7811    29.529735    20385.177      5.03808 
    3080    1146.2445     -6560.84   -6432.9747    54.508662     20388.69    5.0953608 
    3090    1162.5661   -6562.8231   -6433.1372   -452.51315    20392.192     5.146889 
    3100    1163.1663    -6563.062   -6433.3091   -1256.1784    20395.238    5.1996539 
    3110    1153.7715    -6562.191   -6433.4861   -1765.0308    20397.151    5.2553455 
    3120    1156.6874   -6562.6736   -6433.6434   -2213.1936    20397.467    5.3097867 
    3130    1146.9009   -6561.7184   -6433.7799   -2334.2076    20395.834    5.3611854 
    3140    1129.5737   -6559.8816    -6433.876     -1887.67    20392.165    5.4122915 
    3150    1109.8045   -6557.6905   -6433.8902   -1115.3405    20386.871    5.4618831 
    3160    1116.0265   -6558.2975   -6433.8031   -1728.3671    20380.495    5.5038957 
    3170    1128.2275   -6559.4698   -6433.6143   -2157.8377    20372.677    5.5392091 
    3180    1139.4214   -6560.4587   -6433.3545   -1772.8437    20363.052    5.5735282 
    3190    1136.2142   -6559.7727   -6433.0263   -1056.7092    20351.949    5.6110955 
    3200    1147.8871   -6560.7059   -6432.6573   -861.33519    20339.942    5.6463722 
    3210    1148.0911   -6560.3105   -6432.2393   -448.58781    20327.285    5.6770224 
    3220    1177.7014   -6563.1718   -6431.7975   -697.36714    20314.265    5.7043435 
    3230    1202.3984   -6565.5108   -6431.3815   -1040.7709    20300.729     5.728247 
    3240    1175.7186   -6562.1904   -6431.0372   -619.59477    20286.448    5.7498459 
    3250    1143.2708   -6558.2581   -6430.7245   -272.70879    20271.727     5.769796 
    3260    1163.5145   -6560.1857    -6430.394   -420.86993    20256.824    5.7884925 
    3270     1160.116   -6559.4526   -6430.0399   -196.88333    20241.708    5.8121539 
    3280    1172.8997   -6560.5377    -6429.699   -303.74358    20226.489    5.8471184 
    3290    1158.5442   -6558.6009   -6429.3635   -181.74518    20211.117    5.9012681 
    3300    1135.0489   -6555.6337   -6429.0173    -110.2665    20195.684    5.9682489 
    3310    1154.8786   -6557.4633   -6428.6349   -416.49896    20180.205    6.0344857 
    3320    1181.4742   -6560.0233    -6428.228   -464.40333    20164.462     6.093886 
    3330    1166.9787   -6558.0105   -6427.8323    614.54727    20148.501    6.1455956 
    3340    1176.6101   -6558.7135   -6427.4609    1306.7577    20133.114    6.1878085 
    3350    1178.9017   -6558.6141   -6427.1058    1716.7984    20118.938    6.2301872 
    3360    1154.5458   -6555.5657   -6426.7744     2474.332    20106.356    6.2769778 
    3370    1154.9686   -6555.2781   -6426.4396    3109.3891     20095.98    6.3158633 
    3380    1167.8115   -6556.3554   -6426.0843    3011.9809    20088.298    6.3453016 
    3390    1208.0236   -6560.5162   -6425.7594    2149.9875      20083.2    6.3778195 
    3400    1219.1315   -6561.5143   -6425.5183    2076.3344    20080.069    6.4264572 
    3410    1215.3995   -6560.9783   -6425.3986    2456.5953    20078.808    6.4952753 
    3420    1239.5189   -6563.7068   -6425.4366    2986.9182    20079.692    6.5750392 
    3430    1205.3691   -6560.0839   -6425.6232    4202.7944    20083.238     6.655003 
    3440    1209.7405   -6560.9015   -6425.9531    4108.3145    20090.333    6.7276125 
    3450     1211.515   -6561.5296   -6426.3833    3260.9517    20100.978    6.7967797 
    3460    1229.6208   -6564.1199   -6426.9539    2167.4076    20114.443    6.8587202 
    3470    1210.4286   -6562.6842    -6427.659    1758.4491    20129.856    6.9126272 
    3480    1180.9885   -6560.1993   -6428.4582    1830.4095    20146.854    6.9660845 
    3490    1162.8723   -6559.0061   -6429.2859    1526.5133    20165.441    7.0269527 
    3500    1140.5772   -6557.3175   -6430.0844     816.4616    20185.344    7.1005512 
    3510    1124.4319   -6556.2383   -6430.8063    490.92131    20206.009     7.183308 
    3520    1115.3007   -6555.8432   -6431.4297    144.62013    20227.099      7.26205 
    3530    1102.5191   -6554.9252   -6431.9376    77.371398    20248.332    7.3385225 
    3540    1137.7168   -6559.2579   -6432.3439   -262.17435    20269.606    7.4215945 
    3550    1152.3244   -6561.2293   -6432.6858   -597.18531    20290.634    7.5052455 
    3560    1127.9474   -6558.8121   -6432.9879   -23.074055    20311.197    7.5768777 
    3570     1122.047   -6558.3884   -6433.2224    244.51791    20331.685    7.6317146 
    3580    1136.2354   -6560.1109   -6433.3622    -209.6166    20352.303    7.6730308 
    3590     1154.331   -6562.2128   -6433.4454   -772.55404    20372.704    7.7077375 
    3600    1133.3718   -6559.9342   -6433.5048   -833.44067    20392.439    7.7453968 
    3610    1132.5878   -6559.8559    -6433.514   -1265.3123    20411.373    7.7807689 
    3620    1129.4563   -6559.4393   -6433.4468   -1826.4236    20429.115    7.8115611 
    3630    1107.9106   -6556.8734   -6433.2843   -1674.2568    20445.257    7.8498911 
    3640    1131.9394   -6559.2982   -6433.0287   -2009.9325    20459.822    7.8934423 
    3650     1141.388   -6560.0171   -6432.6935   -2592.2515    20472.525    7.9363483 
    3660    1124.0774   -6557.6993   -6432.3068   -2693.2735    20482.916    7.9731973 
    3670    1145.4157   -6559.6312   -6431.8583   -2474.2922    20490.858    8.0052674 
    3680    1154.5822   -6560.1509   -6431.3555   -1551.4022    20496.599    8.0430727 
    3690    1157.1702   -6559.9167   -6430.8326   -1203.8161    20500.888    8.0884242 
    3700    1173.1449    -6561.162    -6430.296   -1763.0604    20504.001    8.1328721 
    3710    1158.0422   -6558.9571   -6429.7757   -1549.3584    20505.586    8.1737014 
    3720    1138.6906   -6556.2865   -6429.2638   -1063.0296    20505.791    8.2130597 
    3730    1144.0613   -6556.3247    -6428.703   -932.07517    20505.022    8.2480192 
    3740    1159.0219   -6557.4025   -6428.1118   -1134.7364    20503.391    8.2783276 
    3750    1160.7645   -6556.9899   -6427.5049   -1758.6888    20500.706    8.3063221 
    3760     1185.114    -6559.107   -6426.9057   -2584.8938    20496.402    8.3396559 
    3770    1198.8172   -6560.0846   -6426.3547   -2164.1759    20489.865     8.382987 
    3780    1170.1051    -6556.401    -6425.874   -1187.7864    20481.405    8.4343737 
    3790    1160.4762   -6554.8742   -6425.4214    -785.5383    20471.848    8.4824163 
    3800    1176.7957   -6556.2392   -6424.9659    -998.2973    20461.545    8.5195694 
    3810    1167.6046   -6554.7693   -6424.5212   -416.95041    20450.426    8.5500374 
    3820    1169.1639   -6554.5143   -6424.0923    167.18154     20438.95    8.5787713 
    3830    1177.9631    -6555.087   -6423.6834    667.05943    20427.637    8.6076288 
    3840    1184.7669   -6555.4647   -6423.3022    1210.8605    20416.954     8.639273 
    3850    1186.4986   -6555.3226   -6422.9669    1363.6355    20407.339    8.6838707 
    3860    1194.1896    -6555.897   -6422.6834     1598.951    20398.971    8.7417524 
    3870    1205.6136   -6556.9574   -6422.4694     1911.126    20392.047     8.800836 
    3880    1176.3093   -6553.5468   -6422.3278    2711.1184    20386.893    8.8535072 
    3890    1172.5215   -6553.0407   -6422.2442    3108.1722    20384.149    8.9032259 
    3900    1176.6142   -6553.4379   -6422.1848    2974.3446    20384.169    8.9531338 
    3910    1166.7325   -6552.3155   -6422.1647    2816.2228     20386.86    9.0035052 
    3920    1170.1231   -6552.6948   -6422.1658    2184.0052     20392.04    9.0561833 
    3930    1168.6793   -6552.5559   -6422.1879    2007.7734    20399.241    9.1171762 
    3940    1162.8743   -6551.9389   -6422.2186    2357.0967    20408.297    9.1856373 
    3950    1178.1228   -6553.6771   -6422.2557     2730.343    20419.505    9.2523398 
    3960    1227.3283   -6559.2639   -6422.3536    2027.4853     20433.08    9.3137578 
    3970    1228.6259   -6559.6301   -6422.5751    1239.1056    20448.507    9.3761099 
    3980    1220.5057   -6559.1107   -6422.9614    755.57184    20465.093    9.4464385 
    3990    1225.1657   -6560.1586   -6423.4896    593.49413    20482.402    9.5275069 
    4000    1207.7831    -6558.873    -6424.143    419.93542    20500.256    9.6152061 
    4010    1188.2293   -6557.4215   -6424.8728     -215.677    20518.449    9.7026051 
    4020    1140.2435   -6552.7965   -6425.6006   -557.68862    20536.465    9.7922004 
    4030    1098.1772   -6548.7494   -6426.2461   -767.15008    20553.957    9.8884154 
    4040     1111.543   -6550.7614   -6426.7671    -1376.572    20570.691     9.982633 
    4050    1136.6612   -6553.9746   -6427.1783   -1760.4564    20586.169    10.068729 
    4060    1161.5426   -6557.1372   -6427.5653   -1675.0243     20600.03    10.148537 
    4070    1142.0511   -6555.3338   -6427.9363   -738.25598      20612.4    10.225576 
    4080    1163.5288    -6558.091   -6428.2976   -235.21898    20624.023    10.293659 
    4090    1167.1049   -6558.8373    -6428.645   -534.76972    20635.324    10.356913 
    4100    1128.5597   -6554.8617   -6428.9692   -584.97129    20646.137    10.419586 
    4110    1121.8866   -6554.3799   -6429.2318   -1235.6453    20656.319    10.479663 
    4120    1133.3212    -6555.838   -6429.4143    -2434.318     20665.28     10.53787 
    4130     1118.416   -6554.2754   -6429.5144   -3280.0872        20672    10.595462 
    4140    1112.7499   -6553.6694   -6429.5405   -3766.7472      20675.7    10.650113 
    4150    1099.5732   -6552.1192   -6429.4602   -3702.3563    20675.974    10.700194 
    4160    1110.3185   -6553.1166   -6429.2589   -3698.4142    20672.815     10.74429 
    4170    1106.0492   -6552.3105   -6428.9291   -3290.1906    20666.299    10.780782 
    4180    1106.2559   -6551.8853   -6428.4808   -2503.6185    20656.833    10.806395 
    4190    1136.2672   -6554.6683    -6427.916    -1933.749    20645.115    10.826541 
    4200    1166.8002   -6557.4409   -6427.2826   -1911.4105    20631.646    10.856155 
    4210    1140.4207   -6553.8375   -6426.6219   -1910.3295    20616.524    10.900392 
    4220    1147.8383   -6554.0123   -6425.9692   -1825.0299    20599.759     10.95211 
    4230    1130.3727    -6551.365   -6425.2703   -705.11099    20581.566    10.999477 
    4240    1112.7521   -6548.6457   -6424.5165   -337.73747    20562.814    11.034411 
    4250    1160.1219    -6553.103   -6423.6896   -1318.7362    20543.793      11.0649 
    4260    1206.6266   -6557.4413   -6422.8403   -1907.7762    20523.764    11.099465 
    4270    1220.0302   -6558.1848   -6422.0886   -1065.2229    20502.295    11.135245 
    4280    1204.5827   -6555.8292   -6421.4562    380.99158    20480.115    11.177408 
    4290    1211.1484   -6556.0461   -6420.9407    735.64201    20458.366    11.233395 
    4300    1195.6586   -6553.9148   -6420.5373    1167.1527    20437.493    11.311647 
    4310    1178.8676   -6551.7166   -6420.2122    1352.7554     20417.86    11.408573 
    4320    1177.1848   -6551.2502   -6419.9335    742.15034    20399.563    11.505144 
    4330    1134.8499   -6546.2536   -6419.6594    852.86214    20382.192     11.59117 
    4340    1147.1439   -6547.3101   -6419.3445    383.97747    20365.703    11.664624 
    4350    1199.3884   -6552.7943   -6419.0007   -71.933014    20349.721    11.719352 
    4360     1204.429    -6553.077   -6418.7211    343.73409     20333.89    11.763037 
    4370    1179.5575   -6550.1123   -6418.5308     853.0062    20318.516    11.811884 
    4380    1178.2387   -6549.8157   -6418.3814    1218.8877    20304.044    11.871608 
    4390    1184.8192   -6550.4289   -6418.2606    1883.6466    20290.828    11.928429 
    4400    1187.9014   -6550.6981   -6418.1859    2626.1843     20279.42    11.976831 
    4410      1166.85   -6548.3197   -6418.1558    3275.9334    20270.441     12.02815 
    4420    1164.0983   -6548.0097   -6418.1527    3496.9853    20264.405    12.097015 
    4430    1195.6318   -6551.5573   -6418.1828    3122.0528    20261.485    12.189361 
    4440    1198.1247    -6551.947   -6418.2944    2880.7613    20261.363    12.300968 
    4450    1176.7811   -6549.7543   -6418.4826    2973.4831    20263.801    12.421288 
    4460    1152.7121   -6547.2731   -6418.6863    2855.2716    20268.838    12.544246 
    4470    1188.8284   -6551.5203   -6418.9047    2084.0292    20276.297     12.65534 
    4480    1204.8537   -6553.5725   -6419.1692    1975.1317    20285.601    12.752383 
    4490    1222.9726   -6555.9939   -6419.5694    2267.4108      20296.6    12.844022 
    4500    1207.5777   -6554.8075   -6420.1004    2767.1151    20309.533    12.948694 
    4510    1188.5758   -6553.3216   -6420.7342    3215.6779    20324.801    13.076777 
    4520    1178.8693   -6552.9433   -6421.4387     3037.596    20342.725     13.22702 
    4530    1157.4329   -6551.2737   -6422.1604    2331.4213    20363.142    13.386706 
    4540    1150.5705   -6551.1953   -6422.8474    1246.2528    20385.398    13.529402 
    4550    1155.6524   -6552.4026   -6423.4879    348.52714    20408.556    13.640094 
    4560    1161.9416   -6553.7201   -6424.1038   -182.86762    20431.815    13.729366 
    4570    1160.5698   -6554.1724   -6424.7091   -537.29506    20454.674    13.815943 
    4580    1165.4154   -6555.3136   -6425.3098   -723.57036      20476.8    13.919971 
    4590    1166.3102   -6556.0154   -6425.9117   -564.45318    20498.038     14.05414 
    4600    1156.6978   -6555.5262   -6426.4948   -356.98639    20518.528    14.209703 
    4610    1157.6224   -6556.1841   -6427.0496   -1003.2075    20538.357    14.366668 
    4620    1146.8311   -6555.4907     -6427.56   -1365.0366    20557.065    14.508296 
    4630    1156.6623    -6557.073   -6428.0456   -1494.4873    20574.309    14.629697 
    4640    1145.8303   -6556.3351    -6428.516   -1253.0497    20589.985    14.735978 
    4650    1131.1046   -6555.1183   -6428.9418   -764.71301    20604.353    14.826616 
    4660    1143.3714   -6556.8636   -6429.3188   -772.02713    20617.789    14.914919 
    4670    1131.0641   -6555.8058   -6429.6339    -563.3505    20630.375    15.025965 
    4680    1132.9258   -6556.2706   -6429.8911   -694.83093    20642.249    15.163243 
    4690    1108.1867   -6553.6942   -6430.0743   -290.18138    20653.402    15.314198 
    4700      1102.24   -6553.1242   -6430.1677    107.97355    20664.147    15.452704 
    4710    1127.2465   -6555.8786   -6430.1325    276.18218    20674.846    15.565268 
    4720     1139.527   -6557.1367   -6430.0208    309.54982    20685.637    15.660624 
    4730    1115.9654   -6554.3271   -6429.8395    911.18596    20696.644    15.749084 
    4740    1122.1248   -6554.7469   -6429.5722    1187.8741    20708.341    15.842208 
    4750    1129.8868   -6555.2401   -6429.1995    1156.0379    20720.969    15.948037 
    4760    1111.7143   -6552.7507   -6428.7373    1559.2867    20734.563    16.060627 
    4770     1095.691   -6550.3847   -6428.1588    1495.4364    20749.394      16.1595 
    4780    1138.3788   -6554.4274   -6427.4395    417.45687    20765.363    16.224243 
    4790     1160.532   -6556.0572   -6426.5981   -417.00342    20781.577    16.267392 
    4800    1163.6001   -6555.5566   -6425.7553   -1047.1372    20797.232    16.317692 
    4810    1142.4848   -6552.3677   -6424.9218   -1541.8862    20811.759    16.392463 
    4820    1145.9136   -6551.9232   -6424.0949   -2157.2645    20824.666    16.480883 
    4830    1154.2542   -6552.0279   -6423.2691   -2112.5323     20835.48    16.564973 
    4840    1103.5023    -6545.559   -6422.4616   -865.95643    20844.331     16.63038 
    4850    1108.3319   -6545.2864   -6421.6503   -869.73548    20852.157     16.67573 
    4860    1132.2708   -6547.0831   -6420.7766   -1547.7633    20859.041     16.72483 
    4870    1159.9088   -6549.3023   -6419.9127   -2148.8669    20864.418    16.796256 
    4880    1199.8959   -6552.9813   -6419.1311   -2885.6868     20867.71    16.889648 
    4890     1182.149   -6550.3688   -6418.4983   -3070.0267    20868.334    16.987355 
    4900     1162.119   -6547.6356   -6417.9994   -3176.1449     20866.09    17.070071 
    4910     1180.078   -6549.2185    -6417.579   -3617.4299    20860.858     17.13561 
    4920    1159.9609   -6546.6117   -6417.2163   -3328.8785    20852.374     17.18938 
    4930    1126.8001   -6542.5933   -6416.8971   -2655.3779    20840.892    17.221002 
    4940    1131.2853    -6542.743   -6416.5464   -2096.1429    20827.039    17.225885 
    4950    1154.9012   -6544.9847   -6416.1537   -1609.7278    20811.373     17.21255 
    4960    1163.2956   -6545.5156   -6415.7482   -1308.8427    20794.372    17.189747 
    4970    1181.9232   -6547.2231   -6415.3778   -1686.4731    20776.271    17.166772 
    4980    1180.0949    -6546.693   -6415.0516   -1634.8959    20756.834    17.159137 
    4990    1184.1403   -6546.8726   -6414.7799   -938.38898    20736.159     17.17709 
    5000    1208.6237   -6549.4003   -6414.5765   -542.27125    20714.805    17.216472 
Loop time of 1928.76 on 16 procs for 3000 steps with 864 atoms

Performance: 0.134 ns/day, 178.589 hours/ns, 1.555 timesteps/s
97.5% CPU use with 16 MPI tasks x 1 OpenMP threads

MPI task timing breakdown:
Section |  min time  |  avg time  |  max time  |%varavg| %total
---------------------------------------------------------------
Pair    | 1025.6     | 1472.4     | 1888.8     | 790.2 | 76.34
Bond    | 0.00021839 | 0.00052346 | 0.00098324 |   0.0 |  0.00
Neigh   | 0.035687   | 0.043952   | 0.055991   |   2.6 |  0.00
Comm    | 15.155     | 408.58     | 852.57     |1464.0 | 21.18
Output  | 0.17799    | 0.18133    | 0.22838    |   2.9 |  0.01
Modify  | 14.515     | 47.541     | 77.275     | 366.1 |  2.46
Other   |            | 0.01306    |            |       |  0.00

Nlocal:        54.0000 ave          70 max          47 min
Histogram: 4 3 1 5 0 0 2 0 0 1
Nghost:        492.438 ave         538 max         449 min
Histogram: 1 1 2 1 5 0 3 1 0 2
Neighs:         0.00000 ave           0 max           0 min
Histogram: 16 0 0 0 0 0 0 0 0 0
FullNghs:      2243.88 ave        3478 max        1759 min
Histogram: 5 2 3 2 2 1 0 0 0 1

Total # of neighbors = 35902
Ave neighs/atom = 41.553241
Ave special neighs/atom = 0.0000000
Neighbor list builds = 300
Dangerous builds = 300
Setting up Verlet run ...
  Unit style    : metal
  Current step  : 5000
  Time step     : 0.001
Per MPI rank memory allocation (min/avg/max) = 8.901 | 8.909 | 8.917 Mbytes
Step Temp PotEng TotEng Press Volume c_msd[4] 
    5000    1208.6237   -6549.4003   -6414.5765   -542.27125    20714.805    17.216472 
    5010    1196.8641   -6548.1382   -6414.6262    645.91945    20714.684    17.328098 
    5020    1204.3107    -6549.113   -6414.7703    1212.7293    20715.092    17.456091 
    5030    1211.2374   -6550.1321   -6415.0167    712.40175    20716.548    17.594227 
    5040    1201.7797    -6549.436   -6415.3757    428.85181    20718.715    17.729416 
    5050    1201.5013   -6549.8753    -6415.846    240.72426    20721.299    17.854578 
    5060     1205.273     -6550.88   -6416.4299    167.30384    20724.117    17.980518 
    5070    1187.9498   -6549.6359   -6417.1184    279.53147    20727.117    18.121558 
    5080    1181.0509   -6549.6419   -6417.8939    125.16607    20730.355    18.286223 
    5090     1187.644   -6551.2121   -6418.7286   -34.617965    20733.735    18.456249 
    5100    1170.1483   -6550.1333   -6419.6015   -157.75526    20737.107    18.612686 
    5110    1171.4428    -6551.169   -6420.4928   -571.69993    20740.303    18.746352 
    5120    1172.1019   -6552.1206   -6421.3709   -752.34142    20742.998    18.853201 
    5130     1171.216   -6552.8686   -6422.2177   -1067.8229    20744.991     18.94598 
    5140    1173.1138   -6553.8866    -6423.024   -1218.0687    20746.018    19.038998 
    5150    1138.8474   -6550.7945   -6423.7544   -435.36518    20745.986    19.136361 
    5160    1115.5071   -6548.7594   -6424.3229    405.07464    20745.563    19.244982 
    5170    1138.5193   -6551.7435   -6424.7399    573.63483    20745.463    19.368501 
    5180    1162.0895   -6554.6851   -6425.0523    488.25878    20745.889    19.508462 
    5190    1171.3244   -6555.9875   -6425.3245    2.5010662    20746.739    19.656797 
    5200    1153.6235   -6554.2475    -6425.559   -431.71965    20747.618    19.806625 
    5210     1143.973   -6553.3527   -6425.7408   -837.01798    20748.098    19.939984 
    5220    1139.0922   -6552.9088   -6425.8414   -1095.1217    20747.822    20.040902 
    5230    1169.5468   -6556.3751   -6425.9104    -1175.365    20746.531    20.119242 
    5240    1134.5817   -6552.5081   -6425.9438   -231.99214    20744.242     20.19463 
    5250    1119.1091   -6550.7744   -6425.9361    783.25565    20741.741    20.266542 
    5260    1107.2173   -6549.3462   -6425.8344    1422.6522    20739.936    20.337567 
    5270    1112.1353   -6549.6919   -6425.6315    1613.8043    20739.428    20.408428 
    5280    1142.3784   -6552.7891   -6425.3551    1271.0149    20740.366    20.475895 
    5290    1139.2622   -6552.1293   -6425.0429    1505.1132    20742.554    20.545638 
    5300    1103.6354   -6547.8209   -6424.7087    1928.9013     20746.18    20.620078 
    5310    1098.6927   -6546.8601   -6424.2992    1351.5729    20751.556    20.700679 
    5320    1127.0621   -6549.5106   -6423.7851   -10.567393     20758.18    20.795202 
    5330    1138.2927   -6550.1741   -6423.1959   -853.62401    20764.895     20.89719 
    5340    1144.0978   -6550.2085   -6422.5827   -1020.0305    20770.916    21.001589 
    5350    1159.8539    -6551.359   -6421.9756   -1207.3792    20776.012     21.10546 
    5360    1162.1339   -6551.0341   -6421.3963   -1301.9078     20780.04    21.207189 
    5370    1174.8099   -6551.9223   -6420.8704   -1666.5958    20782.845    21.299362 
    5380    1163.5025   -6550.1803   -6420.3899   -1464.8035    20784.182    21.365541 
    5390    1198.0276    -6553.605   -6419.9633   -1985.2127    20784.092    21.402903 
    5400    1233.2267    -6557.207   -6419.6387   -2350.0359    20782.161    21.432816 
    5410    1210.0456   -6554.4571   -6419.4747   -1441.3212    20778.136    21.473316 
    5420     1189.381   -6552.1181   -6419.4409   -374.53467    20772.739    21.533432 
    5430     1173.127   -6550.3257   -6419.4617    372.91707    20766.927    21.624946 
    5440    1172.6012   -6550.3197   -6419.5143    495.88786    20761.353     21.73706 
    5450    1174.8744     -6550.65    -6419.591    630.55239    20756.198    21.847383 
    5460    1158.4355   -6548.9071   -6419.6819    1372.7995    20751.644    21.946931 
    5470    1133.4151   -6546.1809   -6419.7467    2347.2228    20748.345    22.043151 
    5480    1150.8004   -6548.1401   -6419.7666    2435.0691     20747.14    22.145109 
    5490    1184.1972   -6551.8687   -6419.7698    2568.0477    20748.216    22.240511 
    5500      1173.96    -6550.766    -6419.809    3084.4478    20751.743     22.32087 
    5510    1192.9843   -6552.9623   -6419.8831    3039.3001    20758.171    22.397028 
    5520    1229.7412   -6557.2395   -6420.0601    2542.9431    20767.491    22.495631 
    5530    1196.1718   -6553.8066   -6420.3719    2152.8489    20779.327    22.631024 
    5540    1159.7691    -6550.146    -6420.772    1381.8341    20793.311    22.783885 
    5550    1164.2276    -6551.068   -6421.1967    137.02866    20808.751    22.932663 
    5560    1154.8274   -6550.4575   -6421.6348    -683.5089     20824.59    23.066892 
    5570     1140.353   -6549.3061    -6422.098   -1015.3478    20840.057     23.18741 
    5580    1106.7495   -6545.9937   -6422.5342    -580.4288    20854.871    23.302973 
    5590    1130.4491   -6549.0287   -6422.9254   -529.16203     20869.32    23.417671 
    5600    1173.4694   -6554.2266   -6423.3243   -964.77252    20883.437    23.527919 
    5610    1129.6798   -6549.8049   -6423.7874    -573.2017    20896.943    23.624242 
    5620    1114.6042   -6548.6199   -6424.2842   -1069.8988    20910.025      23.7123 
    5630    1121.9381   -6549.9401   -6424.7862   -1890.3711    20922.267    23.810814 
    5640    1108.1524   -6548.9159   -6425.2998   -2179.5897    20932.946    23.912274 
    5650    1097.0953   -6548.1931   -6425.8105   -2114.8935    20941.734    23.996603 
    5660    1075.8304   -6546.2711   -6426.2606   -1614.3827    20948.668    24.062888 
    5670    1097.9456   -6549.0969   -6426.6194   -2208.7952    20954.047    24.133754 
    5680    1122.0875   -6552.0737   -6426.9031   -2515.5594    20957.439    24.217427 
    5690    1111.6662   -6551.1498   -6427.1417    -1921.181    20958.562    24.312561 
    5700    1117.6714   -6551.9841   -6427.3062   -1528.0852     20957.86    24.419515 
    5710    1166.2051   -6557.5271   -6427.4352   -1958.3803    20955.599     24.53221 
    5720    1137.5985   -6554.4427   -6427.5419    -1829.967    20951.501    24.642267 
    5730    1131.6088   -6553.8569   -6427.6242   -1534.0828     20945.62    24.731412 
    5740    1180.9658   -6559.4226    -6427.684   -1580.6044    20938.151    24.804396 
    5750    1146.4781     -6555.64   -6427.7486   -652.46027    20929.178    24.870833 
    5760    1117.4145     -6552.44   -6427.7908   -366.40616    20919.388    24.926359 
    5770    1136.5365   -6554.5332   -6427.7509   -695.71205    20909.074    24.971078 
    5780    1141.6272   -6554.9867   -6427.6364   -738.41751    20897.986    25.013647 
    5790    1129.2639    -6553.428    -6427.457   -593.89176    20886.061    25.064021 
    5800    1129.6196    -6553.211   -6427.2002   -624.00605    20873.403    25.141775 
    5810    1139.3227   -6553.9412   -6426.8481   -754.54942    20860.006    25.253936 
    5820    1153.0302   -6555.0502    -6426.428   -946.12816    20845.721    25.371083 
    5830    1133.8514   -6552.4262   -6425.9434   -410.86047    20830.454    25.475965 
    5840    1135.2955    -6552.029   -6425.3851   -367.53987    20814.563    25.572585 
    5850    1115.0086   -6549.1136   -6424.7328   -266.00489    20798.164    25.658913 
    5860    1110.7681   -6547.8921   -6423.9842   -292.69233    20781.331    25.727481 
    5870    1117.5407   -6547.7847   -6423.1214   -551.50213    20764.013     25.77211 
    5880    1111.8107   -6546.1662   -6422.1421   -141.96055    20746.071    25.803759 
    5890    1136.1175   -6547.8182   -6421.0826    204.93203    20727.804    25.850552 
    5900     1167.249   -6550.2081   -6419.9997    624.88449    20709.568    25.921578 
    5910    1185.9614   -6551.2774   -6418.9816    1067.5042     20691.73    26.002483 
    5920    1184.7558   -6550.2648   -6418.1035    2108.9203    20674.797     26.07102 
    5930    1193.0251   -6550.4358   -6417.3521    2412.4906    20659.618     26.12789 
    5940    1199.3207   -6550.5437   -6416.7577    2223.3346    20646.495    26.188258 
    5950    1211.8767   -6551.4737    -6416.287    2183.9385    20635.344    26.270355 
    5960    1254.7225   -6555.9567   -6415.9906    1428.4677    20626.056    26.370054 
    5970    1243.9692   -6554.6839   -6415.9173    1197.5244    20618.059    26.470512 
    5980    1206.3871   -6550.5989   -6416.0246    1466.9669    20611.146    26.563343 
    5990     1223.124   -6552.7029   -6416.2616    1101.9393    20605.446    26.654587 
    6000    1203.8769   -6550.9019   -6416.6076    1332.3205    20600.774    26.749305 
    6010    1168.1626   -6547.3312   -6417.0209    1880.3435    20597.327    26.842489 
    6020    1167.1935   -6547.6507   -6417.4485    1878.9417    20595.521    26.936844 
    6030    1164.2397   -6547.7389   -6417.8662    1864.1836    20595.446    27.036815 
    6040    1160.3497   -6547.7205   -6418.2817    1096.4049    20597.035    27.136712 
    6050    1146.0862   -6546.5321   -6418.6844    533.19186    20599.676     27.22378 
    6060     1137.701   -6545.9563    -6419.044    525.48169    20602.905    27.297405 
    6070    1137.4426   -6546.2347   -6419.3513    282.52915    20606.649    27.361156 
    6080     1131.424    -6545.812   -6419.5999    329.81795    20610.734    27.415648 
    6090    1138.3078    -6546.771   -6419.7911    661.02129    20615.208    27.457936 
    6100    1144.0007    -6547.552    -6419.937    552.13573    20620.308    27.487182 
    6110    1126.1209   -6545.6553   -6420.0348    555.69883    20625.997     27.51683 
    6120    1111.8379   -6544.0895   -6420.0623    774.17881    20632.281    27.570829 
    6130    1127.3707   -6545.7445   -6419.9846    998.65607    20639.388    27.652768 
    6140    1159.3609   -6549.1621   -6419.8337    797.07965    20647.474    27.754888 
    6150    1134.3529   -6546.1712   -6419.6325    1037.3955     20656.46    27.861331 
    6160    1120.5487   -6544.3668   -6419.3679    708.98505     20666.48    27.956309 
    6170    1135.7769   -6545.6835   -6418.9859    188.90516    20677.308    28.034328 
    6180    1162.2819   -6548.1381   -6418.4838   -261.82786    20688.488    28.101289 
    6190    1175.4487   -6549.0229   -6417.8998   -502.64787    20699.608    28.167322 
    6200    1162.5833   -6546.9466   -6417.2587   -147.13446    20710.487    28.235907 
    6210    1163.3675   -6546.3203   -6416.5449    191.96495    20721.386    28.301401 
    6220    1179.6933   -6547.3287   -6415.7321    200.41808    20732.633    28.351881 
    6230    1202.2876   -6548.9697   -6414.8527   -454.75587     20744.17    28.384494 
    6240    1184.1333   -6546.0374   -6413.9455   -322.54367    20755.538    28.417829 
    6250    1187.4184   -6545.5003    -6413.042   -338.09351     20766.76    28.463292 
    6260    1164.0336   -6541.9651   -6412.1154   -237.37934    20777.873    28.515252 
    6270    1187.6455   -6543.6815   -6411.1979   -913.92632    20788.838     28.55994 
    6280    1201.6871   -6544.3345   -6410.2845   -1207.8977    20799.148    28.597681 
    6290    1180.4079   -6541.1372   -6409.4609   -1171.0432    20808.511    28.633424 
    6300     1190.052   -6541.4551    -6408.703   -1868.4264    20816.854    28.669811 
    6310    1201.0119   -6541.9798   -6408.0051   -1893.3874    20823.628    28.709902 
    6320    1191.6347   -6540.3452   -6407.4166   -1278.6753    20828.791    28.751658 
    6330    1203.7055   -6541.2135   -6406.9384   -1374.6147    20832.748    28.796878 
    6340    1202.2574   -6540.6873   -6406.5737   -670.63455    20835.541    28.854807 
    6350    1200.3643   -6540.2273   -6406.3248    373.10754    20837.774    28.925853 
    6360    1207.6307   -6540.8853   -6406.1723    833.85388    20840.343     28.99618 
    6370    1206.8375   -6540.7402   -6406.1157    575.20189    20843.679    29.045985 
    6380    1202.3456   -6540.2808   -6406.1573   -108.50123    20847.578    29.067483 
    6390    1218.5499    -6542.242   -6406.3109   -1077.0887    20851.393    29.061407 
    6400     1228.782   -6543.6531   -6406.5806   -1574.7481    20854.292    29.042314 
    6410    1207.4231   -6541.6687   -6406.9788   -1548.1293    20855.773    29.037264 
    6420    1200.2399   -6541.3411   -6407.4525   -1726.6768    20855.785    29.054165 
    6430    1203.0553   -6542.1991   -6407.9965   -2033.2728    20854.152    29.082415 
    6440    1177.4391   -6539.9221    -6408.577   -1361.4376    20850.693    29.100171 
    6450    1175.9667   -6540.3379    -6409.157   -871.05601     20845.91    29.091381 
    6460    1180.2554   -6541.3614   -6409.7021   -566.50226    20840.276    29.071222 
    6470    1180.9457    -6541.943   -6410.2067   -491.33271    20834.064    29.066332 
    6480    1170.0129   -6541.1775   -6410.6608   -203.15401    20827.422    29.075873 
    6490    1174.2515   -6542.0685    -6411.079   -257.80177    20820.541    29.093474 
    6500    1176.7246   -6542.7195   -6411.4541   -692.49545    20813.377    29.126823 
    6510    1151.7155   -6540.2024   -6411.7268   -637.91576    20805.622    29.165924 
    6520    1160.8019   -6541.4166   -6411.9274   -264.51072    20797.296    29.180832 
    6530    1171.4216   -6542.7787   -6412.1049   -126.50116    20788.724    29.157379 
    6540    1161.1921   -6541.7924   -6412.2597   0.48997217    20780.088    29.109984 
    6550     1181.025   -6544.1339   -6412.3888   -526.84404    20771.426    29.075403 
    6560    1179.7123   -6544.1125   -6412.5138   -1025.5138    20762.323    29.084316 
    6570    1177.4692   -6544.0029   -6412.6544   -1416.8756    20752.322    29.136303 
    6580    1167.1102   -6542.9968   -6412.8039   -1218.0809    20741.127    29.207235 
    6590    1166.0976   -6543.0416   -6412.9617   -970.12059    20728.868    29.268211 
    6600    1153.3115   -6541.7424   -6413.0887   -283.82164    20715.846    29.307529 
    6610    1157.5863   -6542.3225    -6413.192    225.61239    20702.655    29.326545 
    6620    1169.4433   -6543.7412    -6413.288   -87.447887    20689.725    29.341972 
    6630    1178.3873    -6544.848   -6413.3971   -278.17361    20676.844    29.368279 
    6640    1153.3206   -6542.1779   -6413.5232    210.91825    20663.884    29.405696 
    6650    1159.1173   -6542.9423   -6413.6411    398.06671    20651.222    29.447976 
    6660    1179.3339   -6545.3104   -6413.7539    278.68687    20639.034    29.492074 
    6670    1165.2071   -6543.8795   -6413.8989    725.65159     20627.29    29.547831 
    6680    1146.4804   -6541.9345   -6414.0429     1227.069    20616.343    29.605509 
    6690    1144.8837   -6541.8645    -6414.151    1542.1994    20606.642    29.651946 
    6700    1140.5317   -6541.4365   -6414.2085    1773.8882    20598.462    29.693528 
    6710     1147.837    -6542.275    -6414.232    1847.5118    20591.979    29.748442 
    6720    1151.5728   -6542.6771   -6414.2174     1672.932    20587.254    29.838291 
    6730    1170.8179   -6544.8095    -6414.203    977.75921    20584.052    29.956269 
    6740    1171.4455   -6544.8771   -6414.2006    971.33425    20581.848     30.06229 
    6750     1188.944   -6546.8677   -6414.2392     1263.163    20580.573    30.139993 
    6760    1183.9377   -6546.4087   -6414.3386    1777.9523    20580.485    30.206025 
    6770    1183.5005   -6546.5237   -6414.5024    1844.2159    20581.973     30.25982 
    6780    1213.6013   -6550.1318   -6414.7527    1438.7739    20585.101    30.302764 
    6790    1238.3838   -6553.3077   -6415.1641    586.11309    20589.497    30.359666 
    6800    1235.6045   -6553.6483   -6415.8147   -424.17431    20594.357    30.446432 
    6810    1207.7865   -6551.4274    -6416.697   -460.63139    20598.882    30.571365 
    6820    1177.4269   -6549.0995   -6417.7558   -429.70699    20602.965    30.728705 
    6830    1142.4167    -6546.306   -6418.8677   -201.73061    20606.659     30.88693 
    6840    1144.4289   -6547.6254   -6419.9626   -337.52235    20610.116    31.017215 
    6850    1137.1234   -6547.8254   -6420.9776   -381.89914    20613.259    31.107938 
    6860     1144.645   -6549.5916   -6421.9047   -552.60415    20616.011    31.150555 
    6870    1130.3722   -6548.8112   -6422.7165   -313.43486    20618.272    31.168031 
    6880    1111.0112   -6547.3076   -6423.3727    286.11085    20620.259    31.195682 
    6890    1128.1245   -6549.7165   -6423.8726    415.97398    20622.457     31.24211 
    6900     1146.314   -6552.1271    -6424.254    646.92396    20625.049    31.302335 
    6910    1153.2583   -6553.2126   -6424.5649    644.86685    20628.202    31.376811 
    6920    1155.4913   -6553.7204   -6424.8236    299.79162    20631.912    31.467231 
    6930     1153.977     -6553.77   -6425.0421    158.39561    20635.899    31.577965 
    6940    1150.0252   -6553.5091   -6425.2221    618.55916    20640.074    31.701757 
    6950    1151.7848   -6553.8479   -6425.3645    1126.6334    20644.814    31.817717 
    6960    1154.3357   -6554.2446   -6425.4767    1148.3068     20650.53    31.905167 
    6970    1151.3404   -6553.9957   -6425.5619    895.74757    20657.265    31.965396 
    6980    1136.9517   -6552.4421   -6425.6135    433.65973    20664.781    32.024836 
    6990    1115.8562   -6550.0839   -6425.6084    284.71114    20672.706    32.103443 
    7000    1128.1593   -6551.3627   -6425.5149   -41.214778    20680.863    32.203495 
    7010    1159.6919   -6554.7144    -6425.349   -795.72159     20688.93    32.333137 
    7020    1165.0169   -6555.1274    -6425.168   -992.30752    20696.282    32.497465 
    7030    1151.5567   -6553.4478   -6424.9899   -945.90875    20702.704    32.682355 
    7040    1163.4941    -6554.596   -6424.8064   -997.72549     20708.24    32.869316 
    7050    1172.3624   -6555.3948   -6424.6161   -929.27678    20712.855    33.026105 
    7060     1192.467   -6557.4962   -6424.4747   -1274.8286    20716.557      33.1261 
    7070    1155.2316   -6553.2377   -6424.3698   -989.55217    20719.157    33.184787 
    7080    1140.8322   -6551.5345    -6424.273   -755.43825    20720.822    33.225672 
    7090    1144.3962   -6551.7884   -6424.1293   -540.62449    20721.798    33.276362 
    7100    1117.8883   -6548.6381   -6423.9359   -88.957507    20722.303    33.370323 
    7110    1099.8481   -6546.3328   -6423.6431    157.52566    20722.715    33.510048 
    7120     1128.759   -6549.1201   -6423.2053    129.51733    20723.259    33.657039 
    7130    1148.3507   -6550.7479   -6422.6476    106.23331    20723.914    33.774688 
    7140    1143.7154   -6549.5848   -6422.0016    432.48117    20724.706    33.869196 
    7150     1174.811   -6552.3259    -6421.274    330.33854    20725.869    33.958841 
    7160     1214.823   -6556.0028   -6420.4874    429.11569    20727.357    34.064352 
    7170    1218.9018   -6555.6961   -6419.7258    827.51222    20729.273    34.184869 
    7180    1204.5716   -6553.4081   -6419.0364    702.13491    20731.908    34.300406 
    7190    1164.9777   -6548.3357   -6418.3807    921.42731    20735.242    34.409832 
    7200    1150.3451   -6546.0204   -6417.6976    736.43763    20739.383    34.514931 
    7210     1150.998   -6545.2895   -6416.8939    722.71427    20744.266      34.6165 
    7220    1164.1115   -6545.8066   -6415.9482    676.18257    20749.813    34.723295 
    7230    1177.0308   -6546.1609   -6414.8613    935.14052    20756.035    34.830698 
    7240    1197.0696   -6547.1921   -6413.6572    561.55241    20763.095    34.929981 
    7250    1222.9348   -6548.8202      -6412.4   -361.40853    20770.631    35.012123 
    7260    1209.7738   -6546.1416   -6411.1895   -42.530289    20777.984    35.094041 
    7270    1188.0207   -6542.6182   -6410.0927   -17.617015    20785.271     35.18382 
    7280    1175.6664   -6540.2231   -6409.0757   -90.356112     20792.57    35.268584 
    7290    1179.1455   -6539.6807   -6408.1452   -382.25001    20799.787    35.346984 
    7300    1181.3462   -6539.0961   -6407.3151   -398.76239    20806.687     35.43026 
    7310    1180.3771   -6538.2825   -6406.6097    13.197515    20813.292    35.524289 
    7320    1202.1312   -6540.1461   -6406.0466   -583.65131    20819.844    35.608524 
    7330    1199.1354   -6539.4015   -6405.6361   -960.61157    20825.908    35.671152 
    7340    1200.3468   -6539.2816   -6405.3811   -1164.7221    20831.097    35.724908 
    7350    1220.0331   -6541.3612   -6405.2647   -1355.8008     20835.21     35.78618 
    7360    1190.1354   -6538.0306   -6405.2692   -666.72263    20838.169    35.862832 
    7370    1185.6137   -6537.6013   -6405.3443   -448.08732    20840.463     35.94302 
    7380    1207.7737   -6540.1821   -6405.4531   -588.45657    20842.335    36.006359 
    7390    1234.2214   -6543.3224   -6405.6431    -971.1783    20843.645    36.053955 
    7400    1236.7671   -6543.9151   -6405.9519    -1430.401    20844.045    36.109183 
    7410    1235.4445   -6544.1941   -6406.3784   -1979.1834    20843.085    36.181147 
    7420    1224.6585   -6543.5193   -6406.9068   -1877.0745    20840.328    36.268504 
    7430    1216.0104   -6543.1603   -6407.5125   -1963.4418    20835.777    36.377046 
    7440    1201.7777   -6542.2342   -6408.1741   -2458.2633    20829.321    36.504309 
    7450    1166.2394   -6538.9377   -6408.8419   -1951.4886    20820.617     36.63108 
    7460     1146.128   -6537.2917   -6409.4394   -1148.5443    20810.039    36.731537 
    7470    1183.7107   -6542.0257    -6409.981   -892.58513    20798.251    36.798727 
    7480    1191.0741   -6543.4014   -6410.5353   -739.48372    20785.534    36.852012 
    7490    1154.5866   -6539.8802   -6411.0844   -811.74252    20772.006     36.89719 
    7500    1164.0723   -6541.4631   -6411.6091   -1155.6273    20757.575    36.922685 
    7510    1162.0199   -6541.7263   -6412.1013   -839.95393    20742.011    36.934541 
    7520    1157.1829   -6541.6506   -6412.5651   -510.77534    20725.544    36.948694 
    7530    1158.4691   -6542.2268   -6412.9979    -161.2497    20708.462    36.975357 
    7540    1147.3291   -6541.3759   -6413.3896    765.41793    20691.157    37.002815 
    7550    1161.7001   -6543.3346   -6413.7452    719.32468    20674.333    37.020409 
    7560    1191.6375   -6547.0309    -6414.102    421.09486    20658.029    37.027965 
    7570    1181.7523   -6546.3295   -6414.5032    580.74041    20642.024      37.0291 
    7580    1166.7634   -6545.1027   -6414.9485    514.06167    20626.383    37.024424 
    7590    1158.0668   -6544.5774   -6415.3933    382.92659    20611.081    37.022712 
    7600    1155.5446   -6544.7265   -6415.8238    835.63642    20596.063    37.065008 
    7610    1152.9638   -6544.8468   -6416.2319    1315.7248    20581.672     37.15867 
    7620    1170.2348   -6547.1746   -6416.6331    1413.9007     20568.31    37.269101 
    7630    1185.6025   -6549.3094   -6417.0537     1529.398    20556.117    37.378061 
    7640    1190.3087   -6550.3114   -6417.5307     1279.299    20545.162    37.464703 
    7650    1176.2908   -6549.2909   -6418.0739    1025.6177    20535.257    37.510121 
    7660     1154.743   -6547.4479   -6418.6345    1623.8772    20526.262     37.52244 
    7670    1178.6724   -6550.6776   -6419.1949    1697.6931    20518.596    37.526213 
    7680    1203.3192   -6554.0549   -6419.8228    1475.8044    20512.364    37.537654 
    7690    1177.5553   -6551.8841    -6420.526     1613.695    20507.433     37.56318 
    7700    1165.7836    -6551.301   -6421.2561    1149.2388    20503.863    37.609348 
    7710    1154.1147   -6550.7187   -6421.9755    485.77047    20501.276    37.681187 
    7720    1123.0713   -6547.9148   -6422.6345     374.2277    20499.146    37.761448 
    7730    1107.8099   -6546.7307   -6423.1529    298.94599    20497.328    37.833783 
    7740    1115.6946   -6547.9999   -6423.5425    472.90314    20495.774    37.905938 
    7750    1110.4352   -6547.6753   -6423.8046    1297.6513    20494.708     37.98045 
    7760    1125.9746    -6549.558   -6423.9538    1825.3561    20494.797    38.045612 
    7770    1127.0648   -6549.7374   -6424.0117    2700.1897    20496.604    38.107175 
    7780    1138.9743   -6551.0587   -6424.0044    2677.4204    20500.838    38.174088 
    7790    1169.7501   -6554.4429   -6423.9556    2000.1279    20507.554     38.24555 
    7800    1167.5266   -6554.1535   -6423.9142    1445.5946     20516.23    38.333673 
    7810    1141.4245    -6551.201   -6423.8734    1077.0147    20526.415    38.436169 
    7820    1158.7102   -6553.0701   -6423.8143    472.16589    20537.756    38.525278 
    7830    1168.6632    -6554.095   -6423.7288    305.22439    20549.811    38.605042 
    7840    1170.9385   -6554.2801   -6423.6601    270.96848    20562.398    38.695213 
    7850    1162.2175   -6553.2538   -6423.6067     289.0863    20575.479    38.808766 
    7860    1154.9798    -6552.394   -6423.5543    756.24366    20589.153    38.936684 
    7870     1148.525   -6551.6196   -6423.4999    682.19579    20603.769    39.062661 
    7880    1133.1921   -6549.8066   -6423.3973    297.40488    20619.325    39.193446 
    7890    1172.8951   -6554.0848   -6423.2466   -199.04614    20635.487     39.33739 
    7900    1144.1297   -6550.6984   -6423.0691    210.09408    20651.895    39.498082 
    7910    1139.1498   -6549.9154   -6422.8415    208.21784    20668.835    39.666679 
    7920    1163.5966   -6552.3162   -6422.5153    -554.9023    20686.295    39.821887 
    7930    1158.0504   -6551.2832    -6422.101   -1215.6043    20703.659    39.955265 
    7940     1157.852   -6550.7428   -6421.5827   -1683.1937      20720.3    40.074012 
    7950     1130.056   -6546.9479   -6420.8885   -1176.7268    20735.857    40.163031 
    7960     1137.599   -6546.8239    -6419.923   -1061.5469    20750.639    40.204255 
    7970    1134.6709   -6545.1656   -6418.5914   -508.21394     20764.83    40.227139 
    7980    1128.1892   -6542.7736   -6416.9224    69.577434    20778.898    40.267614 
    7990    1158.5059   -6544.2659   -6415.0328     46.36582    20793.347    40.334651 
    8000    1196.4139   -6546.6329   -6413.1711   -142.56492    20808.195    40.426625 
    8010    1177.2536   -6542.9265   -6411.6021   -154.17729    20823.321    40.530612 
    8020    1178.8095   -6541.9056   -6410.4076   -819.28115    20838.662    40.639022 
    8030     1198.383   -6543.1524    -6409.471   -1999.9987    20853.619    40.749115 
    8040    1224.9196   -6545.4206    -6408.779   -2974.3811    20867.118     40.85809 
    8050    1231.1847   -6545.6603   -6408.3198   -3328.7245    20878.218    40.969859 
    8060    1219.2473   -6544.0819    -6408.073   -2827.9153    20886.522    41.086617 
    8070     1200.846   -6541.9405   -6407.9843   -2243.3992    20892.377    41.205935 
    8080    1187.2482   -6540.4282   -6407.9889   -2216.1955    20896.226      41.3179 
    8090     1199.656   -6541.8745   -6408.0511   -2483.8159    20898.046    41.407535 
    8100    1205.7853   -6542.7238   -6408.2167   -2870.8228    20897.523    41.480784 
    8110    1178.1115   -6539.8801     -6408.46   -2679.0106    20894.294    41.555168 
    8120     1172.844   -6539.5893   -6408.7567   -2341.7756    20888.405    41.642301 
    8130     1147.663   -6537.0779   -6409.0543   -2016.6322    20880.115    41.736979 
    8140    1156.1315   -6538.3082     -6409.34   -2247.0033    20869.613    41.822741 
    8150    1168.6943   -6539.9829   -6409.6133   -2147.7784    20856.692    41.889737 
    8160    1182.6035   -6541.8437   -6409.9225   -1806.2364    20841.343    41.933349 
    8170     1178.819   -6541.7817   -6410.2827   -1089.0088    20823.864    41.967946 
    8180     1171.113   -6541.3211   -6410.6816   -232.96497    20804.857    42.002824 
    8190    1185.1625   -6543.3262   -6411.1195    436.89154     20785.07    42.031002 
    8200    1166.8251   -6541.7394   -6411.5783    1124.3768    20765.151    42.057584 
    8210    1162.3274   -6541.7203   -6412.0609    1376.0461    20745.718    42.092303 
    8220    1156.4133   -6541.5583   -6412.5587    1556.6928    20727.072    42.138086 
    8230    1130.2912   -6539.1071   -6413.0214    2043.3644    20709.453    42.186593 
    8240    1166.3401    -6543.558    -6413.451    1928.4218    20693.264    42.216379 
    8250    1178.8114   -6545.4004   -6413.9022    1866.1036    20678.517    42.235051 
    8260    1159.0035   -6543.6649   -6414.3763    2309.3801    20665.235    42.261134 
    8270    1153.9504   -6543.5505   -6414.8256    2609.7676    20653.813    42.296867 
    8280    1150.8325   -6543.6335   -6415.2564    3040.5768     20644.62    42.349142 
    8290      1172.12   -6546.4347    -6415.683    2884.9726    20638.032     42.42337 
    8300    1173.7397   -6547.0812   -6416.1488    2946.2695    20634.042     42.50587 
    8310    1162.7417   -6546.3524   -6416.6468    2758.5429    20632.692    42.574349 
    8320    1140.3553   -6544.3261   -6417.1177    2617.3065     20633.91    42.628444 
    8330    1134.3151   -6544.0985   -6417.5639    2176.9343    20637.545    42.686206 
    8340    1114.8262   -6542.3199   -6417.9593    1708.2868    20643.247    42.755288 
    8350    1102.7425   -6541.2747   -6418.2621    1130.3838    20650.612    42.822424 
    8360    1146.9418   -6546.4067   -6418.4636   -525.92535    20659.011    42.880891 
    8370    1168.1848   -6548.9266   -6418.6138   -1481.7021    20667.094    42.924803 
    8380    1161.5099   -6548.3383   -6418.7701   -1360.8573    20673.985     42.93831 
    8390    1189.3051   -6551.6347    -6418.966   -1743.1495    20679.613    42.924156 
    8400    1187.4513   -6551.7252   -6419.2632   -1617.4333    20683.734    42.917689 
    8410    1150.9433   -6548.0426   -6419.6531   -997.69512    20686.416    42.933793 
    8420    1138.0723   -6547.0145   -6420.0608   -575.24939    20688.172    42.971933 
    8430    1142.4724   -6547.9045     -6420.46   -472.58834    20689.382     43.02821 
    8440    1125.5146   -6546.3756   -6420.8227   -320.59497    20690.174    43.079116 
    8450    1108.4175   -6544.7758   -6421.1301    217.23262    20690.704    43.126488 
    8460    1092.3401   -6543.1906   -6421.3384    1330.8076    20691.515    43.186923 
    8470    1121.1352   -6546.5172   -6421.4529    1413.1965    20693.478    43.258592 
    8480    1143.6618    -6549.072   -6421.4948    655.10501    20696.698    43.345801 
    8490    1134.0701   -6547.9875   -6421.4803    21.196689    20700.544    43.435922 
    8500    1143.9307   -6549.0006   -6421.3934   -335.55572    20704.423    43.500959 
    8510     1145.451   -6549.0031   -6421.2263    223.07197    20708.078    43.544343 
    8520    1162.0359   -6550.6263   -6420.9994    485.43057    20711.899    43.587385 
    8530    1165.5817   -6550.7245   -6420.7021     454.1933    20716.148    43.634511 
    8540    1148.0823   -6548.4483    -6420.378    733.26975    20720.826    43.679348 
    8550    1149.6537   -6548.2282   -6419.9826    851.06504    20726.169    43.719389 
    8560    1155.0688   -6548.3373   -6419.4877    823.97781    20732.269     43.77679 
    8570    1145.5712   -6546.6998   -6418.9096    1194.9689    20739.167    43.871139 
[...]
   22890    1120.0791   -6537.9285    -6412.982    2399.3462    20633.616     122.8248 
   22900    1149.5408   -6541.2448   -6413.0118    1900.3784    20636.603    122.73626 
   22910     1160.981   -6542.5079   -6412.9987    1898.3947    20641.384    122.64908 
   22920    1168.6991   -6543.3529   -6412.9828    2247.9228    20647.928    122.60137 
   22930    1173.4937   -6543.8891   -6412.9841    2988.1822    20656.562    122.60509 
   22940    1211.0002    -6548.126   -6413.0371    2954.0054     20667.86    122.66236 
   22950    1207.9243   -6547.9358     -6413.19    2878.6415    20681.855    122.77204 
   22960    1178.8661   -6544.9483    -6413.444    2939.7169    20698.492    122.93958 
   22970    1184.7102   -6545.8968   -6413.7406     2693.971    20717.805    123.14949 
   22980    1179.7787   -6545.6737   -6414.0676    2105.6942    20739.534    123.34266 
   22990    1192.7242   -6547.4804   -6414.4302    919.56001    20763.111    123.48165 
   23000    1189.8616   -6547.5649   -6414.8341   -155.47301    20787.489    123.57528 
   23010    1168.0877   -6545.5634   -6415.2614   -611.99572    20811.711     123.6776 
   23020    1185.7247    -6547.994   -6415.7246   -1527.0239    20835.225    123.82563 
   23030    1174.5704   -6547.2569   -6416.2318   -2103.8044    20857.248    123.97467 
   23040    1125.9419    -6542.361   -6416.7605   -1995.4537    20877.257     124.0728 
   23050    1101.6178   -6540.1013   -6417.2142   -2102.8718    20895.288    124.13701 
   23060    1129.4242   -6543.5474   -6417.5584   -2655.7084     20911.23    124.18078 
   23070     1154.319   -6546.6046   -6417.8385   -3079.6998    20924.608      124.206 
   23080    1165.4244   -6548.1173   -6418.1124   -3655.6694    20935.002     124.2696 
   23090    1163.0986    -6548.161   -6418.4156   -4131.1533    20941.917    124.41081 
   23100    1158.4854   -6547.9894   -6418.7586    -4533.672    20944.905    124.57769 
   23110    1153.0729   -6547.7729   -6419.1458   -4517.0519    20943.637    124.69492 
   23120    1138.8912   -6546.5946   -6419.5495   -3654.7217    20938.189    124.72912 
   23130     1138.456   -6546.9675    -6419.971    -2786.677     20929.31    124.69077 
   23140    1126.2927    -6546.035   -6420.3954   -2069.3868    20917.839    124.62112 
   23150    1122.0935   -6545.9861   -6420.8149   -1388.1504    20904.466    124.56745 
   23160    1131.3155   -6547.4258   -6421.2259   -698.56209    20889.858    124.56605 
   23170    1144.9227   -6549.4111   -6421.6932   -371.46847     20874.64    124.63871 
   23180    1134.3877   -6548.7856   -6422.2429   -526.80666    20859.115    124.73856 
   23190    1137.8504   -6549.8221   -6422.8931   -1028.8483    20843.144    124.78992 
   23200    1129.6472   -6549.6612   -6423.6473   -906.50736    20826.358    124.77998 
   23210    1118.3565   -6549.2197   -6424.4654   -699.76998    20808.822    124.74329 
   23220    1112.5144   -6549.4246    -6425.322   -536.53396    20790.727    124.69802 
   23230    1060.7797   -6544.4369   -6426.1053   -159.44015    20772.268    124.62858 
   23240    1071.6789   -6546.2974     -6426.75   -467.52054    20753.708    124.53251 
   23250    1095.0541   -6549.3999    -6427.245   -967.90952    20734.834    124.43988 
   23260    1104.5988   -6550.8495   -6427.6298   -1523.0105    20715.172    124.33589 
   23270    1112.5269   -6552.0209   -6427.9169   -1441.7045    20694.289    124.18274 
   23280    1102.1687   -6551.0456    -6428.097   -845.29261    20672.268    123.98858 
   23290    1092.9342   -6550.0743   -6428.1558   -358.93213    20649.638    123.80746 
   23300    1102.5297   -6551.0565   -6428.0676    77.340587    20626.872    123.67075 
   23310    1105.6151     -6551.16    -6427.827    625.78401     20604.38     123.5915 
   23320     1125.502   -6552.9902   -6427.4388    692.49312    20582.612    123.55602 
   23330    1137.6022   -6553.8228   -6426.9215    762.31875    20561.683    123.54604 
   23340    1155.9539   -6555.2725   -6426.3241    293.03323    20541.601     123.5515 
   23350    1156.9798   -6554.7315   -6425.6687     213.3402    20522.033     123.5663 
   23360     1139.075   -6552.0427   -6424.9772    592.00317    20502.898    123.58057 
   23370     1142.547   -6551.6923   -6424.2395    1003.6037    20484.507    123.58891 
   23380    1153.2204   -6552.0761   -6423.4326    1132.3668    20467.178    123.62419 
   23390     1189.089   -6555.2585   -6422.6139    1003.6129    20451.029    123.69285 
   23400    1211.8582   -6557.0337   -6421.8491    1295.8495     20435.99    123.74395 
   23410    1184.2481   -6553.2867   -6421.1821    2693.4428    20422.401    123.73567 
   23420    1187.2554   -6553.0483   -6420.6082    2886.8651    20411.257    123.66033 
   23430    1178.7836   -6551.5947   -6420.0996    2499.6319    20402.784    123.53763 
   23440    1173.0043    -6550.513   -6419.6626     2211.599    20396.641    123.40992 
   23450    1168.9897   -6549.6623   -6419.2597    2448.8856    20392.616    123.31122 
   23460     1213.867   -6554.3164   -6418.9078    1733.8335    20390.749    123.26706 
   23470    1217.1289   -6554.4201   -6418.6475    1631.7928    20390.516    123.29361 
   23480    1208.6554   -6553.3469   -6418.5196    1874.8008    20391.769    123.39131 
   23490    1188.0141   -6551.0244   -6418.4996    2007.6549     20394.68    123.53329 
   23500    1171.8706   -6549.2558   -6418.5319    2021.3897    20399.369    123.65435 
   23510     1192.908   -6551.6806   -6418.6099     1237.872    20405.752    123.74474 
   23520    1184.9107   -6550.9211   -6418.7425    877.61247    20413.234    123.84074 
   23530    1191.4874    -6551.852   -6418.9398    495.75668    20421.444    123.95842 
   23540    1193.8142    -6552.391   -6419.2193    631.54685    20430.078     124.0976 
   23550    1170.8644   -6550.1857    -6419.574    1359.1124    20439.267    124.26826 
   23560    1177.4496   -6551.3563     -6420.01    1836.3066    20449.601    124.45165 
   23570    1142.6179    -6547.962   -6420.5013    2010.2968    20461.484    124.58202 
   23580    1121.8213   -6546.1279    -6420.987     1443.433    20475.045    124.62055 
   23590    1135.6294   -6548.1342    -6421.453    541.93084    20489.809    124.58628 
   23600    1107.7675   -6545.4637   -6421.8906    143.80867    20505.014    124.56785 
   23610    1105.8718   -6545.6324   -6422.2708   -317.68078    20520.247    124.61285 
   23620    1112.6363   -6546.7017   -6422.5855   -575.04447    20535.117    124.70954 
   23630    1115.4872   -6547.2784   -6422.8441   -481.11666    20549.401    124.84618 
   23640    1122.8473   -6548.3116   -6423.0563    -503.5601     20563.15    124.98592 
   23650    1126.2691   -6548.8556   -6423.2186   -820.13624    20576.324    125.12824 
   23660    1127.1173   -6549.0546   -6423.3229   -1187.6463    20588.691    125.29185 
   23670    1131.1367   -6549.5561   -6423.3761   -1741.1544    20599.901    125.45189 
   23680    1111.9577   -6547.3931   -6423.3526   -1604.1953    20609.523    125.55281 
   23690    1100.8569    -6546.017   -6423.2147   -1075.7756    20617.663    125.58511 
   23700    1126.9191   -6548.6381   -6422.9286   -1167.4657    20624.726    125.58673 
   23710    1157.6511   -6551.6376   -6422.4998   -1509.2052    20630.662    125.54822 
   23720     1146.095   -6549.8232   -6421.9746   -819.49621    20635.278    125.48417 
   23730    1158.9582   -6550.6545    -6421.371   -63.135506    20639.119    125.44337 
   23740    1181.4232   -6552.4757   -6420.6862    207.94437    20642.855    125.46425 
   23750    1174.7141   -6551.0304   -6419.9893    67.387964    20646.753    125.56741 
   23760    1147.0148   -6547.2374   -6419.2861   -641.83101    20650.656    125.72606 
   23770    1142.8852   -6546.0388   -6418.5482   -1325.0464    20653.957     125.8905 
   23780    1134.0575   -6544.2549   -6417.7491   -1370.6927    20656.078    126.05237 
   23790    1115.0867   -6541.2794   -6416.8898   -655.18751    20657.006    126.20073 
   23800    1148.7223   -6544.1012   -6415.9595   -505.40031    20657.265    126.29548 
   23810    1176.6802    -6546.263   -6415.0025   -278.27957    20657.076    126.32495 
   23820    1180.6779   -6545.8241   -6414.1177   -105.43197    20656.622    126.34261 
   23830     1160.412    -6542.774   -6413.3283    624.26109    20656.127    126.35756 
   23840    1142.4262   -6540.0451   -6412.6057    1811.9567    20656.249    126.39336 
   23850    1163.4929    -6541.706   -6411.9166    2104.7756    20657.969    126.50263 
   23860    1168.9846   -6541.6693   -6411.2673    1835.7957    20661.596    126.67743 
   23870    1154.7361   -6539.4831   -6410.6705    1798.1297    20666.956    126.85849 
   23880    1191.5218   -6543.0397   -6410.1237    944.80956    20673.889    126.99472 
   23890    1210.0626   -6544.6333    -6409.649    380.78427    20681.717    127.12348 
   23900    1205.8997   -6543.8254   -6409.3055    334.62032    20689.948     127.2967 
   23910    1194.0282   -6542.2712   -6409.0755    308.07044    20698.502    127.47325 
   23920    1204.5915   -6543.3097   -6408.9357    295.75422    20707.357    127.57867 
   23930    1212.2755   -6544.1289   -6408.8977    384.40537    20716.506    127.63671 
   23940    1175.1257     -6540.04    -6408.953    809.76733    20726.069     127.6926 
   23950     1168.861   -6539.4401   -6409.0519    493.27525    20736.321    127.75535 
   23960    1191.0963   -6542.0347   -6409.1661    -23.72507    20747.051    127.81467 
   23970    1208.7285   -6544.1873   -6409.3518   -503.43103    20757.785    127.86045 
   23980    1182.9952   -6541.5857   -6409.6208   -445.16236    20768.127    127.89362 
   23990    1188.5447    -6542.551   -6409.9671   -858.67879    20778.015    127.93821 
   24000    1177.0334   -6541.6679    -6410.368    -707.3094    20787.194    127.98025 
   24010    1157.6954   -6539.9664   -6410.8238   -234.34482    20795.756    127.98393 
   24020    1121.0111   -6536.3103   -6411.2599    406.83954    20804.152    127.99269 
   24030    1121.2531   -6536.7118   -6411.6343    107.20089    20812.882     128.0746 
   24040      1148.56     -6540.06   -6411.9364   -867.24553    20821.698    128.16901 
   24050    1175.7952   -6543.3913   -6412.2295   -1292.4415    20829.778    128.21999 
   24060    1153.5623   -6541.2384   -6412.5568   -844.11895    20836.747    128.27424 
   24070    1160.3508   -6542.3495   -6412.9106   -307.32109    20842.978    128.35483 
   24080    1178.4345   -6544.7561      -6413.3   -123.64681    20848.913    128.44743 
   24090    1167.7808   -6544.0264   -6413.7587    315.30675    20854.798    128.56577 
   24100    1149.2992   -6542.4834   -6414.2773    420.76781    20860.994    128.72773 
   24110    1138.0329   -6541.7708   -6414.8216    7.7783865    20867.578    128.90988 
   24120    1123.0535   -6540.6466   -6415.3683   -313.77571    20874.228    129.06681 
   24130      1126.89   -6541.6035   -6415.8973   -859.97837    20880.593    129.15499 
   24140    1160.5216   -6545.9006   -6416.4427   -1099.1646     20886.22     129.1791 
   24150     1164.715   -6546.9865   -6417.0608   -917.02712    20890.874    129.18175 
   24160    1137.3418   -6544.6312    -6417.759   -377.31193     20894.72    129.21351 
   24170    1119.9969   -6543.4233    -6418.486   -242.07712    20898.203    129.29502 
   24180    1126.2467   -6544.8512   -6419.2166   -718.26597    20901.435    129.39675 
   24190    1130.8728   -6546.0974   -6419.9468    -1125.013    20904.034    129.47467 
   24200    1142.4517    -6548.131   -6420.6888    -1708.533    20905.568    129.51424 
   24210    1152.9871   -6550.0847   -6421.4673   -1917.6297    20905.543    129.52842 
   24220    1142.1689   -6549.6869   -6422.2762   -1950.0787    20903.709    129.52557 
   24230    1136.3079   -6549.8419    -6423.085   -2160.2225    20900.007    129.54078 
   24240    1134.8389   -6550.4869   -6423.8939   -2886.0984    20894.176    129.58388 
   24250    1105.6498   -6547.9796   -6424.6427   -2900.7726    20885.644    129.62629 
   24260    1128.3991   -6551.1933   -6425.3187    -3245.101    20874.261    129.66281 
   24270    1126.6671   -6551.6118   -6425.9304   -2736.8355    20859.802    129.71867 
   24280    1110.4074   -6550.3221   -6426.4545   -1531.9199    20842.706    129.79221 
   24290    1114.1637   -6551.1677   -6426.8811   -949.06161    20823.969    129.83047 
   24300    1090.4872   -6548.8258   -6427.1803   0.57936791    20804.229    129.84223 
   24310    1083.1426   -6548.1537   -6427.3276    673.20048    20784.306    129.89891 
   24320    1090.0145   -6548.9105   -6427.3177     651.7312    20764.793    130.01542 
   24330    1075.6651   -6547.1296   -6427.1375    202.31747      20745.7    130.13905 
   24340    1093.7641   -6548.7944   -6426.7833   -847.38733    20726.584     130.2298 
   24350    1117.6421   -6550.9242   -6426.2495   -1677.3325    20706.537    130.28025 
   24360    1128.0319    -6551.394   -6425.5604   -2033.0454    20684.788    130.31852 
   24370    1141.5341   -6552.0661   -6424.7263   -2212.1933    20660.985    130.38007 
   24380    1142.8629    -6551.253   -6423.7649   -2117.1111    20634.955     130.4835 
   24390    1160.8909   -6552.1889   -6422.6898   -1040.2795    20606.846    130.61734 
   24400    1165.6582    -6551.568   -6421.5371      885.499    20577.612    130.74472 
   24410    1121.6858   -6545.4914   -6420.3657    3106.4935    20549.007    130.81977 
   24420    1131.9801   -6545.4672   -6419.1931    3923.1087    20522.897    130.82296 
   24430    1154.1983   -6546.8113   -6418.0587    4141.9129    20500.153    130.79779 
   24440    1172.1143   -6547.8149   -6417.0638    3875.8183    20480.972    130.81645 
   24450    1170.1274   -6546.8049   -6416.2754    3681.9013     20465.19    130.88989 
   24460    1184.5363   -6547.8249   -6415.6881    2561.2485    20452.534    130.95924 
   24470    1195.1137   -6548.6097    -6415.293      1417.74    20442.096    130.98586 
   24480    1172.3471    -6545.815    -6415.038    985.03577    20432.935    130.96988 
   24490    1188.6144   -6547.4744   -6414.8827    440.71436    20424.564    130.94815 
   24500    1177.9317   -6546.1984   -6414.7983    507.44379    20416.591    130.96634 
   24510    1168.1857   -6545.0719    -6414.759    450.29953    20408.989    131.02991 
   24520    1188.6723   -6547.3441   -6414.7459    585.29011    20401.746    131.11367 
   24530    1194.5329   -6548.0395   -6414.7876     1525.343    20395.021    131.21227 
   24540    1179.4779   -6546.4491   -6414.8766    2908.7036    20389.651    131.33053 
   24550    1218.7568   -6550.9858   -6415.0316    3261.4658    20386.749    131.46316 
   24560    1212.7148   -6550.5715   -6415.2914    3737.8221    20386.808    131.61866 
   24570    1187.1359   -6548.0968     -6415.67     3622.504    20390.191    131.78477 
   24580    1177.4042    -6547.441   -6416.0998    3254.1336    20396.885    131.95888 
   24590    1166.8878   -6546.7228   -6416.5547    2828.8275    20406.603    132.15215 
   24600    1152.4019   -6545.5641   -6417.0119    2542.2907    20419.033    132.35179 
   24610    1159.8528   -6546.8394   -6417.4561    2367.5594    20433.958    132.56096 
   24620    1136.3896   -6544.6476   -6417.8816    2609.4681    20451.301     132.7653 
   24630    1120.4376   -6543.2483   -6418.2618    2870.3365    20471.279    132.93746 
   24640    1123.5306   -6543.8876    -6418.556    2316.4222    20494.092    133.08318 
   24650    1152.4168   -6547.3249   -6418.7711    1331.8105    20519.326    133.20772 
   24660    1187.0479   -6551.3771   -6418.9601    68.775961    20546.099     133.3179 
   24670    1190.2474   -6551.9581   -6419.1842   -332.95585    20573.399     133.4175 
   24680    1182.8531   -6551.4325   -6419.4835    52.820447    20600.849    133.51826 
   24690    1154.4639   -6548.6175   -6419.8353     294.9873    20628.716     133.6699 
   24700    1119.5528   -6545.0486   -6420.1608   -9.6940578    20657.205    133.90609 
   24710    1127.8439   -6546.2349   -6420.4222   -763.00717    20686.032    134.17269 
   24720    1119.6101   -6545.4916   -6420.5974   -1241.3365    20714.549    134.42134 
   24730    1109.3462   -6544.4306   -6420.6813   -1493.6299     20742.28    134.63213 
   24740    1117.7605   -6545.3465   -6420.6587   -1534.7012    20768.966    134.79118 
   24750    1133.6136   -6546.9928   -6420.5365   -1568.5887     20794.52    134.89725 
   24760    1153.4614   -6549.0074   -6420.3371   -1729.4595      20818.9    134.95413 
   24770    1172.0213   -6550.8401   -6420.0994   -2099.6219    20841.934    135.01097 
   24780    1143.7578   -6547.4249    -6419.837   -2339.7003    20863.259    135.14328 
   24790      1121.41   -6544.6174   -6419.5224   -2552.1293    20882.596    135.34653 
   24800    1131.8903    -6545.348    -6419.084   -2167.2654    20899.793    135.53681 
   24810    1141.7749   -6545.8969   -6418.5302   -1522.7441    20915.142    135.65116 
   24820    1144.0636   -6545.4828   -6417.8607   -1434.4901    20929.175    135.71513 
   24830    1144.6581   -6544.7511   -6417.0628   -1379.2914    20942.019    135.78588 
   24840    1140.0849   -6543.3233   -6416.1451   -1199.6658    20953.724    135.89037 
   24850    1167.4549   -6545.3385   -6415.1071   -1620.5707    20964.366    135.99382 
   24860    1215.7962   -6549.6289    -6414.005   -2608.6138    20973.533    136.06827 
   24870    1235.2784   -6550.7692    -6412.972   -3252.1145    20980.347     136.1115 
   24880    1202.1698   -6546.2232   -6412.1194   -2748.6836    20984.248    136.14191 
   24890    1190.6703   -6544.2416   -6411.4206   -1904.6943    20985.605     136.1974 
   24900    1200.5798   -6544.7454   -6410.8189   -1049.5644     20985.18    136.28524 
   24910    1223.8563   -6546.8551   -6410.3321   -950.82966    20983.685    136.40759 
   24920    1225.1533   -6546.6624   -6409.9947   -1033.4175    20981.258    136.58194 
   24930    1213.2352   -6545.1457   -6409.8075    -1013.149    20977.833    136.80813 
   24940    1242.9725    -6548.433   -6409.7775   -1142.9049    20973.364    137.05496 
   24950    1224.7136   -6546.5183   -6409.8997    39.440234    20967.888    137.27938 
   24960     1218.931   -6546.1507   -6410.1771    512.02052    20962.306     137.4569 
   24970    1215.1212   -6546.1292   -6410.5806    100.24843    20957.075    137.56738 
   24980    1190.6178   -6543.9059   -6411.0907   -100.47041    20951.901    137.60611 
   24990    1163.6637   -6541.4619   -6411.6535   -304.51832    20946.551    137.62746 
   25000    1159.3886   -6541.5394   -6412.2079   -539.01568    20940.824    137.64759 
Loop time of 13048.5 on 16 procs for 20000 steps with 864 atoms

Performance: 0.132 ns/day, 181.229 hours/ns, 1.533 timesteps/s
97.4% CPU use with 16 MPI tasks x 1 OpenMP threads

MPI task timing breakdown:
Section |  min time  |  avg time  |  max time  |%varavg| %total
---------------------------------------------------------------
Pair    | 7873.9     | 10372      | 12804      |1756.7 | 79.49
Bond    | 0.0014625  | 0.0034185  | 0.0065403  |   2.4 |  0.00
Neigh   | 0.2676     | 0.29489    | 0.34087    |   3.3 |  0.00
Comm    | 36.956     | 2444.9     | 4733.1     |3609.1 | 18.74
Output  | 1.1792     | 1.2104     | 1.6575     |  10.5 |  0.01
Modify  | 98.907     | 230.28     | 439.88     | 586.6 |  1.76
Other   |            | 0.08753    |            |       |  0.00

Nlocal:        54.0000 ave          68 max          47 min
Histogram: 2 4 2 4 1 1 1 0 0 1
Nghost:        506.312 ave         538 max         482 min
Histogram: 3 1 2 3 1 1 0 2 2 1
Neighs:         0.00000 ave           0 max           0 min
Histogram: 16 0 0 0 0 0 0 0 0 0
FullNghs:      2215.50 ave        3048 max        1838 min
Histogram: 3 2 3 3 3 1 0 0 0 1

Total # of neighbors = 35448
Ave neighs/atom = 41.027778
Ave special neighs/atom = 0.0000000
Neighbor list builds = 2000
Dangerous builds = 2000
Total wall time: 4:29:30
