LAMMPS (29 Sep 2021 - Update 3)
OMP_NUM_THREADS environment is not set. Defaulting to 1 thread. (src/comm.cpp:98)
  using 1 OpenMP thread(s) per MPI task
units	metal
atom_style	full

read_data	mixed.data
Reading data file ...
  orthogonal box = (0.0000000 0.0000000 0.0000000) to (17.171819 17.292452 83.119182)
  1 by 2 by 8 MPI processor grid
  reading atoms ...
  864 atoms
Finding 1-2 1-3 1-4 neighbors ...
  special bond factors lj:    0        0        0       
  special bond factors coul:  0        0        0       
     0 = max # of 1-2 neighbors
     0 = max # of 1-3 neighbors
     0 = max # of 1-4 neighbors
     1 = max # of special neighbors
  special bonds CPU = 0.005 seconds
  read_data CPU = 0.039 seconds

pair_style	quip
pair_coeff	* * /ocean/projects/cts180021p/wuziqi/clease/mint-PD/PhaseDiagram-Clease/Liquid/GAP_potential/gap_LiKCl.xml "Potential xml_label=GAP_2021_9_27_0_1_17_37_618" 17 19 3

neighbor	0.3 bin
neigh_modify	delay 10

timestep	0.001
compute	msd all msd
thermo_style	custom step temp pe etotal press vol c_msd[4]
thermo	10
dump	1 all custom 10 xyz-mix.dump type id x y z
dump	2 all custom 10 force-mix.dump type id fx fy fz

fix     1 all nve
run     2000
Neighbor list info ...
  update every 1 steps, delay 10 steps, check yes
  max neighbors/atom: 2000, page size: 100000
  master list distance cutoff = 6.22
  ghost atom cutoff = 6.22
  binsize = 3.11, bins = 6 6 27
  1 neighbor lists, perpetual/occasional/extra = 1 0 0
  (1) pair quip, perpetual
      attributes: full, newton on
      pair build: full/bin
      stencil: full/bin/3d
      bin: standard
Per MPI rank memory allocation (min/avg/max) = 8.894 | 8.900 | 8.906 Mbytes
Step Temp PotEng TotEng Press Volume c_msd[4] 
       0            0   -7174.3834   -7174.3834   -3403.7864    24681.648            0 
      10    59.886459   -7181.0715   -7174.3911    -3591.811    24681.648 0.0004428069 
      20    152.53511   -7191.4143   -7174.3988    -3532.456    24681.648 0.0053913133 
      30    183.53475   -7194.8677   -7174.3941   -2645.2133    24681.648  0.017829876 
      40    202.66462   -7197.0001   -7174.3926   -1813.5571    24681.648  0.032805386 
      50    235.34035   -7200.6482   -7174.3956    -1646.813    24681.648   0.04588816 
      60    247.94168    -7202.052   -7174.3938   -1842.2959    24681.648   0.05765331 
      70    253.09642   -7202.6277   -7174.3944   -2064.7915    24681.648  0.069436765 
      80    250.99467   -7202.3926   -7174.3937   -2200.0016    24681.648  0.082900901 
      90    246.12852   -7201.8494   -7174.3934   -2173.7127    24681.648  0.099028065 
     100    244.92959   -7201.7179   -7174.3956   -1978.8699    24681.648   0.11746343 
     110    242.28341    -7201.419   -7174.3919   -1729.6413    24681.648   0.13557848 
     120    255.22195   -7202.8655   -7174.3951   -1848.0783    24681.648   0.15075494 
     130    256.29683   -7202.9842   -7174.3939     -2007.52    24681.648   0.16545013 
     140    255.59143   -7202.9057   -7174.3941   -2078.8051    24681.648   0.17976362 
     150    254.71653    -7202.809    -7174.395   -2143.2247    24681.648   0.19317961 
     160    251.90206   -7202.4945   -7174.3944   -2001.6951    24681.648   0.20534635 
     170    250.97219   -7202.3902   -7174.3939   -1889.6105    24681.648   0.21663825 
     180     257.3806   -7203.1055   -7174.3943   -1934.6918    24681.648    0.2288925 
     190     260.3621   -7203.4402   -7174.3964   -1958.2977    24681.648   0.24328518 
     200    252.18366   -7202.5243   -7174.3928   -1925.8316    24681.648   0.25702409 
     210    258.35994    -7203.215   -7174.3946   -1990.3907    24681.648   0.26669152 
     220    260.53492   -7203.4573   -7174.3943   -1988.9024    24681.648    0.2748492 
     230    258.23338   -7203.2005   -7174.3942   -1795.6857    24681.648   0.28332799 
     240    252.93197   -7202.6085   -7174.3936   -1566.3378    24681.648   0.29247854 
     250    254.73094   -7202.8097   -7174.3941   -1512.6013    24681.648   0.30118823 
     260    260.13921   -7203.4133   -7174.3944   -1595.4355    24681.648   0.30980823 
     270    263.33316   -7203.7692    -7174.394   -1672.2968    24681.648    0.3193726 
     280    266.81067   -7204.1584   -7174.3953   -1641.3932    24681.648   0.32972958 
     290    262.39696   -7203.6654   -7174.3946   -1516.4449    24681.648   0.34016636 
     300    261.07623   -7203.5192   -7174.3957   -1490.2694    24681.648   0.34870802 
     310    256.60645    -7203.019   -7174.3942   -1424.9004    24681.648   0.35616095 
     320    255.12221   -7202.8537   -7174.3944   -1431.1943    24681.648   0.36426417 
     330    257.21766   -7203.0875   -7174.3944   -1535.2284    24681.648   0.37294434 
     340    260.71445   -7203.4781    -7174.395   -1738.4386    24681.648   0.38207588 
     350    260.87542   -7203.4955   -7174.3944   -1787.8195    24681.648   0.39203939 
     360    259.24296   -7203.3137   -7174.3948   -1801.5109    24681.648   0.40305256 
     370     256.8045   -7203.0415   -7174.3946    -1871.197    24681.648   0.41474987 
     380    253.74937   -7202.7006   -7174.3945   -2006.2935    24681.648   0.42675018 
     390     250.3984   -7202.3262   -7174.3939   -2133.6916    24681.648    0.4387225 
     400    253.59482   -7202.6831   -7174.3942   -2227.7267    24681.648   0.44925493 
     410    258.62293   -7203.2446   -7174.3948   -2242.4151    24681.648   0.45744528 
     420    260.59152   -7203.4634   -7174.3941   -2202.0252    24681.648   0.46381779 
     430    265.56276   -7204.0186   -7174.3947   -2285.5748    24681.648   0.46928077 
     440    267.29796   -7204.2122   -7174.3947   -2340.4066    24681.648   0.47466356 
     450     263.7688   -7203.8177   -7174.3939   -2324.3833    24681.648   0.47995391 
     460    263.97331    -7203.841   -7174.3944   -2444.9636    24681.648   0.48477747 
     470    265.08715   -7203.9653   -7174.3944   -2633.9331    24681.648   0.48948207 
     480    264.24939   -7203.8716   -7174.3942   -2661.2403    24681.648   0.49464966 
     490    265.03895   -7203.9596   -7174.3941   -2483.9795    24681.648   0.50051068 
     500     268.0228   -7204.2928   -7174.3944   -2130.0039    24681.648   0.50762008 
     510    269.68559   -7204.4783   -7174.3945   -1895.8231    24681.648   0.51677182 
     520     269.3401     -7204.44   -7174.3947   -1772.5691    24681.648   0.52791571 
     530      266.526   -7204.1254    -7174.394   -1820.7728    24681.648   0.53993524 
     540    268.21801   -7204.3142   -7174.3941   -1957.9364    24681.648   0.55113406 
     550    273.27905   -7204.8799   -7174.3952   -1952.1322    24681.648   0.56047872 
     560     270.7895   -7204.6017   -7174.3947   -1784.6397    24681.648   0.56820517 
     570    267.63087   -7204.2482   -7174.3935    -1644.341    24681.648   0.57439114 
     580    274.75017   -7205.0438    -7174.395   -1642.7538    24681.648   0.57908351 
     590    278.06846    -7205.414    -7174.395   -1634.7568    24681.648   0.58273182 
     600    275.33483   -7205.1086   -7174.3946   -1546.2732    24681.648   0.58557023 
     610    272.73058   -7204.8178   -7174.3943   -1362.5514    24681.648   0.58813395 
     620     275.6395   -7205.1428   -7174.3948   -1228.8054    24681.648   0.59107932 
     630    277.82637   -7205.3871   -7174.3952    -1223.228    24681.648   0.59521422 
     640    275.21147   -7205.0945   -7174.3942   -1328.0133    24681.648   0.60059579 
     650    276.76341   -7205.2679   -7174.3945   -1587.9159    24681.648   0.60632225 
     660    280.29592   -7205.6626   -7174.3951   -1876.3308    24681.648   0.61197812 
     670    278.94874   -7205.5114   -7174.3943   -1988.9252    24681.648    0.6176124 
     680    279.62887   -7205.5876   -7174.3946    -1854.874    24681.648   0.62312175 
     690    278.35671   -7205.4465   -7174.3954     -1626.67    24681.648   0.62896185 
     700    269.37243   -7204.4429    -7174.394   -1418.2553    24681.648   0.63559784 
     710    266.45521   -7204.1181   -7174.3946   -1472.5221    24681.648   0.64215216 
     720    265.84495   -7204.0503   -7174.3949   -1709.2555    24681.648   0.64781464 
     730    263.59964   -7203.7992   -7174.3943   -1848.2285    24681.648   0.65193307 
     740    266.57701   -7204.1317   -7174.3946   -1895.4286    24681.648   0.65412735 
     750    271.76415   -7204.7106   -7174.3949   -1968.2386    24681.648   0.65547825 
     760      275.029   -7205.0755   -7174.3956   -2013.6107    24681.648   0.65726746 
     770     271.0675   -7204.6326   -7174.3946   -1846.7085    24681.648   0.65945095 
     780    271.60028    -7204.692   -7174.3946   -1756.0037    24681.648   0.66122261 
     790    276.79844    -7205.273   -7174.3957   -1802.9901    24681.648   0.66298127 
     800    272.61055    -7204.805   -7174.3949   -1872.3043    24681.648    0.6665383 
     810    266.19836   -7204.0894   -7174.3945   -1968.7863    24681.648   0.67221854 
     820    263.38752   -7203.7759   -7174.3946   -2141.6217    24681.648   0.67891951 
     830    264.77149   -7203.9298   -7174.3941   -2417.3308    24681.648   0.68520732 
     840    272.58637    -7204.803   -7174.3955   -2752.0813    24681.648   0.69025418 
     850    272.65549   -7204.8097   -7174.3946   -2928.1991    24681.648   0.69428736 
     860    273.59711   -7204.9144   -7174.3942   -2900.3005    24681.648    0.6970968 
     870    278.19824   -7205.4288   -7174.3953    -2707.162    24681.648    0.6996263 
     880    276.53864   -7205.2424   -7174.3941   -2500.9253    24681.648   0.70364771 
     890    279.23786   -7205.5442   -7174.3948   -2415.7746    24681.648   0.70924281 
     900    280.95843   -7205.7363    -7174.395    -2364.961    24681.648   0.71595523 
     910    278.43861   -7205.4551   -7174.3949   -2292.0963    24681.648   0.72276909 
     920    274.58034   -7205.0239    -7174.394   -2145.7325    24681.648    0.7279473 
     930    277.12312   -7205.3082   -7174.3947    -2157.167    24681.648   0.73037655 
     940    279.73337   -7205.5996   -7174.3949   -2169.2816    24681.648   0.73135876 
     950    279.22126   -7205.5421   -7174.3945   -2172.7349    24681.648   0.73362662 
     960    279.34211   -7205.5558   -7174.3947    -2162.325    24681.648   0.73879001 
     970    278.76831   -7205.4918   -7174.3948   -2041.5721    24681.648   0.74667297 
     980    277.67235   -7205.3697   -7174.3949   -1885.6852    24681.648   0.75580397 
     990    276.23383    -7205.209   -7174.3947   -1855.7306    24681.648   0.76364754 
    1000    276.65338   -7205.2559   -7174.3948   -1804.2694    24681.648   0.76766421 
    1010    277.15823    -7205.313   -7174.3956    -1670.983    24681.648   0.76766874 
    1020    269.42126   -7204.4494   -7174.3951   -1424.7931    24681.648   0.76610705 
    1030     260.7554   -7203.4818   -7174.3941   -1215.0065    24681.648   0.76554395 
    1040    261.30906   -7203.5441   -7174.3947   -1098.2689    24681.648   0.76665088 
    1050    265.20034   -7203.9786   -7174.3951   -1049.7855    24681.648   0.76872121 
    1060    265.37142   -7203.9979   -7174.3953     -1168.93    24681.648    0.7710414 
    1070    262.30523   -7203.6545    -7174.394   -1216.5846    24681.648   0.77312784 
    1080     269.2805   -7204.4336   -7174.3949   -1303.2806    24681.648   0.77456841 
    1090    278.21465   -7205.4311   -7174.3958   -1474.4916    24681.648   0.77578562 
    1100    279.83218   -7205.6107    -7174.395   -1575.5621    24681.648   0.77731718 
    1110    283.74367   -7206.0469   -7174.3949   -1579.9493    24681.648   0.77887111 
    1120    290.78719   -7206.8334   -7174.3957   -1573.7467    24681.648   0.78005841 
    1130    290.95381   -7206.8511   -7174.3948   -1519.3089    24681.648   0.78128493 
    1140    291.42672   -7206.9042   -7174.3951   -1587.1629    24681.648   0.78343187 
    1150    288.83961    -7206.616   -7174.3955   -1727.5352    24681.648   0.78763344 
    1160    278.98488   -7205.5156   -7174.3944   -1780.0997    24681.648   0.79353187 
    1170     274.5083   -7205.0159   -7174.3941   -1742.9948    24681.648   0.79894507 
    1180    278.08142   -7205.4157   -7174.3953   -1700.4448    24681.648   0.80276226 
    1190    278.86175    -7205.502   -7174.3946   -1575.2201    24681.648    0.8050797 
    1200    282.48118   -7205.9064   -7174.3952   -1531.0337    24681.648   0.80550341 
    1210     282.2015   -7205.8756   -7174.3956   -1582.1964    24681.648    0.8047093 
    1220    273.66019   -7204.9216   -7174.3943   -1443.9202    24681.648   0.80424724 
    1230    271.02344   -7204.6278   -7174.3947   -1294.8219    24681.648   0.80553838 
    1240    273.21828   -7204.8729    -7174.395   -1344.7406    24681.648   0.80963811 
    1250    274.53804   -7205.0205   -7174.3953   -1557.8461    24681.648   0.81626207 
    1260    273.33761   -7204.8857   -7174.3945   -1709.4029    24681.648    0.8238996 
    1270    277.03845    -7205.299   -7174.3949   -1861.8941    24681.648   0.83066888 
    1280    279.60921   -7205.5866   -7174.3958   -1776.8315    24681.648   0.83577326 
    1290     271.8553   -7204.7208   -7174.3949   -1451.3285    24681.648    0.8390946 
    1300    264.41726   -7203.8899   -7174.3937   -1174.9198    24681.648   0.84015079 
    1310    270.14381   -7204.5298   -7174.3948   -1305.4319    24681.648   0.83955817 
    1320    276.28563    -7205.216   -7174.3959   -1616.8447    24681.648    0.8394972 
    1330    269.37516    -7204.444   -7174.3948   -1792.2063    24681.648   0.84108811 
    1340    263.66565    -7203.806   -7174.3937   -1787.5686    24681.648   0.84324181 
    1350    271.75636   -7204.7105   -7174.3956   -1789.9886    24681.648   0.84491174 
    1360    274.27239   -7204.9909   -7174.3954   -1904.3466    24681.648   0.84675977 
    1370    271.14124   -7204.6406   -7174.3944   -2044.7094    24681.648   0.84884467 
    1380    273.68352    -7204.925   -7174.3952   -2173.0979    24681.648   0.85060846 
    1390    275.02452   -7205.0744    -7174.395   -2215.3954    24681.648   0.85231893 
    1400    276.25601   -7205.2118    -7174.395   -2238.0373    24681.648   0.85406463 
    1410    278.84188   -7205.4999   -7174.3947   -2167.4859    24681.648   0.85604751 
    1420    283.63171   -7206.0351   -7174.3956   -2106.7356    24681.648   0.85860197 
    1430     281.5104   -7205.7981   -7174.3952   -2039.7153    24681.648   0.86172051 
    1440    277.08643   -7205.3037   -7174.3943   -2134.4004    24681.648   0.86445233 
    1450    280.14663   -7205.6458    -7174.395   -2425.0475    24681.648   0.86616941 
    1460    284.16882   -7206.0946   -7174.3952   -2629.1536    24681.648   0.86801931 
    1470    286.02648   -7206.3014   -7174.3947   -2499.1716    24681.648   0.87115512 
    1480    288.85345   -7206.6176   -7174.3956   -2167.0023    24681.648   0.87530865 
    1490    284.31956   -7206.1114   -7174.3951   -1635.6837    24681.648   0.87953488 
    1500    278.98283   -7205.5151   -7174.3941    -1216.743    24681.648   0.88285916 
    1510    281.81212   -7205.8323   -7174.3957   -1229.4385    24681.648   0.88582692 
    1520    276.49173   -7205.2381   -7174.3951   -1562.5155    24681.648   0.89044229 
    1530    268.60167    -7204.357   -7174.3941   -1832.8137    24681.648   0.89739602 
    1540    268.44471   -7204.3404   -7174.3949   -2013.3452    24681.648   0.90578469 
    1550    268.16938   -7204.3093   -7174.3946   -2010.8653    24681.648   0.91410017 
    1560    269.46062   -7204.4535   -7174.3947   -1942.9791    24681.648   0.92102099 
    1570    272.53021   -7204.7961    -7174.395   -1895.4867    24681.648   0.92617748 
    1580    274.16463   -7204.9785   -7174.3951   -1823.6829    24681.648   0.92969488 
    1590    274.08365    -7204.969   -7174.3945   -1694.8776    24681.648   0.93183336 
    1600    276.38809   -7205.2266   -7174.3951   -1582.4042    24681.648   0.93327697 
    1610    276.47515   -7205.2358   -7174.3946    -1514.064    24681.648   0.93523754 
    1620    278.82635   -7205.4983   -7174.3948   -1527.2623    24681.648   0.93825527 
    1630    283.05477   -7205.9703   -7174.3951   -1480.4486    24681.648   0.94238563 
    1640    283.75544   -7206.0487   -7174.3953   -1428.7453    24681.648   0.94810451 
    1650    279.65577   -7205.5907   -7174.3946   -1482.0142    24681.648   0.95569667 
    1660    277.97149   -7205.4028   -7174.3947   -1644.7201    24681.648   0.96460041 
    1670    277.63235   -7205.3655   -7174.3952   -1799.5694    24681.648   0.97399532 
    1680     273.1457   -7204.8646   -7174.3948   -1807.2549    24681.648     0.982653 
    1690     269.1131   -7204.4145   -7174.3945    -1848.628    24681.648   0.98867138 
    1700    269.43844   -7204.4513    -7174.395   -2023.5742    24681.648   0.99116369 
    1710    269.78252   -7204.4896   -7174.3949   -2209.0436    24681.648    0.9917874 
    1720    270.65906   -7204.5872   -7174.3948   -2303.1156    24681.648   0.99313368 
    1730    273.04698    -7204.854   -7174.3952   -2347.4849    24681.648   0.99679692 
    1740    274.23892   -7204.9868   -7174.3951   -2237.2262    24681.648    1.0035992 
    1750    273.69441   -7204.9263   -7174.3952   -2020.2102    24681.648    1.0135583 
    1760    270.40125   -7204.5585   -7174.3949    -1788.634    24681.648    1.0251981 
    1770    270.68343   -7204.5897   -7174.3946   -1549.0244    24681.648    1.0353833 
    1780    277.90453   -7205.3964   -7174.3957    -1511.742    24681.648    1.0415834 
    1790    279.00509   -7205.5188   -7174.3954   -1597.8653    24681.648    1.0442507 
    1800    277.00732   -7205.2948   -7174.3942   -1788.7028    24681.648    1.0451598 
    1810    282.39257   -7205.8967   -7174.3954   -2040.7403    24681.648    1.0459368 
    1820    284.13814   -7206.0911   -7174.3951   -2280.9528    24681.648    1.0481335 
    1830    282.91429   -7205.9545   -7174.3949   -2430.6285    24681.648    1.0523919 
    1840     281.3318   -7205.7782   -7174.3952   -2306.2747    24681.648    1.0583276 
    1850    277.24801   -7205.3224    -7174.395   -2023.8294    24681.648    1.0646013 
    1860    275.86189   -7205.1669   -7174.3941   -1648.8281    24681.648    1.0693247 
    1870    285.01658   -7206.1898   -7174.3957   -1237.5386    24681.648    1.0720376 
    1880    287.69204   -7206.4885    -7174.396   -948.96764    24681.648    1.0743863 
    1890    280.11635   -7205.6423   -7174.3949   -885.51677    24681.648    1.0774135 
    1900    276.31656   -7205.2185    -7174.395   -989.28796    24681.648    1.0809193 
    1910      276.623   -7205.2529   -7174.3952   -1167.7604    24681.648    1.0845535 
    1920    277.67777   -7205.3704    -7174.395   -1316.9346    24681.648    1.0879417 
    1930    280.71277   -7205.7092   -7174.3953   -1469.0337    24681.648    1.0909294 
    1940    281.53928   -7205.8014   -7174.3953   -1673.5867    24681.648     1.094033 
    1950    279.58172   -7205.5827    -7174.395   -1827.7357    24681.648    1.0978665 
    1960    278.22672   -7205.4318   -7174.3952   -1824.7991    24681.648    1.1027058 
    1970    275.53555   -7205.1314    -7174.395    -1644.041    24681.648    1.1084664 
    1980    273.96064   -7204.9552   -7174.3945   -1378.9505    24681.648    1.1145371 
    1990    277.66865   -7205.3694    -7174.395   -1245.5747    24681.648    1.1207676 
    2000    280.84548   -7205.7241   -7174.3953   -1211.1794    24681.648    1.1274187 
Loop time of 1792.8 on 16 procs for 2000 steps with 864 atoms

Performance: 0.096 ns/day, 249.000 hours/ns, 1.116 timesteps/s
97.7% CPU use with 16 MPI tasks x 1 OpenMP threads

MPI task timing breakdown:
Section |  min time  |  avg time  |  max time  |%varavg| %total
---------------------------------------------------------------
Pair    | 637.39     | 1285.6     | 1616.5     | 749.5 | 71.71
Bond    | 0.00019503 | 0.00053026 | 0.001065   |   0.0 |  0.00
Neigh   | 0.018093   | 0.027476   | 0.039223   |   3.1 |  0.00
Comm    | 175.57     | 457.6      | 1095.4     |1204.3 | 25.52
Output  | 0.21598    | 28.094     | 86.113     | 509.3 |  1.57
Modify  | 0.011031   | 0.014455   | 0.021734   |   2.1 |  0.00
Other   |            | 21.51      |            |       |  1.20

Nlocal:        54.0000 ave          68 max          38 min
Histogram: 2 0 1 2 1 3 1 3 1 2
Nghost:        453.312 ave         541 max         363 min
Histogram: 1 1 1 3 2 1 4 1 1 1
Neighs:         0.00000 ave           0 max           0 min
Histogram: 16 0 0 0 0 0 0 0 0 0
FullNghs:      1935.12 ave        2876 max         990 min
Histogram: 2 0 2 1 4 1 2 1 2 1

Total # of neighbors = 30962
Ave neighs/atom = 35.835648
Ave special neighs/atom = 0.0000000
Neighbor list builds = 199
Dangerous builds = 198
unfix   1

velocity    all create 450.0 1312343 dist gaussian
fix     2 all npt temp 450.0 450.0 $(100.0*dt) aniso 0.0 1.01325 $(1000.0*dt)
fix     2 all npt temp 450.0 450.0 0.10000000000000000555 aniso 0.0 1.01325 $(1000.0*dt)
fix     2 all npt temp 450.0 450.0 0.10000000000000000555 aniso 0.0 1.01325 1
run     3000
Per MPI rank memory allocation (min/avg/max) = 8.894 | 8.901 | 8.907 Mbytes
Step Temp PotEng TotEng Press Volume c_msd[4] 
    2000          450   -7205.7241   -7155.5259   -394.58954    24681.648    1.1274187 
    2010    421.94104    -7202.583   -7155.5149   -254.37699    24681.015    1.1310546 
    2020    392.37037   -7199.2207   -7155.4512   -113.69082     24679.51    1.1362687 
    2030    386.68489   -7198.4215   -7155.2862   -132.00006    24677.568     1.141965 
    2040    369.78757   -7196.2462   -7154.9959   -85.069827     24675.21    1.1491074 
    2050    351.93865   -7193.8389   -7154.5796   -18.750284    24672.574    1.1567607 
    2060    356.07906   -7193.7621    -7154.041   -93.687128    24669.837     1.163322 
    2070    365.67462   -7194.2226   -7153.4311   -265.49359    24666.768    1.1686456 
    2080    371.99923   -7194.3456   -7152.8486   -462.64263    24662.793    1.1726937 
    2090    377.15615   -7194.4105   -7152.3381   -606.65934    24657.269     1.175862 
    2100    383.45594   -7194.6576   -7151.8826   -604.65303    24649.729    1.1791998 
    2110    385.20036   -7194.4118   -7151.4421     -348.321    24640.205     1.183408 
    2120    387.04944   -7194.1641   -7150.9882   -119.72466    24629.475    1.1880744 
    2130    388.96223     -7193.89   -7150.5006   -70.518986    24618.283    1.1929001 
    2140    393.06858   -7193.8251   -7149.9777   -131.17963    24606.788    1.1977715 
    2150    394.91187   -7193.4764   -7149.4234   -209.21196    24594.816    1.2019336 
    2160    392.24182   -7192.6045   -7148.8493   -322.27815    24582.107    1.2051799 
    2170    391.44077   -7191.9276   -7148.2618   -425.10981    24568.281     1.208399 
    2180    395.83881   -7191.8154    -7147.659   -348.12677    24553.032    1.2124402 
    2190    395.95014   -7191.2153   -7147.0464   -75.672349    24536.626    1.2177926 
    2200     394.2185   -7190.4074   -7146.4317    226.02054    24519.911    1.2234653 
    2210    402.84021   -7190.7458   -7145.8084    459.30016    24503.861    1.2278813 
    2220    404.38598   -7190.2895   -7145.1796    482.50337    24489.221    1.2316939 
    2230    396.12901   -7188.7518    -7144.563    452.82855    24476.141    1.2365656 
    2240    398.17549   -7188.3648   -7143.9477    306.04141    24464.487    1.2433061 
    2250     409.1004   -7188.9545   -7143.3187    38.355025    24453.768    1.2521051 
    2260    411.64223   -7188.6093     -7142.69   -145.62271    24443.155     1.262563 
    2270    417.70616   -7188.6706   -7142.0748   -149.42947    24432.063    1.2732658 
    2280    423.64444   -7188.7267   -7141.4685   -229.62141    24420.362    1.2828659 
    2290    421.63983   -7187.9137   -7140.8791   -213.33414    24407.853    1.2914261 
    2300    419.90559    -7187.144   -7140.3029    -189.1637    24394.551    1.2998254 
    2310    424.25897   -7187.0545   -7139.7277   -168.65735    24380.543    1.3083875 
    2320    428.37699   -7186.9393   -7139.1532   -22.518915    24365.944    1.3167755 
    2330    439.37934   -7187.5976   -7138.5842    240.56641    24351.215    1.3237471 
    2340    439.21396   -7187.0264   -7138.0314    683.43805    24337.263    1.3290193 
    2350    440.95767   -7186.6941   -7137.5046    980.91404    24325.451    1.3328043 
    2360    443.34916   -7186.4548   -7136.9986    984.71063    24316.716    1.3364722 
    2370    435.14002   -7185.0565    -7136.516    942.97294    24311.173    1.3417836 
    2380    437.65431   -7184.8665   -7136.0455    876.20069    24308.702    1.3486283 
    2390     451.0465   -7185.8895   -7135.5746    791.47532    24309.118    1.3569204 
    2400     457.4843   -7186.1549   -7135.1218    736.78797    24312.177    1.3678858 
    2410    460.94892   -7186.1304   -7134.7108    698.78437    24317.716    1.3817004 
    2420    446.68992   -7184.1707   -7134.3417     535.8453    24325.607    1.3973414 
    2430    437.02936   -7182.7466   -7133.9953    32.445196    24335.246    1.4119142 
    2440    440.04182   -7182.7245   -7133.6372   -350.94422    24345.121    1.4232543 
    2450    434.30992   -7181.7115   -7133.2636   -283.00534    24354.071     1.430747 
    2460    441.71265   -7182.1526   -7132.8789   -231.94196    24362.153      1.43343 
    2470    458.60847    -7183.646   -7132.4876   -159.83914    24369.555    1.4332665 
    2480    454.18522   -7182.7855   -7132.1204     234.6251    24376.609    1.4338628 
    2490    450.05521   -7181.9867   -7131.7824    557.95936    24384.509    1.4359942 
    2500     462.2284   -7183.0143    -7131.452    525.16919     24394.26    1.4394384 
    2510    474.65148   -7184.0899   -7131.1418    340.27237    24405.848    1.4445874 
    2520    479.66904   -7184.3953   -7130.8875    140.43038    24418.717    1.4513328 
    2530    475.92698   -7183.7963   -7130.7059    84.315546    24432.242    1.4589945 
    2540    479.74183   -7184.1099    -7130.594    37.908405    24446.193    1.4665145 
    2550    482.54105   -7184.3823   -7130.5541   -103.50621    24460.389    1.4730348 
    2560    466.55269   -7182.6279   -7130.5833   -18.960308    24474.457    1.4777075 
    2570    450.46334   -7180.9037   -7130.6539    182.23405    24488.651    1.4812536 
    2580    446.79491   -7180.5682   -7130.7276    237.67273    24503.561     1.486205 
    2590    449.45242   -7180.9277   -7130.7906    353.59514    24519.438    1.4948462 
    2600    446.64662   -7180.6696   -7130.8455    571.47418    24536.692    1.5073361 
    2610    448.09993   -7180.8784   -7130.8922    451.49722    24555.932    1.5209082 
    2620    460.28994   -7182.2852   -7130.9391      18.3862    24576.773    1.5327297 
    2630    464.12209   -7182.7782   -7131.0047     -277.203    24597.919    1.5421664 
    2640    464.43817    -7182.911   -7131.1022   -346.43052    24618.387    1.5496696 
    2650    465.00123   -7183.1052   -7131.2336   -323.91866    24637.874    1.5565598 
    2660    464.54828   -7183.2192   -7131.3981    -284.4738    24656.425    1.5638719 
    2670    467.85678    -7183.789   -7131.5989   -362.42652     24674.12    1.5713151 
    2680    466.47214   -7183.8789   -7131.8433   -587.40272    24690.676    1.5786353 
    2690     458.4632   -7183.2604   -7132.1182   -794.60804    24705.373    1.5858206 
    2700     471.2248     -7184.99   -7132.4242   -1134.1267    24717.432     1.593101 
    2710    479.07552   -7186.2239   -7132.7823   -1296.5584    24725.773    1.6018857 
    2720    473.04927   -7185.9682   -7133.1988    -1154.011     24729.81    1.6124138 
    2730    461.66398   -7185.1452   -7133.6459   -615.52941    24730.068    1.6235079 
    2740    454.80077   -7184.8236   -7134.0899   -159.28899    24728.204    1.6331241 
    2750    451.43961    -7184.874   -7134.5152    -81.12763    24725.665    1.6394841 
    2760    443.79793   -7184.4161   -7134.9098   -43.654066    24722.831    1.6430977 
    2770     433.6836   -7183.6351    -7135.257    109.00036    24719.879    1.6463452 
    2780    434.39796   -7184.0094   -7135.5517    42.108865    24717.213    1.6507179 
    2790    438.10961    -7184.673   -7135.8012   -245.37297    24714.617    1.6571326 
    2800    436.04831   -7184.6548    -7136.013   -426.73041    24711.202    1.6653392 
    2810    431.99842   -7184.3728   -7136.1827   -417.52601    24706.359    1.6740812 
    2820    440.44427   -7185.4498   -7136.3176   -410.50307    24700.043    1.6829653 
    2830    445.01423   -7186.0763   -7136.4343   -401.93592     24692.27    1.6918446 
    2840    436.93241    -7185.274   -7136.5335   -280.31265    24683.113    1.7000089 
    2850    438.27469   -7185.4985   -7136.6083   -300.08939    24672.867    1.7063225 
    2860    441.03669   -7185.8573    -7136.659   -354.67179    24661.488    1.7114047 
    2870    437.63826   -7185.5074   -7136.6882   -343.97726     24648.81    1.7162667 
    2880    436.71566     -7185.41   -7136.6937    -245.7601    24634.855    1.7209261 
    2890    429.52299   -7184.5809    -7136.667    10.954818    24619.974    1.7264754 
    2900    421.80765   -7183.6505   -7136.5972    183.08413    24604.934    1.7342746 
    2910    421.20092   -7183.4545   -7136.4689    91.904152    24590.269    1.7447402 
    2920    431.73069   -7184.4412    -7136.281   -124.67474    24575.716    1.7563978 
    2930    442.65123   -7185.4244    -7136.046   -301.88941    24560.572    1.7660802 
    2940    449.04381   -7185.8797   -7135.7882   -284.61981    24544.287    1.7718343 
    2950    445.43138   -7185.2128   -7135.5242   -1.9074129    24526.946    1.7745182 
    2960    430.83123   -7183.3088   -7135.2489    345.40112    24509.422    1.7758421 
    2970    437.04235   -7183.6999   -7134.9471     373.3347    24492.733    1.7762999 
    2980    454.53305   -7185.3213   -7134.6174    274.35511    24477.062    1.7779075 
    2990    460.49479   -7185.6653   -7134.2964    383.55711     24462.17     1.782834 
    3000    458.93525   -7185.2012   -7134.0063     736.1014    24448.464    1.7897838 
    3010    458.79402   -7184.9281   -7133.7489    806.22429    24436.965    1.7964689 
    3020    461.71718   -7185.0318   -7133.5266    661.05003    24427.956    1.8027329 
    3030    455.89608   -7184.1948   -7133.3389     635.7273    24421.079    1.8101896 
    3040    443.06273   -7182.5945   -7133.1702    744.71959    24416.302    1.8198698 
    3050    441.36836   -7182.2263   -7132.9909    773.73596    24413.941    1.8318386 
    3060    450.60008   -7183.0575   -7132.7924    774.15876    24414.137    1.8456618 
    3070    460.35301   -7183.9462   -7132.5931    786.33548    24416.947    1.8605069 
    3080    469.24682   -7184.7633   -7132.4181    930.60319    24422.492    1.8749813 
    3090    468.76326   -7184.5779   -7132.2866     1126.722    24431.279    1.8871017 
    3100    461.39426   -7183.6702    -7132.201    1150.6188    24443.944    1.8951266 
    3110    456.97237   -7183.1236   -7132.1476    971.29467    24460.616    1.8991415 
    3120    451.23269   -7182.4442   -7132.1085    702.72342    24480.829    1.9024576 
    3130    451.64275   -7182.4521   -7132.0707    319.53762    24503.722    1.9083015 
    3140    457.14632   -7183.0261   -7132.0308    21.592929     24528.12    1.9185699 
    3150    455.96697   -7182.8621   -7131.9983   -110.81924    24553.061    1.9334606 
    3160    452.38082   -7182.4406   -7131.9769   -83.633034    24578.109    1.9513063 
    3170    458.49929   -7183.1135   -7131.9672   -45.801782    24603.286    1.9692386 
    3180    462.37123   -7183.5553   -7131.9771   -94.344936    24628.695    1.9848056 
    3190    461.69057   -7183.5165   -7132.0143   -290.87226    24654.177    1.9975715 
    3200    460.94344   -7183.4967   -7132.0778   -614.88735     24679.05    2.0095138 
    3210    460.79623   -7183.5711   -7132.1686   -887.97672    24702.253    2.0228724 
    3220    460.37195   -7183.6463   -7132.2911   -1044.5411     24722.83     2.037577 
    3230    461.55621   -7183.9394   -7132.4521   -1071.1759    24740.202    2.0522334 
    3240    460.26968   -7184.0006   -7132.6569   -997.06566    24754.193    2.0661214 
    3250    453.10567    -7183.444   -7132.8994   -723.33977    24765.065    2.0777661 
    3260    452.11518   -7183.6014   -7133.1673   -768.38349     24773.52    2.0855117 
    3270    449.86235   -7183.6354   -7133.4526   -916.73811    24779.452    2.0906948 
    3280    446.29112   -7183.5264    -7133.742   -1101.0415    24782.305     2.096185 
    3290    454.77418   -7184.7728   -7134.0421    -1241.954    24781.401    2.1031534 
    3300    450.52377    -7184.607   -7134.3504   -973.57253    24776.338    2.1120675 
    3310    446.59193   -7184.4711   -7134.6531   -762.86813    24767.822    2.1210742 
    3320     447.6463   -7184.8817   -7134.9461   -896.80194    24756.426    2.1283183 
    3330    443.67434    -7184.724   -7135.2314   -944.24742    24741.792    2.1330211 
    3340    435.00705   -7184.0159   -7135.4902   -683.66166     24723.78    2.1342126 
    3350    435.86524   -7184.3283   -7135.7069   -285.13848    24703.194    2.1316516 
    3360    436.49482   -7184.5683   -7135.8767    48.156675    24681.305    2.1284667 
    3370    435.80667   -7184.6164   -7136.0015    223.20908    24659.226    2.1283375 
    3380    437.41904   -7184.8821   -7136.0874     158.0124    24637.529    2.1327642 
    3390    439.64291   -7185.1876   -7136.1447     -15.4957    24616.034    2.1410529 
    3400    436.13855   -7184.8304   -7136.1785   -55.503894    24594.226    2.1507646 
    3410    438.98416   -7185.1536   -7136.1843    85.039624    24571.984    2.1589002 
    3420    450.54754   -7186.4286   -7136.1693    211.88464     24549.71    2.1650761 
    3430     451.2188   -7186.4806   -7136.1464      454.648      24527.9    2.1702847 
    3440    452.07761   -7186.5543   -7136.1243    638.53661    24507.321     2.173394 
    3450     457.5306   -7187.1483   -7136.1101     623.1268    24488.586    2.1736791 
    3460     460.2917     -7187.46   -7136.1138    317.77017    24471.611    2.1731907 
    3470    461.91674   -7187.6678   -7136.1403    24.753958    24455.502    2.1739882 
    3480    459.76842   -7187.4761   -7136.1883   -81.458371    24439.358    2.1766498 
    3490    460.62441   -7187.6505   -7136.2671   -205.39486    24422.717    2.1817082 
    3500    459.17954    -7187.606   -7136.3838   -268.55874    24405.182    2.1893672 
    3510    454.75783   -7187.2674   -7136.5385   -207.34308    24386.546    2.1979102 
    3520    448.42982   -7186.7457   -7136.7227     128.1495    24367.065    2.2061414 
    3530    438.89915   -7185.8825   -7136.9226    698.01598    24347.836    2.2146073 
    3540    428.63571   -7184.9392   -7137.1242    1170.1158    24330.644    2.2236193 
    3550    425.32158   -7184.7649   -7137.3196    1421.5539    24317.058    2.2324578 
    3560    430.65811    -7185.555   -7137.5144    1477.9497    24307.952    2.2408802 
    3570    436.60694   -7186.4262    -7137.722    1478.5058    24303.618    2.2492285 
    3580    432.14179   -7186.1562   -7137.9501    1393.1165    24304.111    2.2565074 
    3590    422.71284   -7185.3389   -7138.1846    1167.5955    24309.205    2.2611761 
    3600    423.47424   -7185.6499   -7138.4107    667.68951    24318.165    2.2628808 
    3610    421.08245   -7185.5904    -7138.618    236.29129    24329.521    2.2632728 
    3620    417.29799   -7185.3468   -7138.7966   -9.3210103    24341.899    2.2642382 
    3630    410.76567   -7184.7469   -7138.9254   -122.42721    24354.484    2.2668372 
    3640    415.50788   -7185.3405     -7138.99    -346.1224    24366.833    2.2710021 
    3650    429.99594    -7186.957   -7138.9903   -711.41581    24378.174    2.2768975 
    3660    435.33571    -7187.499   -7138.9366   -821.50474    24387.383    2.2843628 
    3670    443.03323   -7188.2627   -7138.8417   -685.26055    24394.047    2.2913928 
    3680    454.93814   -7189.4696   -7138.7205   -446.11946    24398.521    2.2972396 
    3690    451.07499   -7188.9061    -7138.588     15.42829    24401.643    2.3030527 
    3700    445.89542   -7188.1887   -7138.4484    351.37544    24404.832    2.3075272 
    3710    447.12357    -7188.172   -7138.2947     410.0886    24409.164    2.3102219 
    3720    447.41749   -7188.0357   -7138.1257    211.43965    24414.853     2.312773 
    3730    449.90618   -7188.1292   -7137.9415   -173.95483     24421.29    2.3156604 
    3740    451.60162   -7188.1216   -7137.7447   -566.50811    24427.225    2.3195789 
    3750    447.38621   -7187.4474   -7137.5408   -409.19334    24431.543    2.3259506 
    3760    444.39377   -7186.8995   -7137.3268   -1.5754945    24434.636    2.3351472 
    3770    442.70453   -7186.4769   -7137.0925    240.53743    24437.712    2.3462858 
    3780    436.82468    -7185.562   -7136.8336    473.95146    24441.662    2.3570151 
    3790    442.20039   -7185.8773   -7136.5491    517.28291    24447.186     2.364203 
    3800    453.52356   -7186.8317   -7136.2404    471.20305    24454.496     2.367917 
    3810    466.46134   -7187.9672   -7135.9328    423.31009    24463.496    2.3716226 
    3820    466.40111   -7187.6809   -7135.6532    168.04609    24473.971    2.3793693 
    3830     464.3599   -7187.2172   -7135.4171   -137.72657    24485.132    2.3907837 
    3840    459.36595   -7186.4656   -7135.2226   -87.773431    24496.082    2.4017912 
    3850    459.02179   -7186.2691   -7135.0646    92.638482    24506.905    2.4095991 
    3860    452.62085   -7185.4179   -7134.9274    136.58523    24518.131    2.4168633 
    3870    445.91756   -7184.5377   -7134.7949    3.8775538    24529.887    2.4277864 
    3880    452.56039    -7185.138   -7134.6542   -265.91827    24541.746    2.4422308 
    3890    452.69953   -7185.0115   -7134.5122   -438.91773    24552.867      2.45802 
    3900    443.38785   -7183.8322   -7134.3716   -531.68017    24562.629    2.4742713 
    3910    449.90775   -7184.4173   -7134.2294    -591.0189    24570.701    2.4903492 
    3920    455.38272   -7184.8837   -7134.0851   -651.40724    24576.852    2.5057558 
    3930    460.59503   -7185.3336   -7133.9536   -701.76211    24580.878    2.5205131 
    3940    462.75498   -7185.4656   -7133.8445    -670.7472    24582.596    2.5355522 
    3950    457.21314   -7184.7615   -7133.7587   -497.01951    24582.095    2.5509638 
    3960    458.66885   -7184.8559   -7133.6907   -420.55968    24579.878    2.5637611 
    3970     452.2808    -7184.089   -7133.6363   -512.05516    24576.165    2.5712517 
    3980    442.62781   -7182.9617   -7133.5859   -553.20125    24570.709    2.5734496 
    3990    451.50594   -7183.8943   -7133.5281   -648.39251    24563.309    2.5726043 
    4000    460.60248   -7184.8509     -7133.47   -678.09835    24553.694    2.5731413 
    4010    454.96058   -7184.1731   -7133.4216   -683.97314    24541.726    2.5792108 
    4020    448.30714   -7183.3844   -7133.3751   -789.99315    24527.289    2.5912825 
    4030    444.29335   -7182.8709   -7133.3093    -711.5047    24510.118    2.6057947 
    4040    457.83642   -7184.2927   -7133.2204   -756.24126     24490.36    2.6182533 
    4050    470.23279   -7185.5829   -7133.1278   -741.31643    24467.917    2.6262946 
    4060    460.56978   -7184.4291   -7133.0518   -337.61403     24442.94    2.6291119 
    4070    452.64342   -7183.4732   -7132.9801   -11.706859    24416.612    2.6268388 
    4080    456.17229   -7183.7831   -7132.8964    14.239429    24389.961    2.6221359 
    4090    456.85986   -7183.7687   -7132.8053    31.250469    24363.182    2.6197017 
    4100    451.84583   -7183.1126   -7132.7085    31.082552    24336.339    2.6221121 
    4110    463.97118   -7184.3699   -7132.6132   -70.303841    24309.417    2.6279512 
    4120    466.85137   -7184.6132   -7132.5352    9.3729052    24282.178    2.6354614 
    4130    459.60567   -7183.7564   -7132.4867    39.076156     24254.81    2.6428841 
    4140    465.80075   -7184.4266   -7132.4658     28.14524    24227.431    2.6489785 
    4150    468.84469   -7184.7785   -7132.4782    234.78103    24200.082    2.6539332 
    4160    461.87211   -7184.0548   -7132.5323    566.43511    24173.387    2.6580585 
    4170    456.83856   -7183.5781   -7132.6171    746.27302    24148.363    2.6612472 
    4180     466.0316   -7184.7235   -7132.7369     672.7379    24125.563    2.6635299 
    4190    466.70993   -7184.9655   -7132.9033    570.68043    24104.834    2.6664451 
    4200    458.22522   -7184.2311   -7133.1154    512.87808    24085.863    2.6706181 
    4210    453.48459   -7183.9457   -7133.3588    600.53982    24068.487    2.6756235 
    4220    445.22303    -7183.278   -7133.6127    855.55187    24053.025    2.6812728 
    4230    443.22169    -7183.305    -7133.863    1128.1654    24040.256    2.6873805 
    4240     443.0734   -7183.5303   -7134.1048    1376.0649    24031.054    2.6934223 
    4250    442.01557   -7183.6384   -7134.3309    1494.6868    24026.227    2.6977971 
    4260    454.88821   -7185.2972   -7134.5537     1230.108    24026.101    2.7003266 
    4270    456.04383   -7185.6638   -7134.7915     968.1923    24029.951    2.7030646 
    4280    441.81005   -7184.3159   -7135.0313    978.25708    24037.056    2.7061471 
    4290    447.61082   -7185.1921   -7135.2604    834.69322    24047.345    2.7080535 
    4300     454.3536    -7186.171   -7135.4871    673.60145    24060.425     2.710023 
    4310    447.08527   -7185.5925   -7135.7195    812.83398    24075.886    2.7129221 
    4320    431.83642   -7184.1116   -7135.9396    1036.3653    24094.141    2.7148232 
    4330    420.54698   -7183.0266   -7136.1139    971.44222    24115.846    2.7145864 
    4340    434.06058   -7184.6529   -7136.2328    513.13754    24140.796     2.713636 
    4350    446.52923   -7186.1227   -7136.3116    37.045323    24167.627     2.715572 
    4360    438.40642   -7185.2748   -7136.3699   -76.543418    24194.912    2.7220752 
    4370    428.01135   -7184.1473    -7136.402     6.558546    24222.223    2.7307333 
    4380    434.49163   -7184.8643   -7136.3961   -16.628577    24249.751    2.7393752 
    4390    446.85363   -7186.2042   -7136.3571   -92.957187    24277.427    2.7490073 
    4400    450.57535   -7186.5674    -7136.305   -213.99646    24304.978    2.7609618 
    4410    451.92059   -7186.6636   -7136.2512    -536.6167    24331.957    2.7743655 
    4420    450.32385   -7186.4296   -7136.1953   -830.78161    24357.349    2.7880197 
    4430    454.03321   -7186.7877   -7136.1396    -1097.182    24380.138     2.802023 
    4440    456.40538   -7186.9982   -7136.0855   -1265.4266    24399.432    2.8181072 
    4450    451.14797   -7186.3581   -7136.0318   -1140.8088    24414.697    2.8373831 
    4460    449.73873   -7186.1397   -7135.9707   -981.60778    24426.221    2.8581035 
    4470    445.80004   -7185.6249   -7135.8952   -808.04793     24434.53    2.8767013 
    4480    441.85248   -7185.0935   -7135.8042   -787.46486    24440.137    2.8897115 
    4490    436.28993   -7184.3562   -7135.6874   -814.93868    24443.147    2.8957336 
    4500    438.55874   -7184.4486   -7135.5267   -1027.9587    24443.408    2.8954591 
    4510     453.2757   -7185.8747   -7135.3111   -1445.3295    24440.176    2.8916234 
    4520    462.13167   -7186.6101   -7135.0586   -1558.1686    24432.223    2.8879439 
    4530     456.4605   -7185.7105   -7134.7917   -1351.2632    24419.158     2.886165 
    4540    453.77615   -7185.1275    -7134.508   -962.82479    24401.634    2.8846374 
    4550    457.37486   -7185.2159    -7134.195   -483.68154    24380.953    2.8813686 
    4560     463.6896    -7185.591   -7133.8657   -217.32845    24358.633    2.8764626 
    4570    465.24641   -7185.4409    -7133.542   -258.87076    24335.527    2.8716325 
    4580    462.63514   -7184.8469   -7133.2392   -304.71636    24311.592    2.8671076 
    4590    462.64836   -7184.5625   -7132.9534    -215.1283    24286.745    2.8619024 
    4600    464.13465   -7184.4563   -7132.6814   -72.163944    24261.271    2.8570066 
    4610    464.48733   -7184.2425   -7132.4283    118.16426    24235.634    2.8547755 
    4620    467.48784   -7184.3501   -7132.2011    301.74672    24210.462    2.8556159 
    4630    466.31515   -7184.0264   -7132.0082    444.86494    24186.353    2.8582103 
    4640     464.6535   -7183.6837   -7131.8509    711.76875    24163.833    2.8605973 
    4650    471.86763   -7184.3702   -7131.7326    1019.9738    24143.734    2.8619271 
    4660    463.98339   -7183.4183   -7131.6603    1205.7189    24126.964    2.8636888 
    4670    450.46418   -7181.8731   -7131.6231    1308.0472    24114.143      2.86625 
    4680    454.20008   -7182.2663   -7131.5996    1216.5656     24105.56    2.8687991 
    4690    468.77199    -7183.886   -7131.5938    894.66601    24100.878    2.8714137 
    4700    473.97355   -7184.5071   -7131.6346    681.09085    24099.145    2.8739766 
    4710    453.11817   -7182.2709   -7131.7248    878.86362    24099.763    2.8762531 
    4720    439.78789   -7180.8919   -7131.8329    1071.2013     24103.22    2.8779631 
    4730    444.51858   -7181.5202   -7131.9335    1071.9069    24110.086    2.8804279 
    4740    455.01103   -7182.7974   -7132.0402    1114.5136    24120.442     2.886443 
    4750    456.24714   -7183.0671    -7132.172    1042.8315    24134.396    2.8953303 
    4760    463.11236   -7184.0059    -7132.345     593.6888    24151.626    2.9024529 
    4770    469.31396    -7184.931   -7132.5784    205.83381    24170.832    2.9054093 
    4780    466.38316   -7184.9223   -7132.8966    60.676791    24190.787    2.9050698 
    4790    454.45176   -7183.9868    -7133.292    95.770093    24210.999     2.904392 
    4800    450.10624   -7183.9519   -7133.7419    69.512489    24231.494    2.9063148 
    4810    454.03831   -7184.8792   -7134.2306   -152.04712    24252.146    2.9112427 
    4820    452.64673   -7185.2254    -7134.732   -641.07355    24272.197    2.9182257 
    4830    450.40077   -7185.4513   -7135.2084   -1115.7941    24290.126    2.9269296 
    4840    454.14551   -7186.3076    -7135.647   -1243.7384    24304.444    2.9384186 
    4850    455.40052   -7186.8438   -7136.0432   -1091.6859    24314.724    2.9526481 
    4860    459.39314    -7187.643    -7136.397   -1093.0543    24321.333    2.9665055 
    4870    459.96927   -7188.0305   -7136.7202   -1113.3546    24324.315    2.9763874 
    4880    442.60386   -7186.3763   -7137.0032   -1061.6963    24323.649    2.9801601 
    4890    429.12129   -7185.0858   -7137.2167    -1195.882    24319.439    2.9761076 
    4900    445.36136   -7187.0513   -7137.3706   -1501.9664    24311.256    2.9651193 
    4910    457.36719   -7188.5224   -7137.5024   -1651.2771    24298.193    2.9528059 
    4920     449.0067   -7187.7205   -7137.6331   -1334.8013    24279.872    2.9438557 
    4930    443.92021   -7187.2686   -7137.7487   -817.81077    24257.263    2.9384218 
    4940    445.71929   -7187.5603   -7137.8397    -184.9437    24232.093    2.9346921 
    4950    439.11526   -7186.8855   -7137.9015    423.26656    24206.408    2.9324257 
    4960    434.84676   -7186.4368    -7137.929    752.26165    24182.127    2.9309169 
    4970    445.51398   -7187.6277   -7137.9299    702.72864     24160.27    2.9286148 
    4980    449.94109   -7188.1117   -7137.9201    630.22354    24140.772    2.9259176 
    4990    447.87002   -7187.8715   -7137.9109    671.01907    24123.426    2.9233426 
    5000     442.6323   -7187.2746   -7137.8983    724.58595    24108.303    2.9221975 
Loop time of 2839.53 on 16 procs for 3000 steps with 864 atoms

Performance: 0.091 ns/day, 262.920 hours/ns, 1.057 timesteps/s
97.8% CPU use with 16 MPI tasks x 1 OpenMP threads

MPI task timing breakdown:
Section |  min time  |  avg time  |  max time  |%varavg| %total
---------------------------------------------------------------
Pair    | 1647       | 2359.9     | 2716.2     | 593.2 | 83.11
Bond    | 0.00028014 | 0.00076528 | 0.0014429  |   0.0 |  0.00
Neigh   | 0.029443   | 0.040518   | 0.052884   |   3.2 |  0.00
Comm    | 37.259     | 338.19     | 932.61     |1375.2 | 11.91
Output  | 0.20424    | 0.20815    | 0.26484    |   3.2 |  0.01
Modify  | 2.6815     | 141.17     | 301.8      | 915.8 |  4.97
Other   |            | 0.01997    |            |       |  0.00

Nlocal:        54.0000 ave          66 max          38 min
Histogram: 1 0 1 1 4 1 4 2 0 2
Nghost:        453.062 ave         512 max         375 min
Histogram: 1 1 0 2 1 4 1 3 1 2
Neighs:         0.00000 ave           0 max           0 min
Histogram: 16 0 0 0 0 0 0 0 0 0
FullNghs:      1942.38 ave        2748 max        1093 min
Histogram: 1 0 2 1 3 3 3 1 0 2

Total # of neighbors = 31078
Ave neighs/atom = 35.969907
Ave special neighs/atom = 0.0000000
Neighbor list builds = 300
Dangerous builds = 300
unfix   2

fix     3 all npt temp 450.0 450.0 $(100.0*dt) aniso 1.01325 1.01325 $(1000.0*dt)
fix     3 all npt temp 450.0 450.0 0.10000000000000000555 aniso 1.01325 1.01325 $(1000.0*dt)
fix     3 all npt temp 450.0 450.0 0.10000000000000000555 aniso 1.01325 1.01325 1
run     20000
Per MPI rank memory allocation (min/avg/max) = 8.895 | 8.901 | 8.907 Mbytes
Step Temp PotEng TotEng Press Volume c_msd[4] 
    5000     442.6323   -7187.2746   -7137.8983    724.58595    24108.303    2.9221975 
    5010    431.44281   -7186.0123   -7137.8842    704.08432    24109.489    2.9298721 
    5020    436.27647   -7186.5054   -7137.8381    471.10439    24112.906    2.9397566 
    5030    445.65757   -7187.4757    -7137.762    270.68889    24117.883    2.9493727 
    5040    443.91404   -7187.1892   -7137.6699    157.70297     24123.78    2.9563487 
    5050    446.53806   -7187.3785   -7137.5665   -95.171477    24130.158    2.9616074 
    5060    447.19853   -7187.3349   -7137.4493   -376.02235     24136.22    2.9684524 
    5070    435.60744   -7185.9089   -7137.3163    -353.0418     24141.18    2.9774024 
    5080    435.68769   -7185.7551   -7137.1535   -366.11026    24144.985    2.9855172 
    5090    436.87503   -7185.6769   -7136.9428   -276.53665    24147.654    2.9914844 
    5100    441.86983    -7185.981   -7136.6897   -224.75825    24149.406    2.9971225 
    5110    449.54098    -7186.542    -7136.395   -150.95471    24150.448    3.0059746 
    5120     449.2787   -7186.1856   -7136.0679     97.45144    24151.076    3.0195239 
    5130    445.92335   -7185.4591   -7135.7157    204.18721    24151.988    3.0354621 
    5140    462.20819   -7186.9082   -7135.3482   -143.68305    24153.426    3.0512619 
    5150    462.30745   -7186.5605   -7134.9894   -422.27179    24154.443    3.0670216 
    5160    448.67959   -7184.7188   -7134.6679   -557.82886     24154.13    3.0817516 
    5170    440.19324   -7183.4715   -7134.3673   -434.56814    24152.095     3.092726 
    5180    443.68187   -7183.5621   -7134.0687   -230.07659     24148.68    3.0977826 
    5190    455.03337   -7184.5334   -7133.7737   -43.107041    24144.521    3.0976303 
    5200    460.07471   -7184.8352   -7133.5132    128.08541    24140.214    3.0948541 
    5210    461.64226   -7184.8061   -7133.3092    297.42331     24136.32    3.0912063 
    5220    456.85166   -7184.1182   -7133.1557    437.39568    24133.391     3.087884 
    5230    469.13045   -7185.3778   -7133.0456    453.86383    24131.845    3.0863871 
    5240    469.40182   -7185.3433   -7132.9808    494.17936     24131.78    3.0891461 
    5250     460.3672   -7184.3176    -7132.963    622.77382    24133.367    3.0952575 
    5260    465.76432   -7184.9372   -7132.9804     527.7331    24136.919    3.1006656 
    5270    463.05102   -7184.6848   -7133.0308     364.3452    24142.202    3.1040804 
    5280    450.49364   -7183.3497   -7133.0964    45.165779    24148.651    3.1056434 
    5290    454.83084   -7183.8931    -7133.156   -454.86038     24155.22    3.1043101 
    5300    463.30593    -7184.902   -7133.2195   -855.19325    24160.348    3.1000173 
    5310    458.08128   -7184.3967   -7133.2971   -872.85819    24162.816    3.0929549 
    5320    457.72648   -7184.4464   -7133.3863   -766.95652    24162.472    3.0827668 
    5330    453.24467   -7184.0389   -7133.4787   -470.81691    24159.694    3.0711175 
    5340    452.87181    -7184.088   -7133.5694   -67.803956    24155.404    3.0602678 
    5350    459.46442   -7184.9163   -7133.6623    170.01833    24150.832     3.050183 
    5360     459.1233   -7184.9827   -7133.7668    202.28062    24146.732    3.0391128 
    5370    451.35301   -7184.2273   -7133.8782    359.78743     24143.33    3.0269465 
    5380    443.48155   -7183.4495   -7133.9784     512.5041    24141.091    3.0158524 
    5390     441.6924   -7183.3296   -7134.0582    445.91547    24140.446    3.0075688 
    5400    445.09091   -7183.7698   -7134.1192     356.8844    24141.252    3.0017829 
    5410    452.52716   -7184.6521    -7134.172    321.76179     24143.26    2.9979047 
    5420    457.88648   -7185.3089    -7134.231    157.00158    24146.292    2.9964396 
    5430    458.87172    -7185.492   -7134.3041   -139.64153    24149.813    2.9985282 
    5440    460.21778   -7185.7371   -7134.3991   -449.86541    24152.876    3.0043092 
    5450    450.62255   -7184.7799   -7134.5123   -501.66387    24154.564     3.011172 
    5460    440.73376   -7183.7909   -7134.6263   -499.04466    24154.639    3.0153374 
    5470    440.97539   -7183.9175    -7134.726   -461.04708    24153.123    3.0144233 
    5480    437.64596   -7183.6265   -7134.8065   -294.87668    24150.131    3.0089522 
    5490    435.31807   -7183.4218   -7134.8614   -212.32699    24146.137    3.0015622 
    5500    438.58783   -7183.8162   -7134.8911   -358.71327    24141.358     2.994842 
    5510    433.25915   -7183.2239   -7134.8932   -330.71768    24135.452    2.9899411 
    5520    432.19496   -7183.0744   -7134.8624   -310.31742    24128.433    2.9877028 
    5530    436.09945   -7183.4357   -7134.7881   -436.35673    24120.312    2.9901117 
    5540    448.20638   -7184.6713   -7134.6732   -542.53995    24110.737     2.996638 
    5550     460.5788   -7185.9134   -7134.5351   -602.42138    24099.353    3.0036425 
    5560    457.26314   -7185.4009   -7134.3925    -394.8238    24086.036    3.0071929 
    5570      456.122   -7185.1278   -7134.2467   -69.120225    24071.371    3.0054786 
    5580    458.36759   -7185.2163   -7134.0847     161.8216    24056.356    3.0001041 
    5590    465.28117   -7185.8146   -7133.9117    182.53681    24041.702    2.9954218 
    5600    468.36056   -7185.9837   -7133.7374    207.68831    24027.536    2.9949417 
    5610    466.42326   -7185.6021   -7133.5718    426.99124    24014.006    2.9994434 
    5620    464.78015   -7185.2621   -7133.4151    554.81586    24001.703    3.0076506 
    5630    466.42604   -7185.2978   -7133.2673    565.15569     23991.06    3.0173095 
    5640     471.5359   -7185.7367   -7133.1362    479.42837    23982.132     3.026185 
    5650    472.59772   -7185.7535   -7133.0345    409.05574     23974.71    3.0324361 
    5660    471.27688   -7185.5448   -7132.9732    315.84547    23968.534    3.0338473 
    5670    469.00777   -7185.2731   -7132.9545    237.27969    23963.324    3.0302003 
    5680    469.72387   -7185.3806   -7132.9822    2.3609571    23958.778    3.0252361 
    5690    472.08623   -7185.7232   -7133.0613   -187.16579    23954.211    3.0227089 
    5700    466.24957   -7185.2091   -7133.1982    72.455705    23949.141     3.024854 
    5710    452.25558    -7183.831   -7133.3812    361.72653    23944.246    3.0318065 
    5720    443.78927   -7183.0892   -7133.5838    513.89235    23940.434     3.041187 
    5730    449.68205   -7183.9563   -7133.7936     498.6528    23938.176    3.0503553 
    5740    457.97107    -7185.109   -7134.0216    441.12034    23937.481    3.0578787 
    5750    453.23858   -7184.8361   -7134.2766    547.64305    23938.263    3.0635729 
    5760    450.71635   -7184.8275   -7134.5494    630.82449    23940.808    3.0674969 
    5770    457.73398    -7185.903   -7134.8421    572.83349    23945.382    3.0696407 
    5780     452.6302   -7185.6418   -7135.1502    399.80945    23951.859     3.070584 
    5790     456.7036   -7186.4154   -7135.4694    65.731496    23959.673    3.0697209 
    5800     457.5974   -7186.8428   -7135.7971   -92.486188    23967.873    3.0674675 
    5810    448.91293   -7186.2022   -7136.1253   -94.648536    23975.923     3.065903 
    5820    440.99123   -7185.6219   -7136.4286    -107.9292    23983.782    3.0666966 
    5830    441.26248    -7185.922   -7136.6985   -201.17772    23991.393    3.0701181 
    5840    438.19831   -7185.8095   -7136.9278    -337.6704    23998.472    3.0758044 
    5850      441.156   -7186.3347   -7137.1231   -595.86574    24004.531    3.0816212 
    5860    436.34142   -7185.9593   -7137.2847   -652.37344    24008.817    3.0858601 
    5870    430.95249   -7185.4796   -7137.4062   -506.91551    24011.121    3.0878812 
    5880    432.37483   -7185.7163   -7137.4842   -333.27591    24011.831    3.0883648 
    5890    432.91837   -7185.8131   -7137.5204   -179.09003    24011.488    3.0879603 
    5900    439.15324   -7186.5115   -7137.5233   -248.56964    24010.512    3.0856755 
    5910    446.74022     -7187.34   -7137.5055   -548.61311    24008.655    3.0815993 
    5920    440.32281    -7186.595   -7137.4763   -631.52333    24005.063    3.0768659 
    5930    437.18642   -7186.1964   -7137.4276   -466.37307    23999.439    3.0714059 
    5940    451.50402   -7187.7215   -7137.3556    -357.1703    23992.187    3.0658991 
    5950    451.95219   -7187.6933   -7137.2773   -232.87499    23983.666    3.0628315 
    5960    437.09263   -7185.9543   -7137.1959   -70.885342    23974.248    3.0628729 
    5970    438.60895   -7186.0208   -7137.0933    53.224221    23964.421    3.0649853 
    5980    443.60462   -7186.4436   -7136.9588    69.512132    23954.547    3.0689718 
    5990    439.74287   -7185.8531   -7136.7992    150.64532    23944.744    3.0731855 
    6000    431.74525   -7184.7669   -7136.6051    232.73214    23935.261    3.0741726 
    6010    443.88916   -7185.8805    -7136.364    204.30839    23926.324     3.068781 
    6020    462.96085   -7187.7258   -7136.0818    207.43423    23917.882    3.0573829 
    6030    464.14366   -7187.5703   -7135.7944    346.52729    23909.995    3.0433026 
    6040    470.66902   -7188.0323   -7135.5284    346.90246     23903.03    3.0297966 
    6050    471.93195   -7187.9351   -7135.2904    359.49032    23897.068    3.0184648 
    6060    467.57547   -7187.2482   -7135.0894    327.00134    23892.143    3.0073923 
    6070    468.35928   -7187.1659   -7134.9198    257.71764    23888.182    2.9950743 
    6080    468.53224   -7187.0435    -7134.778    303.45226    23885.011    2.9835748 
    6090    460.87824   -7186.0723   -7134.6606    500.81114      23882.8    2.9771253 
    6100    454.83545   -7185.2933   -7134.5558    655.66817     23882.14    2.9774322 
    6110    457.22905   -7185.4539   -7134.4493    684.96633    23883.535    2.9811994 
    6120     457.2419   -7185.3438   -7134.3378    762.12421    23887.195    2.9844592 
    6130    459.96991   -7185.5306   -7134.2203    703.39119    23893.336     2.985569 
    6140    464.63614   -7185.9292   -7134.0983    756.25909    23901.895    2.9858637 
    6150    466.88642    -7186.067   -7133.9851    1015.1613    23913.116    2.9874093 
    6160     466.9609   -7185.9854   -7133.8952    1238.5881    23927.804    2.9917261 
    6170    465.04272   -7185.7108   -7133.8346    1229.5169    23946.697    2.9998514 
    6180    469.63624    -7186.197   -7133.8084    907.97303    23969.829    3.0108533 
    6190    470.54875   -7186.3147   -7133.8243    640.55763    23996.354    3.0243007 
    6200    459.19425   -7185.1115   -7133.8877    625.99891     24025.54    3.0395328 
    6210    458.19593    -7185.101   -7133.9886    290.65607    24057.201    3.0532421 
    6220    461.28085   -7185.5744   -7134.1178   -180.26548    24090.368    3.0634624 
    6230    456.13689   -7185.1631   -7134.2803   -551.62814    24123.566    3.0705761 
    6240    453.21776   -7185.0275   -7134.4703   -792.39491    24155.584    3.0762005 
    6250    455.62288   -7185.5089   -7134.6835   -1190.0009    24185.481    3.0832087 
    6260    454.72216    -7185.645     -7134.92   -1556.5206    24211.976    3.0931363 
    6270    448.18673   -7185.1722   -7135.1763   -1791.7678    24233.808    3.1057706 
    6280    437.92832   -7184.2837   -7135.4322   -2001.3604    24250.094    3.1210706 
    6290     444.2145   -7185.2295   -7135.6767   -2384.7455    24259.983    3.1370673 
    6300    452.15996   -7186.3654   -7135.9263   -2627.0438    24262.196    3.1515391 
    6310    444.34487   -7185.7541   -7136.1867     -2570.59    24255.835    3.1635212 
    6320     440.4394   -7185.5765   -7136.4448   -2464.0151    24240.881    3.1707666 
    6330    441.51237   -7185.9442   -7136.6929   -2400.2085    24217.531    3.1727433 
    6340    441.27455   -7186.1538    -7136.929   -2015.2007    24186.019     3.170889 
    6350      444.128   -7186.6872    -7137.144    -1401.393    24147.494    3.1659046 
    6360    452.73574   -7187.8433   -7137.3399   -847.75072    24103.823    3.1590681 
    6370    454.52286   -7188.2351   -7137.5324   -325.63491      24056.8    3.1527327 
    6380    437.02671   -7186.4536   -7137.7026     344.7298    24008.211    3.1491116 
    6390    437.58596   -7186.6438   -7137.8304    713.62642    23960.125    3.1484577 
    6400    447.81119   -7187.8833   -7137.9293    796.66402     23913.79    3.1507407 
    6410    443.28413   -7187.4657   -7138.0167    1038.7275    23869.644    3.1557863 
    6420    433.21379   -7186.4062   -7138.0806    1476.4558     23828.49    3.1607078 
    6430     438.5979   -7187.0364   -7138.1101    1844.1192    23791.687    3.1625604 
    6440    450.83629   -7188.4158   -7138.1243     1990.879    23760.404    3.1613315 
    6450     449.7336   -7188.3129   -7138.1445    2089.8328    23735.183    3.1586163 
    6460    441.39772   -7187.4078   -7138.1692    2201.3104    23716.391    3.1549011 
    6470    442.93602   -7187.5993   -7138.1891    2111.8476    23704.323    3.1489704 
    6480    453.04659   -7188.7455   -7138.2074    1991.3296    23698.786    3.1405637 
    6490    458.29436   -7189.3639   -7138.2405    1940.8982    23699.489    3.1313521 
    6500    452.58683   -7188.7883   -7138.3016    1914.2486    23706.338    3.1229213 
    6510    440.86326    -7187.553    -7138.374     1759.167    23719.259    3.1159134 
    6520    449.88528   -7188.6266   -7138.4412    1223.2703    23737.744    3.1101435 
    6530    456.97326    -7189.483   -7138.5069    665.16388    23760.263     3.104941 
    6540    444.06904   -7188.1192   -7138.5826    456.76752    23785.197     3.099466 
    6550    439.21739   -7187.6544    -7138.659    412.31044    23811.861    3.0943349 
    6560    445.78899   -7188.4539   -7138.7255    371.11261     23840.08    3.0919267 
    6570    447.24114   -7188.6813   -7138.7909    488.47252    23869.802    3.0944479 
    6580    450.46762   -7189.1143    -7138.864    429.58719    23901.295    3.1018692 
    6590     455.9714   -7189.8146   -7138.9503    63.856046    23934.326    3.1122887 
    6600    450.32589   -7189.2871   -7139.0526    -194.9569     23967.87    3.1235078 
    6610    452.01362   -7189.5979   -7139.1751    -355.0807    24001.079    3.1334582 
    6620    444.76643   -7188.9297   -7139.3153   -263.06665    24033.491     3.141799 
    6630     433.2312   -7187.7901   -7139.4625   -88.955398    24065.313    3.1481248 
    6640    431.89274   -7187.7719   -7139.5936   -15.665789    24097.022    3.1523746 
    6650    440.74541   -7188.8713   -7139.7055   -13.028752    24128.875    3.1547954 
    6660    443.00277   -7189.2223   -7139.8047    -65.44892    24160.864    3.1564624 
    6670    443.36162   -7189.3558   -7139.8981   -250.78809    24192.785    3.1593936 
    6680    438.76811   -7188.9231   -7139.9779   -572.75388    24224.038    3.1658263 
    6690    433.94849    -7188.443   -7140.0354   -961.05144    24253.549    3.1753112 
    6700    429.63576   -7187.9866   -7140.0601   -1276.6175     24280.08    3.1858172 
    6710    424.45795   -7187.3893   -7140.0403   -1460.8496    24302.591    3.1961054 
    6720    431.53558   -7188.1089   -7139.9704     -1641.17    24320.388    3.2044268 
    6730    440.84728   -7189.0352    -7139.858   -1688.9532     24332.86    3.2088983 
    6740    435.92241    -7188.343   -7139.7152   -1371.2322    24339.909    3.2088823 
    6750    438.11283   -7188.4132    -7139.541   -1050.6015    24342.455    3.2056685 
    6760    451.06075   -7189.6462   -7139.3297   -1039.2998    24341.424    3.2022918 
    6770    461.50342   -7190.5818   -7139.1004   -1151.8449    24336.903    3.2009076 
    6780    457.42081   -7189.9034   -7138.8775   -1007.3581    24328.631    3.2006904 
    6790    445.20524    -7188.325   -7138.6617   -604.32574    24317.052    3.1991648 
    6800    446.05228   -7188.1905   -7138.4327   -199.63501    24303.415    3.1950636 
    6810    455.35451   -7188.9782   -7138.1827   -14.012743    24288.982    3.1886082 
    6820    457.22453   -7188.9348   -7137.9307    14.437406    24274.407    3.1809372 
    6830    460.98399   -7189.1171   -7137.6936   -63.087671     24259.76    3.1728211 
    6840    459.51682   -7188.7336   -7137.4738    10.173153    24244.874    3.1653757 
    6850    463.13304   -7188.9381   -7137.2749   -38.766106    24229.915    3.1597454 
    6860    466.41701   -7189.1307   -7137.1012   -150.10514    24214.731    3.1554943 
    6870    459.22274   -7188.1845   -7136.9575    52.914227     24199.08    3.1508238 
    6880    455.56108   -7187.6505    -7136.832    369.15531    24183.547     3.145704 
    6890    452.49482   -7187.1881   -7136.7116    606.76083    24169.125    3.1430054 
    6900     452.7411   -7187.0975   -7136.5936    769.54803    24156.586     3.143783 
    6910    454.73991   -7187.2044   -7136.4775    938.82469    24146.502    3.1452965 
    6920    457.11064   -7187.3615   -7136.3701    877.77554    24139.355    3.1456962 
    6930     466.6484   -7188.3349   -7136.2796    563.53786    24134.969    3.1439972 
    6940    481.59048   -7189.9506   -7136.2285    12.667058    24132.318    3.1397982 
    6950    477.53094    -7189.514   -7136.2447   -150.36504    24129.827    3.1348222 
    6960    458.25523   -7187.4424   -7136.3233    7.7393735    24126.924    3.1325806 
    6970    441.00846   -7185.6229   -7136.4277    151.66399    24124.015    3.1361493 
    6980    431.80014    -7184.688     -7136.52    342.49404     24121.61    3.1445549 
    6990    443.73423   -7186.0909   -7136.5917    426.53994    24120.282     3.156033 
    7000     452.3124   -7187.1145   -7136.6583    517.33259    24120.347    3.1700106 
    7010    450.73617   -7187.0219   -7136.7416    498.80724    24122.062    3.1836135 
    7020    454.48729   -7187.5482   -7136.8494     392.5048    24125.413    3.1930858 
    7030    457.43894   -7188.0188   -7136.9908    319.70791    24130.109     3.197064 
    7040    452.32811   -7187.6272   -7137.1694    312.82799    24135.906    3.1960734 
    7050    457.19116    -7188.391   -7137.3906    184.43781    24142.716    3.1912037 
    7060    464.09871   -7189.4412   -7137.6703    130.65345    24150.205    3.1847107 
    7070    460.39518   -7189.3791   -7138.0213    144.38568    24158.203    3.1793465 
    7080    449.14385   -7188.5271   -7138.4245    93.553511    24166.723    3.1757579 
    7090    439.87309   -7187.9162   -7138.8477    83.961904    24175.634    3.1740186 
    7100    429.83822   -7187.1988   -7139.2497    171.34612    24184.932     3.175293 
    7110    432.79241   -7187.8824   -7139.6037    185.81554    24194.853    3.1788789 
    7120    444.04778   -7189.4493   -7139.9151    79.858689     24205.42    3.1829706 
    7130    448.55189   -7190.2371   -7140.2005  -0.97509213    24216.347    3.1852311 
    7140    446.04434   -7190.2235   -7140.4666   -128.37469    24227.358    3.1853942 
    7150    441.71187   -7189.9779   -7140.7043   -528.11854    24237.937    3.1848474 
    7160    441.88253   -7190.2015   -7140.9088   -926.73567    24246.856    3.1839469 
    7170    439.85804   -7190.1494   -7141.0826   -905.86762    24252.905    3.1828644 
    7180    435.05707   -7189.7555   -7141.2242   -526.16365    24256.102    3.1823304 
    7190    424.62583   -7188.6879   -7141.3202   -19.766423     24257.64    3.1837728 
    7200    421.63509   -7188.3961    -7141.362    207.69008     24259.04    3.1880482 
    7210    431.04343   -7189.4331   -7141.3496    103.84748    24261.051    3.1945996 
    7220    446.63359   -7191.1236   -7141.3009   -224.50434    24263.369    3.2024268 
    7230     451.2651    -7191.581   -7141.2417   -574.43929    24264.948    3.2107255 
    7240    445.42318    -7190.872   -7141.1843   -538.11281    24264.762    3.2171644 
    7250    439.71982   -7190.1688   -7141.1174   -201.60876    24262.892    3.2188947 
    7260    444.25743   -7190.5848   -7141.0272    53.253068    24260.322    3.2156224 
    7270    445.12643   -7190.5725    -7140.918    84.052736    24257.862    3.2105867 
    7280    427.97121   -7188.5298    -7140.789   -64.434622    24255.616     3.207038 
    7290    425.82348   -7188.1175   -7140.6162   -431.06778    24253.077    3.2056237 
    7300    441.15996   -7189.5962   -7140.3842   -851.53838    24249.091     3.207399 
    7310    453.88031   -7190.7472   -7140.1161   -1126.7536    24242.319    3.2127488 
    7320    459.34005   -7191.0823   -7139.8422   -1135.5995    24231.895    3.2191801 
    7330    460.80752   -7190.9845   -7139.5807   -866.28768    24217.793    3.2248274 
    7340    453.03286   -7189.8695    -7139.333   -438.56936     24200.85    3.2308532 
    7350    453.33318   -7189.6612   -7139.0912   -107.76098    24182.384    3.2370053 
    7360    464.65376   -7190.6859   -7138.8531    18.388133     24163.45    3.2420169 
    7370    459.53676   -7189.8958   -7138.6338    49.245901    24144.504    3.2470051 
    7380    451.81736   -7188.8382   -7138.4373   -9.0611991    24125.628     3.253486 
    7390    449.06575   -7188.3386   -7138.2446    4.1883694    24106.678    3.2614955 
    7400    448.99609   -7188.1288   -7138.0426    206.12491    24087.736    3.2714543 
    7410    452.86494   -7188.3454   -7137.8276    447.92929    24069.414    3.2847608 
    7420    449.45691   -7187.7378   -7137.6002    748.02354    24052.497    3.3012753 
    7430    454.40382   -7188.0519   -7137.3625    857.96197    24037.875    3.3173176 
    7440    464.19602   -7188.9013   -7137.1196    727.77183    24025.907    3.3303353 
    7450    453.30578    -7187.452   -7136.8851    709.63162    24016.271    3.3409881 
    7460     440.5087    -7185.783   -7136.6436    700.31435    24008.877    3.3485116 
    7470    450.22293   -7186.5897   -7136.3666    461.45557     24003.64    3.3520432 
    7480    455.03012   -7186.8055   -7136.0462    409.37097    23999.937     3.352771 
    7490    449.04321   -7185.7826   -7135.6911    470.56412    23997.584    3.3530721 
    7500    456.11429   -7186.1726   -7135.2924    280.30024    23996.654    3.3555483 
    7510    468.08351   -7187.0588   -7134.8434     50.01247    23996.614    3.3610767 
    7520    472.54919    -7187.087   -7134.3735   -21.178703    23996.799    3.3677898 
    7530    464.24334   -7185.6982   -7133.9112    54.182723    23996.955    3.3733915 
    7540    464.44046   -7185.2768   -7133.4678    227.88607    23997.305    3.3781496 
    7550    465.86847   -7185.0146   -7133.0463      319.839    23998.369    3.3854436 
    7560    459.76121   -7183.9513   -7132.6642     393.5209    24000.473    3.3964393 
    7570    456.27718   -7183.2218   -7132.3234    579.04825    24003.889    3.4069779 
    7580    463.42678   -7183.7187   -7132.0227    829.84664    24009.232    3.4115461 
    7590    466.22125   -7183.7825   -7131.7749    904.92263    24017.239    3.4092674 
    7600    471.54374   -7184.1962   -7131.5947    787.74314    24028.163    3.4031437 
    7610    468.69817   -7183.7668   -7131.4828     727.8238    24041.734    3.3948001 
    7620    466.42379   -7183.4628   -7131.4325    515.30127    24057.703    3.3843919 
    7630    471.86856     -7184.07   -7131.4323    135.57795    24075.426    3.3740312 
    7640     472.8849   -7184.2262   -7131.4752   -214.68429    24093.739    3.3659264 
    7650    477.08606   -7184.7775   -7131.5578   -443.91138    24111.533    3.3609176 
    7660    478.47488   -7185.0486    -7131.674   -365.08905    24128.122    3.3599348 
    7670     476.7105   -7185.0044   -7131.8266   -175.19881    24143.667    3.3625238 
    7680    467.47795   -7184.1498   -7132.0019   -5.6749939    24158.735    3.3662495 
    7690    463.89566   -7183.9344   -7132.1861    71.723703    24173.836    3.3680907 
    7700    459.73061   -7183.6544   -7132.3708   -11.059897    24189.212    3.3671862 
    7710    460.07737   -7183.8747   -7132.5524   -289.40904    24204.573    3.3640181 
    7720    468.88391   -7185.0481   -7132.7434   -456.92998    24219.102    3.3589086 
    7730    471.09718   -7185.5148   -7132.9632   -322.19421    24232.322    3.3533634 
    7740    470.48856   -7185.6954   -7133.2117   -410.86179    24244.477    3.3506829 
    7750    475.44171   -7186.5283   -7133.4921   -626.11142    24255.295     3.353298 
    7760    465.42712   -7185.7132   -7133.7941    -526.5562    24264.204    3.3601543 
    7770    463.34673   -7185.7845   -7134.0975   -584.95021    24271.366    3.3662743 
    7780    471.34907   -7186.9855   -7134.4058   -920.69718    24276.532    3.3689019 
    7790    468.36882    -7186.979   -7134.7318   -966.22483    24278.773    3.3701273 
    7800    465.42542   -7186.9929    -7135.074    -911.5393    24277.862    3.3739447 
    7810    461.90514   -7186.9443    -7135.418   -1079.7691    24273.876    3.3846764 
    7820    460.87972   -7187.1679   -7135.7561   -1338.6444    24266.323     3.402286 
    7830    456.53298    -7187.016   -7136.0891   -1474.6455    24254.436    3.4218406 
    7840    442.00755   -7185.7034   -7136.3968   -1388.8607    24237.827     3.438031 
    7850    433.82467   -7185.0488   -7136.6551   -1222.4663    24216.733    3.4466981 
    7860    436.06969   -7185.4988   -7136.8546   -851.02951    24191.772    3.4471095 
    7870    442.60249   -7186.3763   -7137.0033   -335.79948    24164.171    3.4425077 
    7880    449.10029   -7187.2219   -7137.1241    196.36376    24135.596    3.4375707 
    7890    443.83144   -7186.7369   -7137.2268    804.76325    24107.807    3.4358769 
    7900    439.60447   -7186.3424   -7137.3038    1298.8942    24082.702    3.4379395 
    7910    456.14665   -7188.2487   -7137.3649    1408.5305    24061.781    3.4416918 
    7920    470.78393   -7189.9623   -7137.4456    1485.3166    24045.482    3.4451546 
    7930    461.88862   -7189.0914    -7137.567    1704.3557     24034.08    3.4478039 
    7940    452.77579   -7188.2293   -7137.7214    1808.9998    24028.156    3.4492102 
    7950    444.26349   -7187.4416   -7137.8833    1915.6231     24028.08    3.4485838 
    7960     446.2261   -7187.8188   -7138.0416    1841.4268    24034.143      3.44512 
    7970    451.27318   -7188.5399   -7138.1997    1439.9191    24046.048     3.440156 
    7980    446.78063   -7188.1984   -7138.3594    961.84376    24062.559    3.4364998 
    7990    438.22316   -7187.3931   -7138.5086    774.00721    24082.262    3.4367256 
    8000    436.68275   -7187.3451   -7138.6325    611.28682    24104.477    3.4411375 
    8010    446.72319   -7188.5665   -7138.7339    319.57569    24128.628    3.4485913 
    8020    450.12497   -7189.0392   -7138.8271    201.95212    24153.868    3.4581407 
    8030    448.27992   -7188.9338   -7138.9275    335.31015     24179.84    3.4688235 
    8040    442.12847   -7188.3509   -7139.0308    387.55152    24206.876     3.480223 
    8050     439.6315   -7188.1629   -7139.1214    72.759281    24235.072    3.4920126 
    8060    437.36548   -7187.9727   -7139.1839   -394.44496    24263.469     3.503171 
    8070    437.74984   -7188.0454   -7139.2138   -741.75119    24290.591    3.5118163 
    8080    444.04258   -7188.7497   -7139.2161   -920.61808    24315.309    3.5180076 
    8090     448.6678   -7189.2543   -7139.2047   -1103.1992    24336.974    3.5243558 
    8100    445.36972   -7188.8709   -7139.1892   -1224.4487     24354.98      3.53318 
    8110    440.70708   -7188.3263   -7139.1648   -1076.3226    24369.012    3.5453527 
    8120    444.29117   -7188.6818   -7139.1205   -924.06613    24379.462     3.559381 
    8130    445.10853   -7188.7076    -7139.055   -707.81419    24386.864    3.5719814 
    8140    440.83242   -7188.1389   -7138.9634   -500.10152    24391.918    3.5788546 
    8150    450.39316    -7189.082     -7138.84   -580.86868    24395.217    3.5778087 
    8160     448.1157   -7188.6737   -7138.6858   -592.20048    24396.626    3.5718876 
    8170    444.07754   -7188.0438   -7138.5063   -662.40927    24396.038    3.5652433 
    8180    451.53344   -7188.6613   -7138.2921    -788.8859    24393.248    3.5596178 
    8190    459.05485   -7189.2573    -7138.049   -981.59592    24387.821    3.5549589 
    8200    461.39583   -7189.2652   -7137.7958   -1153.7885    24379.166    3.5506718 
    8210    451.68563   -7187.9289   -7137.5427   -1192.9865    24366.733    3.5457621 
    8220    444.22255   -7186.8328   -7137.2792   -990.40965    24350.448    3.5389442 
    8230    450.58984   -7187.2523   -7136.9883   -731.43534    24330.917    3.5314088 
    8240    448.48193   -7186.7002   -7136.6714   -477.74663    24308.996    3.5269727 
    8250    451.85703   -7186.7456   -7136.3402   -440.90109    24285.455    3.5273281 
    8260    455.64779   -7186.8302    -7136.002   -263.97528     24260.55    3.5323406 
    8270    453.53862   -7186.2638   -7135.6709    12.550964    24234.834    3.5404652 
    8280    465.11567    -7187.242   -7135.3576    213.31075    24209.166    3.5498643 
    8290    468.22138   -7187.3088    -7135.078    534.39104    24184.269    3.5599357 
    8300    468.82841   -7187.1463   -7134.8477     726.9081    24161.111    3.5687473 
    8310    478.84179   -7188.0898   -7134.6743    694.41062    24140.285    3.5754532 
    8320    474.99403   -7187.5538   -7134.5675    777.96787    24121.786    3.5816402 
    8330    461.99525   -7186.0557   -7134.5194    899.63838    24105.856    3.5880758 
    8340    462.29796   -7186.0767   -7134.5067    936.74345    24092.845    3.5939357 
    8350    462.96794   -7186.1662   -7134.5214    1078.6381    24082.905    3.5999184 
    8360    456.91568   -7185.5345   -7134.5649    1327.2188    24076.488    3.6082908 
    8370    452.53551     -7185.11   -7134.6289    1454.2007    24074.338    3.6201909 
    8380    460.33342    -7186.057   -7134.7061    1157.8789    24076.769    3.6343893 
    8390    477.64358   -7188.1014   -7134.8196    476.38078    24082.824    3.6488801 
    8400    466.76799   -7187.0526   -7134.9839    246.85714    24090.597    3.6616353 
    8410    461.88523    -7186.721    -7135.197    245.50469    24099.262    3.6692162 
    8420    461.39518   -7186.9142   -7135.4449   -22.905038    24108.648     3.672052 
    8430    462.51248   -7187.3228   -7135.7288   -288.00417    24117.989    3.6733211 
    8440    462.00729   -7187.5915   -7136.0539   -336.02354    24126.478    3.6744995 
    8450    454.44093   -7187.0998   -7136.4062   -328.64748    24133.924    3.6764188 
    8460     458.0067    -7187.864   -7136.7726   -667.08312    24140.209    3.6805948 
    8470     458.6741   -7188.3147    -7137.149   -985.04067    24144.354    3.6879252 
[...]
   22890     437.3944    -7191.114    -7142.322    -1333.464    24421.131    5.7227586 
   22900    430.76657   -7190.5484   -7142.4957   -1109.4905    24406.805    5.7159178 
   22910    431.68427   -7190.7813   -7142.6263   -768.54232    24389.083    5.7065055 
   22920    437.75345   -7191.5473   -7142.7153   -378.16017    24369.154    5.6972772 
   22930    440.27376   -7191.8852    -7142.772      28.4819    24348.343    5.6929879 
   22940    442.68022   -7192.1875   -7142.8058    265.36839    24327.935    5.6942665 
   22950    447.10307   -7192.7014   -7142.8264    259.23859     24308.68    5.6970957 
   22960    446.25747   -7192.6177    -7142.837    121.35972    24290.579    5.6983178 
   22970    441.76097   -7192.1136   -7142.8345    108.62351    24273.234    5.6965637 
   22980     447.4246   -7192.7249    -7142.814    292.92299    24256.609    5.6919282 
   22990    460.76795   -7194.1877   -7142.7883     416.5035    24241.206    5.6868224 
   23000    461.88633   -7194.3112   -7142.7871    315.37391    24227.326    5.6849299 
   23010    445.75687   -7192.5384   -7142.8136    301.89933    24214.743    5.6892329 
   23020    432.31909   -7191.0686   -7142.8427    258.75079    24203.324    5.7000858 
   23030    422.60052   -7189.9807    -7142.839    152.40412    24192.912    5.7139252 
   23040    423.77277   -7190.0476   -7142.7751   -212.87187    24183.091    5.7257083 
   23050    433.26459   -7190.9674   -7142.6361   -643.61667    24172.724    5.7353361 
   23060    432.06783   -7190.6103   -7142.4125   -784.22576    24160.518    5.7466679 
   23070    435.63559   -7190.6914   -7142.0956    -842.8874     24145.99    5.7606034 
   23080    443.78505    -7191.182   -7141.6771    -887.0973    24128.965    5.7740509 
   23090    445.51084   -7190.8789   -7141.1815   -707.30579    24109.395    5.7834223 
   23100    443.46891   -7190.1122   -7140.6425   -345.15209    24087.884    5.7883827 
   23110    455.73066   -7190.9316   -7140.0941   -40.835402    24065.563    5.7913614 
   23120    453.39088   -7190.1552   -7139.5788    386.51599    24043.496    5.7957161 
   23130    447.03625   -7188.9971   -7139.1296    846.53872        24023    5.8023303 
   23140    448.61381   -7188.7816    -7138.738    1023.5259    24005.417    5.8118827 
   23150    445.82414   -7188.1299   -7138.3976    1146.0214     23991.34    5.8237447 
   23160    444.53882   -7187.6893   -7138.1003    1304.7406    23981.126    5.8340878 
   23170    455.60423   -7188.6591   -7137.8358    1366.5995    23975.178    5.8370321 
   23180    468.50332   -7189.8756   -7137.6134     1430.902    23973.676    5.8316408 
   23190    474.33291   -7190.3703   -7137.4578    1454.0822    23976.731    5.8247395 
   23200     462.0656   -7188.9107   -7137.3666    1617.5394    23984.451    5.8233676 
   23210    461.86044   -7188.8383   -7137.3171    1377.1571    23997.145    5.8290438 
   23220    471.18549   -7189.8612   -7137.2998    792.59127    24014.005    5.8388057 
   23230     458.8709   -7188.5043   -7137.3166    533.37968    24033.348    5.8482341 
   23240    461.25235   -7188.8132   -7137.3598     335.6555    24054.244    5.8531758 
   23250    472.57914   -7190.1475   -7137.4306    64.793812     24075.99     5.855066 
   23260    462.76315   -7189.1631   -7137.5412    68.280837    24097.842    5.8574647 
   23270    459.52457   -7188.9456    -7137.685    67.963355    24119.719    5.8598845 
   23280    467.00614   -7189.9534   -7137.8582    42.653484    24141.632     5.861297 
   23290    463.53516    -7189.777   -7138.0689    214.36437    24163.567    5.8621216 
   23300    462.11629   -7189.8671   -7138.3174    273.88352    24185.964    5.8626764 
   23310    460.15127   -7189.9267   -7138.5962    178.79161    24209.034    5.8633682 
   23320    447.80173   -7188.8383   -7138.8854    90.859181    24232.516    5.8646494 
   23330    447.23114    -7189.052   -7139.1627   -122.23328    24256.088    5.8655842 
   23340    453.88151   -7190.0603   -7139.4291   -449.88851    24279.035    5.8657391 
   23350    448.29636   -7189.6957   -7139.6876   -626.60843    24300.385    5.8659778 
   23360    446.00915   -7189.6862   -7139.9332   -1001.4252    24319.439    5.8659476 
   23370    444.54793    -7189.749    -7140.159   -1316.4136    24335.072    5.8637765 
   23380    441.43455   -7189.6088   -7140.3661   -1414.9463    24346.295    5.8585602 
   23390    430.87428   -7188.6071   -7140.5425   -1177.1248    24352.872    5.8517155 
   23400    431.71033    -7188.832    -7140.674   -972.56773    24355.502     5.844307 
   23410    444.82383   -7190.3902   -7140.7694   -966.19399    24354.837    5.8375858 
   23420    444.14398   -7190.3909    -7140.846   -811.61181    24351.061    5.8340895 
   23430    435.92434   -7189.5352   -7140.9072   -623.17568    24344.646    5.8345776 
   23440    437.73435   -7189.7701   -7140.9402   -592.92028    24336.166    5.8367596 
   23450    448.27781   -7190.9562   -7140.9501   -509.46696    24325.826    5.8385795 
   23460    449.14338   -7191.0514   -7140.9488   -173.92157    24313.966    5.8400106 
   23470     446.2067   -7190.7164   -7140.9414     211.7474    24301.622    5.8414399 
   23480    446.38939   -7190.7177   -7140.9223    598.97093     24290.08    5.8428773 
   23490    450.77086   -7191.1749   -7140.8908    715.06311    24280.504    5.8430608 
   23500    453.95234   -7191.4937   -7140.8547    605.21648    24273.284    5.8422753 
   23510    458.53252    -7191.979    -7140.829    514.06054    24268.108    5.8403972 
   23520    455.15695   -7191.5943   -7140.8208    604.23682    24264.726    5.8346069 
   23530    451.23934    -7191.167   -7140.8305    520.75478    24263.274    5.8235574 
   23540    446.51507   -7190.6561   -7140.8467    420.83377    24263.538    5.8112456 
   23550    445.34255   -7190.5397    -7140.861    330.31838    24265.187    5.8040017 
   23560    442.51012   -7190.2303   -7140.8676    380.93186    24267.957    5.8061902 
   23570    433.88884   -7189.2577   -7140.8567     517.1393     24271.99    5.8167071 
   23580    426.34526   -7188.3679   -7140.8084    625.46215    24277.689    5.8288416 
   23590    429.32586   -7188.5872   -7140.6953    599.84684    24285.385    5.8348219 
   23600    443.93921   -7190.0264   -7140.5043    352.12696    24294.953    5.8332711 
   23610    444.42062   -7189.8133   -7140.2375    151.74654    24305.669     5.828664 
   23620    450.72391   -7190.1857   -7139.9068   -191.70876    24316.792    5.8230027 
   23630    464.41693   -7191.3243   -7139.5179   -614.26681    24327.222    5.8176525 
   23640    463.93549    -7190.862   -7139.1093   -779.18603    24335.677    5.8154305 
   23650    463.48231    -7190.416   -7138.7139   -826.51758    24341.576     5.816249 
   23660    460.62965   -7189.7226   -7138.3387   -927.76018    24344.703    5.8177702 
   23670    462.25735   -7189.5588   -7137.9933   -911.98848    24344.792    5.8174037 
   23680    467.89106   -7189.8772   -7137.6832   -962.24965    24341.839    5.8154726 
   23690    466.38016   -7189.4466   -7137.4212   -1088.1779    24335.685    5.8149873 
   23700    465.22842   -7189.1069   -7137.2099   -1091.8699    24325.985    5.8187308 
   23710    470.41757   -7189.5217   -7137.0459   -1026.0844    24312.715    5.8284919 
   23720    469.61094    -7189.315   -7136.9292   -886.03889    24296.111    5.8418619 
   23730    468.95346   -7189.1755    -7136.863   -742.30465    24276.626    5.8521414 
   23740     463.0522   -7188.4937   -7136.8395   -532.05238    24254.777    5.8545999 
   23750    453.43675   -7187.4208   -7136.8392     -226.155    24231.275    5.8493652 
   23760    462.01665   -7188.3912   -7136.8525   -129.84078    24207.006    5.8422094 
   23770    467.40619     -7189.03   -7136.8902    79.471222    24182.395    5.8382003 
   23780    462.85296   -7188.5925   -7136.9605    588.98529    24158.181    5.8364491 
   23790     466.2875   -7189.0747   -7137.0596    1164.4512    24135.965    5.8360996 
   23800    472.88448   -7189.9536   -7137.2026    1522.9115    24117.519    5.8382784 
   23810    465.41823   -7189.3209   -7137.4028    1798.6675    24104.058     5.841577 
   23820    460.26659    -7188.995   -7137.6515    1920.2988    24096.399    5.8428045 
   23830    468.98227   -7190.2647    -7137.949     1816.449    24094.899    5.8400295 
   23840    473.45569   -7191.1217    -7138.307    1568.0486    24099.263    5.8338949 
   23850    470.77496   -7191.2424   -7138.7267    1221.9591    24108.691    5.8273893 
   23860     463.0449   -7190.8361   -7139.1827    867.58026      24122.1    5.8249176 
   23870    455.66905   -7190.4653   -7139.6348    471.35727    24138.309    5.8278758 
   23880    455.02761   -7190.8118   -7140.0527      71.0717    24156.069    5.8329561 
   23890    454.80199    -7191.157   -7140.4232   -96.952413    24174.164    5.8372335 
   23900    450.27514   -7190.9689     -7140.74   -106.27295    24192.016    5.8408155 
   23910    449.77632   -7191.1717   -7140.9985   -302.33133     24209.49    5.8458954 
   23920    456.13162   -7192.0943   -7141.2122   -674.25601     24225.95     5.854621 
   23930    452.35348    -7191.855   -7141.3943   -851.57862    24240.297      5.86836 
   23940    445.09652   -7191.1988   -7141.5476    -835.9811    24251.919    5.8850933 
   23950    442.22464   -7191.0001   -7141.6693   -863.30278    24260.789    5.9006149 
   23960    437.05823   -7190.5123   -7141.7578    -994.9739    24266.815    5.9121103 
   23970    433.61245   -7190.1802     -7141.81   -1124.3105    24269.592     5.917675 
   23980    435.64006   -7190.4213    -7141.825   -1057.3959    24268.741    5.9165884 
   23990    437.21697   -7190.5777   -7141.8055   -882.77753    24264.434    5.9099083 
   24000    439.80336   -7190.8233   -7141.7626   -756.84279    24257.209    5.9003939 
   24010    431.13806    -7189.789   -7141.6949   -602.13154      24247.5    5.8921736 
   24020    437.32984    -7190.384   -7141.5992   -524.66982    24235.768    5.8873604 
   24030    450.08335   -7191.6874     -7141.48     -403.551    24222.329    5.8862904 
   24040    445.64597   -7191.0652   -7141.3528   -187.21934    24207.578    5.8891643 
   24050     445.7443   -7190.9441   -7141.2206   -209.31698    24192.111    5.8944532 
   24060    448.90769   -7191.1556   -7141.0793   -299.85527    24175.906    5.8987371 
   24070    452.97625   -7191.4648   -7140.9346   -150.81924    24158.764    5.8991596 
   24080     462.4244   -7192.3793   -7140.7951    158.87228    24141.151    5.8970441 
   24090    467.75964   -7192.8583    -7140.679    280.61715    24123.944    5.8953502 
   24100    461.69578   -7192.1038    -7140.601    544.16151    24107.661    5.8935617 
   24110    453.19769   -7191.0995   -7140.5447    1041.1938    24093.181      5.89102 
   24120    455.88665    -7191.355   -7140.5002    1330.2719     24081.97    5.8891362 
   24130    446.47767   -7190.2661   -7140.4608      1536.66    24075.051    5.8893699 
   24140    436.96597   -7189.1565   -7140.4123    1233.6438    24072.934    5.8892111 
   24150    439.75723   -7189.3902   -7140.3346     739.1645    24074.762    5.8859419 
   24160    445.00516   -7189.8662   -7140.2252    362.56497    24079.038    5.8819926 
   24170    450.07562   -7190.3018   -7140.0952     203.1521    24084.592    5.8807446 
   24180    451.11664   -7190.2744   -7139.9516    101.41323     24090.84    5.8823848 
   24190    446.34324   -7189.5826   -7139.7923   -33.472073    24097.421     5.886994 
   24200    448.43719   -7189.6337   -7139.6099   -157.66495    24103.923     5.894638 
   24210    450.68257   -7189.6753   -7139.4009   -228.61756    24109.947    5.9030701 
   24220    445.71801   -7188.8886   -7139.1681   -172.70442     24115.29     5.910852 
   24230    446.67384   -7188.7303   -7138.9032   -123.04226    24120.089     5.920295 
   24240    451.99014   -7189.0209   -7138.6007    65.770513    24124.571    5.9350785 
   24250    451.67663   -7188.6557   -7138.2705    281.99454    24129.297     5.955322 
   24260    450.38817   -7188.1585    -7137.917    628.90872    24135.017    5.9785385 
   24270    457.92561   -7188.6267   -7137.5444    650.67676    24142.699    6.0030617 
   24280    467.26918   -7189.2928   -7137.1682    460.87016    24152.493    6.0278305 
   24290    465.55562   -7188.7521   -7136.8187    278.39531    24163.839    6.0513974 
   24300    456.80944   -7187.4638    -7136.506    241.41709    24176.209    6.0721247 
   24310    466.07949   -7188.2161   -7136.2242    116.42965    24189.385    6.0875668 
   24320    464.34505   -7187.7749   -7135.9765    173.91135    24203.067    6.0977079 
   24330    454.14158    -7186.434   -7135.7738    429.02046    24217.446    6.1033405 
   24340    459.80609   -7186.8908   -7135.5987    546.22077    24233.281    6.1051984 
   24350    473.42229   -7188.2642   -7135.4532    345.00152    24250.911    6.1053542 
   24360    470.46171   -7187.8378   -7135.3571    214.24444    24269.821    6.1077809 
   24370    460.28491   -7186.6566   -7135.3111    164.11581    24289.597    6.1158626 
   24380    456.09134   -7186.1678   -7135.2902   -92.181149    24309.975    6.1301485 
   24390    462.24466   -7186.8467   -7135.2826   -372.15424    24330.179    6.1484155 
   24400    467.60089     -7187.46   -7135.2984   -694.75549    24349.279     6.168208 
   24410    463.96618   -7187.1055   -7135.3494   -1024.7961     24366.22    6.1879127 
   24420    457.93419   -7186.5119   -7135.4286   -1376.4059    24379.865    6.2061717 
   24430    464.70047   -7187.3714   -7135.5334   -1780.5445    24388.995    6.2215848 
   24440    468.64413   -7187.9562   -7135.6782   -1735.7156    24392.396    6.2338734 
   24450     458.6698   -7187.0324   -7135.8671   -1219.3345     24390.19    6.2432411 
   24460    449.28083    -7186.192    -7136.074   -700.56977    24383.929    6.2501481 
   24470    455.75156   -7187.1272   -7136.2874    -457.9194    24375.213    6.2573631 
   24480    463.62885   -7188.2389   -7136.5204   -330.29093    24364.899    6.2686694 
   24490    467.53802   -7188.9457   -7136.7911   -369.24622     24353.38    6.2843266 
   24500    472.19706    -7189.787   -7137.1127    -441.8514    24340.553    6.3006467 
   24510     471.6678   -7190.1022   -7137.4869   -438.53757    24326.201    6.3126938 
   24520    471.72681   -7190.5296   -7137.9077   -466.72267    24310.266    6.3176582 
   24530    469.28679   -7190.7067    -7138.357   -394.94943    24292.699    6.3159282 
   24540     464.3959   -7190.6025   -7138.7984    -247.3848    24273.741    6.3106504 
   24550    464.65718    -7191.032   -7139.1988   -200.01884    24253.788    6.3064699 
   24560    457.95379   -7190.6171   -7139.5316   -3.1947567    24233.073    6.3047826 
   24570    453.02868   -7190.3168   -7139.7808     235.0353    24212.199    6.3043372 
   24580    454.82936   -7190.6975   -7139.9606    393.85428    24191.924    6.3068864 
   24590    448.69719   -7190.1443   -7140.0914    538.38421    24172.793    6.3143201 
   24600    443.26841   -7189.6365   -7140.1893    840.08937    24155.349    6.3232034 
   24610    438.28684   -7189.1442   -7140.2527    1168.1459    24140.565    6.3261613 
   24620    444.19894   -7189.8374   -7140.2863    1090.6215    24129.389    6.3209773 
   24630    450.43438   -7190.5445   -7140.2979    779.32209    24121.654    6.3145584 
   24640     450.8939   -7190.5973   -7140.2994    425.10841    24116.428    6.3143014 
   24650    447.88112   -7190.2616   -7140.2998    206.02285    24112.587    6.3209163 
   24660     447.1429   -7190.1755   -7140.2961     416.6916    24109.524    6.3329502 
   24670    459.80144   -7191.5829   -7140.2914    549.97939    24107.769    6.3486206 
   24680    465.62117   -7192.2474   -7140.3066    736.18288    24107.834    6.3645569 
   24690    455.19015   -7191.1278   -7140.3507    966.46278    24110.306    6.3765335 
   24700    451.07406   -7190.7263   -7140.4084    1033.1909    24115.892    6.3807136 
   24710    456.07428   -7191.3496   -7140.4739    739.15757    24124.763    6.3774513 
   24720    455.62627   -7191.3811   -7140.5553    383.86634    24136.062    6.3718654 
   24730    448.61386   -7190.6973   -7140.6537    203.68328    24148.706    6.3690488 
   24740     445.3844   -7190.4393    -7140.756    54.481477    24162.074     6.370631 
   24750    450.23429   -7191.0788   -7140.8545   -47.249009    24175.708     6.375799 
   24760    458.60804    -7192.119   -7140.9606   -153.79463    24189.277     6.383226 
   24770    458.08014   -7192.1894   -7141.0899   -404.89965    24202.382    6.3912463 
   24780    445.18296   -7190.8954   -7141.2345   -472.19964    24214.298    6.3972725 
   24790    440.60735   -7190.5287   -7141.3783   -433.80091    24224.745    6.3988979 
   24800    442.78836   -7190.9037     -7141.51   -270.20241    24233.879    6.3966665 
   24810    445.02931    -7191.276   -7141.6323    48.935767    24242.237    6.3926687 
   24820     444.5333   -7191.3353   -7141.7469      313.156    24250.791    6.3897459 
   24830    446.25122   -7191.6338   -7141.8538    230.59376    24260.337    6.3912368 
   24840    454.76643   -7192.6886   -7141.9587   -230.72622     24270.59    6.3999524 
   24850     465.3235   -7193.9891   -7142.0816   -798.55624    24280.113    6.4165509 
   24860    467.34595   -7194.3769   -7142.2438   -1124.7059    24287.132    6.4386463 
   24870    459.95052   -7193.7534   -7142.4452   -1055.2156    24290.608    6.4606156 
   24880    453.18232   -7193.2253   -7142.6721   -885.83622    24290.638    6.4764525 
   24890     438.1738   -7191.7858   -7142.9069   -610.71944     24287.79    6.4843096 
   24900    416.93544   -7189.6223   -7143.1126   -416.57165    24282.907    6.4856418 
   24910    415.67344    -7189.631    -7143.262   -473.16931    24276.562    6.4845381 
   24920    425.75876   -7190.8475   -7143.3535   -618.32445    24268.623    6.4886585 
   24930    434.80675   -7191.8984   -7143.3951   -712.34768    24258.652    6.5025186 
   24940    442.60918   -7192.7742   -7143.4005   -842.71401    24246.303    6.5243712 
   24950    440.82903   -7192.5541    -7143.379   -989.43198    24231.156    6.5487125 
   24960    442.41102   -7192.6918   -7143.3402   -994.10847    24212.786    6.5688063 
   24970    440.52952   -7192.4224   -7143.2807   -720.04904     24191.24    6.5814373 
   24980    442.92262   -7192.6043   -7143.1957   -303.05652    24167.405    6.5884783 
   24990    441.47844   -7192.3224   -7143.0748    179.75959    24142.641    6.5953242 
   25000    439.45542   -7191.9367   -7142.9147    552.93139     24118.47    6.6043363 
Loop time of 19097.5 on 16 procs for 20000 steps with 864 atoms

Performance: 0.090 ns/day, 265.243 hours/ns, 1.047 timesteps/s
97.7% CPU use with 16 MPI tasks x 1 OpenMP threads

MPI task timing breakdown:
Section |  min time  |  avg time  |  max time  |%varavg| %total
---------------------------------------------------------------
Pair    | 13425      | 16404      | 18477      |1030.9 | 85.90
Bond    | 0.0018704  | 0.0050735  | 0.0097084  |   3.2 |  0.00
Neigh   | 0.22663    | 0.27256    | 0.35684    |   6.6 |  0.00
Comm    | 515.48     | 1940.9     | 4237.1     |2675.0 | 10.16
Output  | 1.3431     | 1.4208     | 1.9009     |  10.5 |  0.01
Modify  | 14.002     | 750.32     | 1433.5     |2048.4 |  3.93
Other   |            | 0.1442     |            |       |  0.00

Nlocal:        54.0000 ave          70 max          45 min
Histogram: 3 0 3 4 3 0 1 1 0 1
Nghost:        456.188 ave         508 max         422 min
Histogram: 2 0 2 7 1 1 1 1 0 1
Neighs:         0.00000 ave           0 max           0 min
Histogram: 16 0 0 0 0 0 0 0 0 0
FullNghs:      1930.25 ave        2843 max        1392 min
Histogram: 1 3 3 3 3 0 1 1 0 1

Total # of neighbors = 30884
Ave neighs/atom = 35.745370
Ave special neighs/atom = 0.0000000
Neighbor list builds = 2000
Dangerous builds = 2000
unfix   3
                
Total wall time: 6:35:45
