LAMMPS (29 Sep 2021 - Update 3)
OMP_NUM_THREADS environment is not set. Defaulting to 1 thread. (src/comm.cpp:98)
  using 1 OpenMP thread(s) per MPI task
Reading data file ...
  orthogonal box = (0.0000000 0.0000000 0.0000000) to (15.866041 15.852264 77.123517)
  2 by 1 by 8 MPI processor grid
  reading atoms ...
  864 atoms
Finding 1-2 1-3 1-4 neighbors ...
  special bond factors lj:    0        0        0       
  special bond factors coul:  0        0        0       
     0 = max # of 1-2 neighbors
     0 = max # of 1-3 neighbors
     0 = max # of 1-4 neighbors
     1 = max # of special neighbors
  special bonds CPU = 0.001 seconds
  read_data CPU = 0.028 seconds
Neighbor list info ...
  update every 1 steps, delay 10 steps, check yes
  max neighbors/atom: 2000, page size: 100000
  master list distance cutoff = 6.22
  ghost atom cutoff = 6.22
  binsize = 3.11, bins = 6 6 25
  1 neighbor lists, perpetual/occasional/extra = 1 0 0
  (1) pair quip, perpetual
      attributes: full, newton on
      pair build: full/bin
      stencil: full/bin/3d
      bin: standard
Setting up Verlet run ...
  Unit style    : metal
  Current step  : 0
  Time step     : 0.001
Per MPI rank memory allocation (min/avg/max) = 8.889 | 8.906 | 8.916 Mbytes
Step Temp PotEng TotEng Press Volume c_msd[4] 
       0            0   -8878.9247   -8878.9247   -11708.833    19397.542            0 
      10    108.80145    -8891.078    -8878.941   -13519.947    19397.542 0.00037756483 
      20    255.99871   -8907.5101   -8878.9531   -15433.074    19397.542  0.004636157 
      30    288.56988   -8911.1358   -8878.9454   -14361.122    19397.542  0.015943357 
      40    289.10053   -8911.1934   -8878.9438   -12512.136    19397.542  0.032214776 
      50    304.26419   -8912.8839   -8878.9428   -12190.839    19397.542  0.050010352 
      60    330.67215   -8915.8353   -8878.9484    -12512.07    19397.542  0.067008738 
      70    319.75479    -8914.613   -8878.9439   -12021.554    19397.542  0.084636553 
      80     311.7171   -8913.7131   -8878.9406   -11242.174    19397.542   0.10335882 
      90    344.97025   -8917.4272   -8878.9452   -11377.847    19397.542   0.12285636 
     100    369.47631   -8920.1625   -8878.9469   -11460.202    19397.542   0.14373353 
     110    369.44402   -8920.1551   -8878.9431   -10737.559    19397.542   0.16547428 
     120    381.04496   -8921.4513   -8878.9452   -10101.733    19397.542   0.18697263 
     130    387.01967   -8922.1174   -8878.9447    -9853.945    19397.542   0.20927079 
     140    390.46305   -8922.5002   -8878.9434   -10154.629    19397.542   0.23274757 
     150    401.17379   -8923.6966   -8878.9451   -10935.233    19397.542   0.25686229 
     160    405.60936   -8924.1923    -8878.946   -11533.497    19397.542   0.28181117 
     170    403.00983   -8923.9035   -8878.9472   -11313.905    19397.542   0.30705714 
     180    385.93942   -8921.9971   -8878.9449   -10395.352    19397.542   0.33328028 
     190    384.55592   -8921.8429   -8878.9451   -9702.4152    19397.542    0.3615061 
     200    397.89654   -8923.3338   -8878.9478   -9508.3306    19397.542   0.39138176 
     210    403.74057   -8923.9838    -8878.946   -9854.3562    19397.542   0.41959204 
     220    419.25516   -8925.7147   -8878.9462   -11120.155    19397.542   0.44190424 
     230    437.64496   -8927.7678   -8878.9478   -12741.979    19397.542   0.46059951 
     240    436.22365   -8927.6096   -8878.9482   -13773.271    19397.542   0.48016288 
     250     417.4692   -8925.5154   -8878.9461   -14188.084    19397.542   0.50051511 
     260    403.07006   -8923.9093   -8878.9463   -14452.366    19397.542   0.51954432 
     270    390.78955   -8922.5388   -8878.9456   -14869.677    19397.542   0.53842732 
     280    390.91941   -8922.5534   -8878.9458   -15753.944    19397.542   0.55789535 
     290    394.53071   -8922.9579   -8878.9474   -16866.473    19397.542   0.57907365 
     300    385.46639   -8921.9447   -8878.9454   -17556.881    19397.542   0.60332818 
     310    388.07639   -8922.2367   -8878.9462   -18102.563    19397.542   0.62988844 
     320    395.22438   -8923.0346   -8878.9467   -18476.923    19397.542   0.65693198 
     330     392.7193   -8922.7554    -8878.947   -18634.964    19397.542   0.68294096 
     340    387.36548    -8922.158   -8878.9468   -18928.114    19397.542    0.7064488 
     350    383.70376     -8921.75   -8878.9472   -19255.038    19397.542   0.72809194 
     360    380.16279   -8921.3526   -8878.9449   -19764.905    19397.542   0.74756432 
     370    391.53302   -8922.6238   -8878.9477   -20433.416    19397.542   0.76345228 
     380    397.18733   -8923.2529   -8878.9461   -20848.612    19397.542   0.77799013 
     390    399.66038   -8923.5327     -8878.95   -20962.623    19397.542    0.7926845 
     400    376.74168   -8920.9703   -8878.9442   -20594.318    19397.542   0.80792627 
     410    384.01385   -8921.7861   -8878.9488   -20827.442    19397.542   0.82090067 
     420    385.42711   -8921.9432   -8878.9482    -21282.02    19397.542   0.83289421 
     430    375.82197   -8920.8694   -8878.9459   -21749.833    19397.542   0.84474346 
     440    377.40301   -8921.0478   -8878.9479   -22280.425    19397.542   0.85654263 
     450    373.39276   -8920.5987   -8878.9462   -22358.315    19397.542   0.87121917 
     460    380.55104   -8921.3982   -8878.9472   -22127.174    19397.542   0.88923864 
     470    389.08947   -8922.3531   -8878.9496   -21563.629    19397.542   0.90990069 
     480    377.88025   -8921.0989   -8878.9458   -20903.426    19397.542   0.93174236 
     490    381.74982   -8921.5319   -8878.9472   -20620.986    19397.542   0.94962563 
     500    394.14575   -8922.9156   -8878.9481   -20486.731    19397.542   0.96309083 
     510    397.04898   -8923.2389   -8878.9475   -19997.235    19397.542   0.97658553 
     520    399.82595   -8923.5491    -8878.948   -19535.484    19397.542   0.99241283 
     530    404.27704   -8924.0446   -8878.9469    -19115.46    19397.542    1.0084992 
     540     411.3451   -8924.8362     -8878.95   -18661.849    19397.542    1.0226069 
     550    394.09812   -8922.9082    -8878.946   -17821.103    19397.542    1.0374953 
     560    386.81962   -8922.0987   -8878.9484   -17144.624    19397.542    1.0531551 
     570    383.04436   -8921.6747   -8878.9456   -16711.306    19397.542    1.0690946 
     580    397.22268   -8923.2587   -8878.9479   -16702.646    19397.542    1.0866029 
     590    408.28446   -8924.4929   -8878.9481   -16623.668    19397.542    1.1074158 
     600    405.74477   -8924.2095   -8878.9481   -16314.107    19397.542    1.1302748 
     610    396.02325   -8923.1251   -8878.9481    -15628.66    19397.542    1.1519665 
     620     395.3341   -8923.0495   -8878.9494   -15051.831    19397.542    1.1694303 
     630    394.27036   -8922.9318   -8878.9503   -14512.907    19397.542    1.1828305 
     640    383.62649   -8921.7417   -8878.9476   -14067.198    19397.542    1.1945401 
     650    385.14193   -8921.9112    -8878.948   -13839.463    19397.542    1.2068311 
     660     395.4713   -8923.0651   -8878.9497   -13755.797    19397.542    1.2218962 
     670     396.9724   -8923.2312   -8878.9483   -13681.042    19397.542    1.2411479 
     680    400.76426   -8923.6562   -8878.9504   -13529.754    19397.542    1.2649597 
     690    395.59922   -8923.0782   -8878.9485   -13202.541    19397.542    1.2892968 
     700    393.08673   -8922.7984    -8878.949    -12863.36    19397.542    1.3108518 
     710    392.46287   -8922.7295   -8878.9497   -12776.215    19397.542    1.3306314 
     720    392.69983   -8922.7538   -8878.9476   -12960.731    19397.542    1.3493343 
     730    407.70626    -8924.431   -8878.9507   -13617.908    19397.542    1.3652761 
     740    418.60831   -8925.6458   -8878.9494   -14182.857    19397.542    1.3758719 
     750    427.35697   -8926.6222   -8878.9499   -14411.802    19397.542    1.3817369 
     760    426.23067   -8926.4956    -8878.949   -14240.457    19397.542    1.3874968 
     770    425.68986   -8926.4355   -8878.9492   -14121.142    19397.542    1.3956033 
     780    424.34662   -8926.2861   -8878.9496   -14199.692    19397.542    1.4059418 
     790    416.51178   -8925.4118   -8878.9493   -14348.579    19397.542    1.4172819 
     800    406.85203   -8924.3329   -8878.9479   -14603.708    19397.542    1.4293586 
     810     409.3926   -8924.6176   -8878.9492   -14954.594    19397.542    1.4437899 
     820    411.52943   -8924.8561   -8878.9494   -15227.004    19397.542     1.461671 
     830    414.76526   -8925.2161   -8878.9484   -15348.177    19397.542    1.4822988 
     840    425.47297   -8926.4126   -8878.9505   -15497.059    19397.542    1.5061095 
     850    424.10961   -8926.2589   -8878.9489    -15461.05    19397.542    1.5339208 
     860    425.84903   -8926.4531    -8878.949   -15668.017    19397.542    1.5638872 
     870    428.28778   -8926.7265   -8878.9503   -15975.954    19397.542    1.5941429 
     880    422.32484   -8926.0597   -8878.9487   -16050.391    19397.542    1.6254163 
     890    420.59441   -8925.8681   -8878.9502   -16210.368    19397.542    1.6579317 
     900    412.78354   -8924.9958   -8878.9492   -16186.118    19397.542    1.6917804 
     910    408.88335   -8924.5603   -8878.9488   -16398.021    19397.542    1.7253326 
     920    415.25495   -8925.2723     -8878.95   -16866.947    19397.542    1.7566903 
     930    417.79568   -8925.5555   -8878.9498    -17314.63    19397.542    1.7866576 
     940    414.15774   -8925.1502   -8878.9503   -17816.895    19397.542    1.8175362 
     950    410.14766   -8924.7024   -8878.9498   -18397.528    19397.542     1.850555 
     960    412.13206   -8924.9218   -8878.9478   -18864.984    19397.542    1.8837942 
     970    427.90234   -8926.6835   -8878.9503   -19165.223    19397.542    1.9147148 
     980    431.11936    -8927.043    -8878.951    -19021.79    19397.542    1.9457246 
     990    415.64991   -8925.3145   -8878.9482   -18606.767    19397.542    1.9812421 
    1000    413.92707   -8925.1233   -8878.9491   -18513.829    19397.542    2.0201072 
    1010    417.45395   -8925.5177     -8878.95   -18558.895    19397.542    2.0574524 
    1020    414.66605   -8925.2045   -8878.9479    -18540.13    19397.542    2.0909232 
    1030    425.32279   -8926.3944    -8878.949   -18804.281    19397.542    2.1200334 
    1040    437.39791    -8927.743   -8878.9506    -19174.44    19397.542    2.1461906 
    1050    432.04437    -8927.144   -8878.9488   -19430.964    19397.542    2.1724444 
    1060    423.10855   -8926.1471   -8878.9487    -19670.97    19397.542     2.200914 
    1070    416.30819    -8925.389   -8878.9492   -19752.208    19397.542     2.232564 
    1080    410.19009   -8924.7058   -8878.9485   -19471.789    19397.542    2.2656179 
    1090    411.43188   -8924.8454   -8878.9496   -18927.842    19397.542    2.2963807 
    1100    413.58688   -8925.0849   -8878.9486   -18540.027    19397.542    2.3238349 
    1110    425.71996   -8926.4384   -8878.9486   -18620.545    19397.542    2.3474636 
    1120    443.01807   -8928.3709   -8878.9516   -18883.908    19397.542    2.3679172 
    1130    437.42575   -8927.7454   -8878.9499   -18767.479    19397.542    2.3882255 
    1140    422.48256   -8926.0773   -8878.9487   -18476.767    19397.542    2.4089666 
    1150    414.07643   -8925.1393   -8878.9485   -18282.798    19397.542    2.4284943 
    1160    416.01416   -8925.3558   -8878.9488   -18291.885    19397.542     2.446853 
    1170    419.66714   -8925.7642   -8878.9497   -18446.717    19397.542    2.4644412 
    1180    424.21945   -8926.2706   -8878.9483    -18449.36    19397.542    2.4806419 
    1190    440.19598   -8928.0557   -8878.9512   -18343.062    19397.542    2.4945267 
    1200    440.38662   -8928.0752   -8878.9494   -17908.359    19397.542     2.507228 
    1210    440.40752   -8928.0774   -8878.9493   -17509.071    19397.542    2.5196997 
    1220    445.29341   -8928.6232   -8878.9501   -17433.008    19397.542    2.5321836 
    1230    444.31811   -8928.5138   -8878.9494   -17404.254    19397.542    2.5456285 
    1240    444.21916   -8928.5028   -8878.9495   -17567.287    19397.542    2.5617678 
    1250    447.95301   -8928.9197   -8878.9499   -17998.888    19397.542    2.5810013 
    1260    447.05056     -8928.82   -8878.9509   -18113.089    19397.542    2.6027835 
    1270    433.76409   -8927.3363   -8878.9493   -17647.746    19397.542    2.6267411 
    1280    426.49744   -8926.5249   -8878.9485   -17215.404    19397.542    2.6522665 
    1290    438.76938   -8927.8949   -8878.9495   -17215.004    19397.542     2.679609 
    1300     454.8554   -8929.6913   -8878.9515   -17412.029    19397.542    2.7096074 
    1310    451.74789   -8929.3435   -8878.9504   -17515.094    19397.542    2.7419599 
    1320    440.03726   -8928.0361   -8878.9493    -17582.78    19397.542    2.7732724 
    1330    433.51813    -8927.309   -8878.9494   -17627.787    19397.542    2.7991894 
    1340    430.66307   -8926.9918   -8878.9507   -17406.648    19397.542    2.8192899 
    1350    422.06307   -8926.0311   -8878.9493    -17030.68    19397.542    2.8369839 
    1360    423.68793   -8926.2128   -8878.9498   -16872.793    19397.542    2.8564726 
    1370    432.23825   -8927.1671   -8878.9502   -16941.721    19397.542    2.8798412 
    1380    440.61409   -8928.1014   -8878.9502   -17160.411    19397.542     2.904214 
    1390    442.38617   -8928.3005   -8878.9516   -17288.698    19397.542    2.9262872 
    1400    432.82497   -8927.2303    -8878.948   -17111.965    19397.542    2.9462931 
    1410    443.20721   -8928.3906   -8878.9502   -17379.272    19397.542    2.9656964 
    1420     452.8574   -8929.4692   -8878.9523   -17581.285    19397.542    2.9866189 
    1430    440.33742   -8928.0699   -8878.9496    -17078.18    19397.542    3.0107644 
    1440    434.09539   -8927.3728   -8878.9488   -16559.852    19397.542    3.0372306 
    1450    446.59797     -8928.77   -8878.9513   -16458.202    19397.542    3.0634597 
    1460    455.16552   -8929.7248   -8878.9504   -16509.198    19397.542    3.0883146 
    1470     460.5176    -8930.323   -8878.9516   -16639.411    19397.542    3.1117695 
    1480    455.78137    -8929.792   -8878.9489   -16643.605    19397.542    3.1332037 
    1490    461.66937   -8930.4506   -8878.9507   -16632.215    19397.542     3.152331 
    1500    464.06114   -8930.7172   -8878.9504   -16316.323    19397.542    3.1724877 
    1510    464.69685   -8930.7871   -8878.9495    -16148.36    19397.542    3.1960897 
    1520    471.22077   -8931.5167   -8878.9514   -16208.841    19397.542    3.2225013 
    1530    471.47122   -8931.5429   -8878.9496   -16597.639    19397.542    3.2496574 
    1540    479.04999   -8932.3903   -8878.9516   -17340.131    19397.542    3.2743864 
    1550    475.60674   -8932.0055   -8878.9508   -17872.304    19397.542    3.2971604 
    1560    465.76065   -8930.9064   -8878.9501   -17822.552    19397.542    3.3221892 
    1570    460.06152    -8930.271   -8878.9505    -17442.47    19397.542    3.3512444 
    1580    459.40082   -8930.1971   -8878.9502   -16941.542    19397.542    3.3813068 
    1590    460.93829   -8930.3707   -8878.9523   -16350.345    19397.542    3.4083736 
    1600     448.2201   -8928.9504   -8878.9508   -15603.607    19397.542    3.4316634 
    1610     443.9941   -8928.4772    -8878.949    -15275.86    19397.542    3.4534934 
    1620    463.51034   -8930.6582    -8878.953   -15593.563    19397.542    3.4766509 
    1630    474.66564   -8931.9011   -8878.9514   -16126.405    19397.542    3.5034224 
    1640    481.75389   -8932.6918   -8878.9514   -16542.721    19397.542    3.5333548 
    1650    479.37897   -8932.4264    -8878.951   -16541.998    19397.542    3.5648125 
    1660    474.97776   -8931.9337   -8878.9492   -16284.173    19397.542    3.5952514 
    1670    481.99089    -8932.719   -8878.9522   -15990.017    19397.542    3.6221631 
    1680      474.213   -8931.8498   -8878.9506   -15457.654    19397.542    3.6454728 
    1690    462.13083    -8930.502   -8878.9506   -14731.806    19397.542     3.665115 
    1700    458.63731   -8930.1109   -8878.9492   -14389.905    19397.542    3.6801149 
    1710    473.55465   -8931.7771   -8878.9513   -14547.389    19397.542    3.6915037 
    1720    483.59001    -8932.897   -8878.9518   -15013.331    19397.542    3.7021408 
    1730    481.36556   -8932.6472   -8878.9501   -15645.926    19397.542    3.7142289 
    1740    484.05437   -8932.9483   -8878.9513   -16474.749    19397.542    3.7288904 
    1750    482.16869   -8932.7383   -8878.9516   -16722.219    19397.542     3.747119 
    1760    470.26243   -8931.4082   -8878.9497   -16475.495    19397.542    3.7689551 
    1770    472.75321   -8931.6852   -8878.9489   -16480.419    19397.542    3.7930019 
    1780    495.80424   -8934.2609   -8878.9532   -16801.632    19397.542     3.817904 
    1790    498.29189   -8934.5359   -8878.9506   -17030.699    19397.542    3.8432118 
    1800    497.22115   -8934.4163   -8878.9505   -17233.599    19397.542    3.8677962 
    1810    498.13201   -8934.5195   -8878.9521   -17294.852    19397.542    3.8916583 
    1820    485.17576   -8933.0725   -8878.9504   -16971.976    19397.542    3.9157232 
    1830    479.44537   -8932.4337   -8878.9509   -16627.564    19397.542    3.9391486 
    1840    478.88134   -8932.3712   -8878.9513   -16398.764    19397.542    3.9621449 
    1850     478.6415   -8932.3435   -8878.9503   -16406.049    19397.542    3.9857213 
    1860     486.1211   -8933.1789   -8878.9514   -16705.544    19397.542    4.0086822 
    1870    492.79459   -8933.9238   -8878.9519   -17221.514    19397.542    4.0297149 
    1880    491.36379   -8933.7648   -8878.9525   -18037.772    19397.542    4.0499732 
    1890    475.70955   -8932.0166   -8878.9505   -18910.363    19397.542    4.0709101 
    1900    464.92588   -8930.8141   -8878.9509   -19819.272    19397.542    4.0929306 
    1910    455.59431   -8929.7727   -8878.9505   -20229.987    19397.542    4.1160109 
    1920    452.87672   -8929.4684   -8878.9493   -20242.611    19397.542    4.1384657 
    1930    467.97161   -8931.1539   -8878.9509   -20369.825    19397.542    4.1581839 
    1940    485.34862   -8933.0926   -8878.9512   -20514.477    19397.542    4.1756159 
    1950    495.78252   -8934.2578   -8878.9525   -20428.878    19397.542    4.1936772 
    1960    500.11778   -8934.7389     -8878.95   -20591.437    19397.542    4.2145461 
    1970    511.99695   -8936.0681    -8878.954   -21344.221    19397.542    4.2363696 
    1980    499.23942   -8934.6421   -8878.9512   -21654.428    19397.542    4.2540635 
    1990    487.56603   -8933.3391   -8878.9504    -21588.86    19397.542    4.2657075 
    2000    485.14508   -8933.0707    -8878.952   -21134.343    19397.542    4.2770463 
Loop time of 1600.63 on 16 procs for 2000 steps with 864 atoms

Performance: 0.108 ns/day, 222.310 hours/ns, 1.250 timesteps/s
95.8% CPU use with 16 MPI tasks x 1 OpenMP threads

MPI task timing breakdown:
Section |  min time  |  avg time  |  max time  |%varavg| %total
---------------------------------------------------------------
Pair    | 372.01     | 838.68     | 1587.8     |1175.7 | 52.40
Bond    | 0.00018573 | 0.00046267 | 0.0010109  |   0.0 |  0.00
Neigh   | 0.014548   | 0.032223   | 0.063385   |   7.8 |  0.00
Comm    | 12.349     | 662.83     | 1090.1     |1271.2 | 41.41
Output  | 0.22851    | 29.517     | 63.077     | 437.0 |  1.84
Modify  | 0.010086   | 0.011077   | 0.012789   |   0.6 |  0.00
Other   |            | 69.57      |            |       |  4.35

Nlocal:        54.0000 ave          90 max          29 min
Histogram: 3 3 0 2 3 1 0 2 0 2
Nghost:        493.750 ave         643 max         369 min
Histogram: 3 1 0 3 2 2 1 2 0 2
Neighs:         0.00000 ave           0 max           0 min
Histogram: 16 0 0 0 0 0 0 0 0 0
FullNghs:      2706.00 ave        5944 max         890 min
Histogram: 6 0 2 1 3 0 2 0 0 2

Total # of neighbors = 43296
Ave neighs/atom = 50.111111
Ave special neighs/atom = 0.0000000
Neighbor list builds = 200
Dangerous builds = 200
Setting up Verlet run ...
  Unit style    : metal
  Current step  : 2000
  Time step     : 0.001
Per MPI rank memory allocation (min/avg/max) = 8.894 | 8.909 | 8.920 Mbytes
Step Temp PotEng TotEng Press Volume c_msd[4] 
    2000         1050   -8933.0707   -8815.9416   -17664.701    19397.542    4.2770463 
    2010    898.81987   -8916.2715   -8816.0067   -14003.498    19389.846    4.3068306 
    2020    698.34376   -8893.8519   -8815.9506   -8609.3844    19369.689    4.3370672 
    2030    717.86423   -8895.5918    -8815.513   -8031.8024    19341.425    4.3537197 
    2040    763.54072   -8899.8038   -8814.6296   -8522.4925    19305.994    4.3566219 
    2050     781.6944    -8900.768   -8813.5688   -7888.4928    19263.225    4.3517613 
    2060    794.59521   -8901.2125   -8812.5742    -6456.713    19213.853    4.3420379 
    2070    807.97668   -8901.8317   -8811.7007   -4960.1183    19159.351    4.3304653 
    2080    814.17562    -8901.686   -8810.8634   -3213.2966    19101.386    4.3188447 
    2090    802.70065   -8899.4814    -8809.939   -849.26213    19041.874    4.3056786 
    2100    799.04309   -8897.9287   -8808.7942    1840.7862    18983.169    4.2894076 
    2110    811.39067   -8897.8616   -8807.3498    4361.5996    18927.818    4.2697193 
    2120    848.79775     -8900.31   -8805.6253    6518.0581     18878.09    4.2481262 
    2130    866.59792   -8900.3846   -8803.7143    8653.4285    18835.788    4.2283797 
    2140    851.85893   -8896.7934   -8801.7672    10376.441    18802.462    4.2108897 
    2150    864.51849   -8896.2967   -8799.8584    10506.003    18779.105     4.193716 
    2160    894.82232   -8897.7948    -8797.976    9532.0095    18765.392    4.1769027 
    2170    912.35218   -8897.9268   -8796.1525    8874.4073    18760.187    4.1615993 
    2180    895.35799    -8894.307   -8794.4284    8396.1455    18762.537    4.1491984 
    2190    860.40525   -8888.7746   -8792.7951    7572.7188    18771.671    4.1408724 
    2200    891.90891    -8890.651   -8791.1573    5376.9427    18786.536    4.1376062 
    2210    919.51611   -8892.0272   -8789.4538    3884.0346    18805.258    4.1385036 
    2220    906.90265   -8888.9639   -8787.7976    3645.0893    18826.505    4.1426562 
    2230    917.70299    -8888.571   -8786.1998      3239.14    18849.868    4.1493719 
    2240    908.31707   -8885.9372   -8784.6131    3293.7734    18875.035    4.1614226 
    2250    921.08166   -8885.7718   -8783.0237    2645.4772    18901.892    4.1760782 
    2260    923.33093   -8884.3859   -8781.3869    2084.8468    18929.917    4.1875959 
    2270    922.65468   -8882.6661   -8779.7426    1919.0282     18958.64    4.1968123 
    2280    954.10116   -8884.4964    -8778.065    1289.4226    18987.845    4.2073534 
    2290    962.95558   -8883.7879   -8776.3688    984.28188    19017.095    4.2232073 
    2300    962.06612   -8882.0314   -8774.7115    453.10983    19046.069    4.2423418 
    2310    959.47686   -8880.1061    -8773.075   -279.21458    19074.363    4.2611317 
    2320    969.36641   -8879.5702   -8771.4359   -1555.4876    19101.369    4.2739491 
    2330    988.09459   -8880.0134   -8769.7899    -2226.546    19126.182    4.2764646 
    2340     1000.856    -8879.822    -8768.175   -2296.3157    19148.315    4.2693098 
    2350    1032.2093   -8881.7469   -8766.6024   -2916.7305    19167.703     4.260031 
    2360    1024.6973   -8879.4067   -8765.1002   -3136.4761    19184.004    4.2559988 
    2370      993.027   -8874.4808   -8763.7072   -2941.6318    19197.136    4.2562156 
    2380     993.5709   -8873.1928   -8762.3584   -2957.3813    19207.322    4.2569807 
    2390    966.97372   -8868.8837   -8761.0163   -2659.0905    19214.698    4.2568383 
    2400     966.7636   -8867.5172   -8759.6733   -2908.1937    19219.523    4.2568998 
    2410    1007.9934   -8870.7112    -8758.268   -3302.4208    19221.676    4.2579817 
    2420    1022.2176   -8870.8674   -8756.8375   -2536.0098    19220.996      4.25879 
    2430    1049.7165   -8872.5316   -8755.4342   -2124.9422    19218.078    4.2577589 
    2440    1074.8594   -8873.9808   -8754.0786   -2536.9526     19213.31     4.255033 
    2450    1089.9899   -8874.4252   -8752.8352   -3077.1285     19206.44     4.250409 
    2460    1092.7448   -8873.6334   -8751.7361   -2715.8713    19197.119    4.2471556 
    2470    1079.3289   -8871.1894   -8750.7887   -1628.2196    19185.705    4.2526455 
    2480    1075.8911   -8869.9752   -8749.9579   -1183.6718    19173.069    4.2705314 
    2490    1074.1558   -8869.0375   -8749.2138   -789.33279    19159.678    4.2977133 
    2500    1053.9117   -8866.0915    -8748.526   -316.22426    19145.887    4.3278362 
    2510    1057.8881    -8865.867    -8747.858   -10.773755    19132.111    4.3556875 
    2520    1089.2442   -8868.7173   -8747.2105   -202.76322    19118.559    4.3780881 
    2530    1086.0065   -8867.7747   -8746.6291    545.73221    19105.174     4.393054 
    2540    1066.5518   -8865.1007   -8746.1252    1653.9914    19092.541    4.4049216 
    2550    1081.8229    -8866.342    -8745.663    1716.5918    19081.511    4.4216867 
    2560    1144.2615   -8872.9348   -8745.2907   -11.013981    19072.001    4.4455097 
    2570    1153.3418   -8873.7829   -8745.1259   -199.43646    19062.773    4.4742069 
    2580    1114.9358   -8869.5754   -8745.2027     897.4614    19053.632    4.5046009 
    2590    1108.6472   -8869.1232   -8745.4519    265.43123    19045.275    4.5333562 
    2600    1139.8807   -8873.0348   -8745.8794   -1532.8011    19037.181    4.5570503 
    2610    1127.0203   -8872.2463   -8746.5255   -2063.6596    19027.989    4.5726041 
    2620    1094.1588   -8869.3852   -8747.3302   -1999.4447     19017.19    4.5809569 
    2630    1102.7265   -8871.2603   -8748.2495   -1842.5361     19004.83    4.5877744 
    2640    1091.2312    -8870.984   -8749.2555   -1119.7735    18991.105    4.5991389 
    2650    1101.5859   -8873.2008   -8750.3173   -572.71432    18976.599    4.6101403 
    2660    1124.0347   -8876.8473   -8751.4595    25.447515    18961.807    4.6117516 
    2670    1123.6543   -8878.0615   -8752.7162    956.87029    18947.268    4.6071325 
    2680     1125.852   -8879.6802   -8754.0897    1756.0534    18933.733    4.6042302 
    2690    1125.7391   -8881.1503   -8755.5724    3133.3892    18921.932    4.6045842 
    2700    1127.6648   -8882.8883   -8757.0956    4150.2629    18912.921    4.6065846 
    2710    1167.7501   -8888.9919   -8758.7276    3955.5454    18907.445    4.6093475 
    2720    1124.8383   -8885.8965   -8760.4191    4027.8431    18905.452    4.6155368 
    2730    1099.2743   -8884.6934   -8762.0677    3516.5558     18906.86    4.6258364 
    2740    1098.7247   -8886.2209   -8763.6565    2709.7122    18911.234    4.6400916 
    2750    1090.3674   -8886.8128   -8765.1807    1699.6506    18917.881    4.6538582 
    2760    1091.4625   -8888.4046   -8766.6503   -284.34676    18925.832     4.663866 
    2770    1086.3353   -8889.2713   -8768.0889   -1658.5741    18933.499    4.6708534 
    2780    1054.6588   -8887.1178   -8769.4691   -1330.4013    18939.802    4.6759903 
    2790    1031.6878   -8885.8133    -8770.727   -755.51899    18944.918     4.680564 
    2800    1030.6257   -8886.8143   -8771.8464   -683.41388      18949.3    4.6838613 
    2810     1035.141   -8888.3277   -8772.8561   -1195.3681        18953    4.6852729 
    2820    1023.7824   -8887.9749   -8773.7704   -1576.5676    18955.649    4.6885103 
    2830    1004.9575   -8886.6871   -8774.5826   -1116.5892    18957.011    4.6910103 
    2840    1025.3574   -8889.7005   -8775.3203   -1008.9045    18957.363    4.6879645 
    2850     1049.078   -8893.0328   -8776.0065   -1094.7572     18956.86     4.686034 
    2860     1070.897    -8896.143   -8776.6829   -1754.9917    18955.391    4.6879526 
    2870    1085.7329   -8898.4968   -8777.3817   -2321.6044    18952.461    4.6973664 
    2880    1079.4141   -8898.5657   -8778.1554   -2459.4813    18947.637    4.7125231 
    2890    1047.9657   -8895.8542   -8778.9521    -2177.067    18940.832    4.7313604 
    2900    1050.7785   -8896.9459     -8779.73   -1346.9538    18932.338    4.7511639 
    2910     1055.238   -8898.1984    -8780.485     -251.347    18922.858     4.767823 
    2920     1047.049   -8898.0261   -8781.2262    533.45993    18913.318     4.777332 
    2930    1072.1894   -8901.5779   -8781.9736    222.07457    18904.319    4.7817861 
    2940    1109.3257   -8906.5572   -8782.8103   -229.34234    18895.675    4.7872423 
    2950    1093.8239   -8905.7751   -8783.7574   -185.37126    18887.039    4.7979803 
    2960    1074.5251   -8904.6132   -8784.7483    -172.7748    18878.409    4.8111113 
    2970    1065.3135    -8904.596   -8785.7587   -590.23895    18869.756    4.8243049 
    2980    1046.3441   -8903.4629   -8786.7417   -1126.1503    18860.798    4.8399542 
    2990    1084.5799   -8908.7103   -8787.7238   -2575.2413    18850.989     4.861734 
    3000    1093.5312   -8910.7293   -8788.7442   -2844.0328    18839.332     4.889707 
    3010    1082.1532   -8910.4942   -8789.7784   -1993.2297    18825.623    4.9188138 
    3020    1085.2705   -8911.8736     -8790.81   -1378.2035     18810.53    4.9461271 
    3030     1066.028   -8910.7455   -8791.8284   -658.75137    18794.652    4.9742108 
    3040    1052.9257    -8910.274   -8792.8185   -128.66026    18778.586    5.0016021 
    3050    1053.5126   -8911.2859    -8793.765   -118.57061    18762.799    5.0285239 
    3060    1089.6429   -8916.2834   -8794.7321   -1184.3167    18747.209    5.0597081 
    3070    1082.1414   -8916.4675    -8795.753   -1886.8869    18731.053    5.0979722 
    3080     1097.859   -8919.2857   -8796.8178   -2620.8628    18713.721    5.1409823 
    3090    1108.8272   -8921.6612   -8797.9699   -2813.6791    18694.683    5.1833447 
    3100    1086.3154   -8920.3476   -8799.1675   -2079.0613    18673.858    5.2233553 
    3110    1071.7304   -8919.9105   -8800.3573   -1745.5826    18651.805    5.2605928 
    3120    1073.9634   -8921.3139   -8801.5117   -2091.4545    18628.836    5.2924458 
    3130    1080.1067   -8923.1384   -8802.6509    -2594.583    18604.729    5.3214467 
    3140    1084.7841   -8924.8015   -8803.7922   -2787.7257    18579.138    5.3542038 
    3150    1089.7386   -8926.5085   -8804.9465    -2097.368    18552.029    5.3936221 
    3160    1074.8034   -8925.9748   -8806.0789   -1023.6354    18523.991    5.4379158 
    3170    1069.4266   -8926.4458   -8807.1496   -938.72282    18495.846    5.4798706 
    3180    1113.3078   -8932.4281    -8808.237    -1320.788    18467.712    5.5139901 
    3190    1139.3001   -8936.5215   -8809.4308   -678.71425    18439.406    5.5419743 
    3200    1138.1025    -8937.691    -8810.734    320.57051    18411.405    5.5685911 
    3210    1136.0086   -8938.8547   -8812.1312     320.1522    18384.404    5.5968707 
    3220    1114.0478   -8937.8421   -8813.5684    149.18941    18358.442    5.6288868 
    3230     1100.684   -8937.7726   -8814.9897   -190.20649    18333.327    5.6648366 
    3240    1085.8305   -8937.4619   -8816.3359   -254.90064    18308.832     5.704243 
    3250    1121.6115   -8942.7789   -8817.6614   -913.73777    18284.797    5.7442407 
    3260    1118.4607    -8943.799    -8819.033   -973.38314    18260.798    5.7821587 
    3270    1107.6668   -8943.9629    -8820.401   -1497.5485    18236.686    5.8148516 
    3280    1130.3044   -8947.8964   -8821.8093   -1823.8225    18212.142    5.8423082 
    3290    1120.3004   -8948.2124   -8823.2412   -1494.4921    18186.938      5.86727 
    3300    1128.8021   -8950.6307   -8824.7111   -1252.6471    18161.294    5.8925633 
    3310    1102.7472   -8949.1629   -8826.1497   -793.18608    18135.455    5.9247622 
    3320     1122.542   -8952.7724   -8827.5512   -1191.0886    18109.701    5.9677625 
    3330     1136.926   -8955.8232   -8828.9974   -1303.8473    18083.843    6.0221075 
    3340    1149.4806    -8958.713   -8830.4868    -1138.807    18057.805    6.0830452 
    3350    1193.6324   -8965.2796   -8832.1281   -1965.1388    18031.581    6.1447819 
    3360    1167.1585   -8964.0974   -8833.8991   -621.90555    18004.827    6.2058679 
    3370    1121.9241   -8960.7538   -8835.6015    923.75013    17978.433    6.2680315 
    3380    1120.9367   -8962.2259   -8837.1837     1192.836    17953.467    6.3320333 
    3390    1135.7921   -8965.4016   -8838.7022    1498.7894    17930.196    6.3949727 
    3400    1185.1861   -8972.4875   -8840.2782     1182.586    17908.723    6.4531658 
    3410    1211.8941   -8977.2467   -8842.0581    1413.6483    17888.829    6.5069944 
    3420    1143.5063   -8971.4603   -8843.9004    3141.6442    17870.718    6.5607948 
    3430    1118.5083    -8970.413   -8845.6417    3558.0305    17855.392    6.6084326 
    3440    1132.2497   -8973.5861   -8847.2819    2966.9842    17843.129    6.6480272 
    3450    1146.1031   -8976.7753   -8848.9258    1705.1221    17833.402    6.6832321 
    3460    1114.0438   -8974.8144   -8850.5411    1293.6378    17825.324    6.7196714 
    3470    1147.8861    -8980.175   -8852.1266   -195.57908    17818.368    6.7598268 
    3480    1197.9275    -8987.454   -8853.8234   -1277.9693    17811.477    6.8029624 
    3490    1164.9129   -8985.5657   -8855.6179    149.99407    17804.003    6.8464952 
    3500    1157.7579   -8986.5586   -8857.4089    1079.0305    17796.788    6.8869234 
    3510    1172.9337   -8990.0699   -8859.2274    852.83598    17790.508     6.924396 
    3520    1130.9709   -8987.2106   -8861.0491     1004.712    17785.071    6.9623658 
    3530    1089.5145   -8984.2447   -8862.7077    489.78947    17780.473    7.0025857 
    3540    1113.4334   -8988.4618   -8864.2566   -915.90321    17776.313     7.045197 
    3550    1126.0594   -8991.4119   -8865.7983   -954.75573    17771.689    7.0880707 
    3560    1144.5586   -8995.0579   -8867.3806   -19.585603    17766.533    7.1259913 
    3570    1124.9553   -8994.4974    -8869.007    1674.6818    17761.531    7.1570966 
    3580    1096.1566   -8992.8656   -8870.5877    3427.5749    17757.903    7.1821345 
    3590    1104.7265   -8995.3512   -8872.1173    3419.6406    17756.804    7.2084716 
    3600    1114.3583   -8997.9494    -8873.641    1949.2673     17758.19    7.2375689 
    3610    1118.9658   -9000.0112   -8875.1889    743.86725    17761.064    7.2671364 
    3620    1077.0379   -8996.8461   -8876.7009    -310.6632    17764.447    7.2951694 
    3630    1053.5566   -8995.5945   -8878.0687    -1343.936    17767.545    7.3190597 
    3640    1089.5148   -9000.8878   -8879.3508   -2876.1561    17769.526    7.3377161 
    3650    1092.1075   -9002.4315   -8880.6053   -3485.0786    17769.393      7.35057 
    3660    1108.1814    -9005.496   -8881.8767   -3679.1874    17766.693    7.3564872 
    3670    1130.0666   -9009.2999   -8883.2392   -3127.9666    17761.334    7.3601945 
    3680    1110.9754   -9008.6433   -8884.7123   -897.74273    17753.878    7.3629937 
    3690    1077.0378   -9006.3037   -8886.1586    1000.3131    17745.915    7.3647247 
    3700    1082.4971   -9008.2872    -8887.533     1543.352    17738.792    7.3716977 
    3710    1098.7914    -9011.429   -8888.8571    1298.8276    17732.924    7.3878548 
    3720    1104.1652   -9013.3653   -8890.1941    1347.3046     17728.17    7.4100701 
    3730    1057.8704   -9009.5016   -8891.4945    2507.6741     17724.61    7.4306579 
    3740    1024.1994   -9006.9106   -8892.6597    2558.3153    17722.923    7.4449068 
    3750    1071.5226   -9013.2606   -8893.7307    496.37979    17723.021    7.4533565 
    3760    1101.2675    -9017.688   -8894.8399     39.22701    17723.615    7.4604702 
    3770    1068.3264   -9015.1428   -8895.9694    1323.6252    17724.351    7.4676102 
    3780     1080.039    -9017.581    -8897.101    2168.1042    17726.025    7.4742088 
    3790     1061.675   -9016.6456   -8898.2141    2594.9647    17729.258     7.482919 
    3800    1035.8367   -9014.8285   -8899.2794    1770.2665    17734.268    7.4952084 
    3810    1063.9045   -9018.9721    -8900.292   -1333.2737    17740.337    7.5045702 
    3820    1079.3784   -9021.7108   -8901.3045   -4132.6519    17745.307    7.5066461 
    3830     1012.783   -9015.2199   -8902.2424   -3644.6589    17747.337    7.5059091 
    3840    1012.9614   -9016.0394   -8903.0421   -3750.3869    17746.533    7.5083684 
    3850     1066.113   -9022.7024   -8903.7759    -4057.013     17742.96    7.5143444 
    3860    1055.4009   -9022.2448   -8904.5132   -3051.1305    17736.535    7.5204541 
    3870    1063.6064   -9023.8977   -8905.2508   -1966.3851     17727.99    7.5217427 
    3880    1078.3379   -9026.3131   -8906.0229   -1161.7602    17718.133    7.5155144 
    3890     1038.595   -9022.6514   -8906.7945    960.77352    17707.752    7.5037324 
    3900    1045.5364   -9024.1433   -8907.5122    2130.3604    17698.275    7.4883348 
    3910    1072.6443   -9027.8714   -8908.2164      2634.24     17690.56    7.4764641 
    3920    1045.9922   -9025.5954   -8908.9134    3468.5787     17685.01    7.4720719 
    3930    1075.2214   -9029.5706    -8909.628    2899.6145    17682.041     7.476754 
    3940    1100.5616   -9033.1975   -8910.4283    2070.1822    17681.275    7.4928955 
    3950    1042.8832   -9027.6044   -8911.2693    2038.5766    17682.119    7.5145355 
    3960    1053.1053   -9029.5592   -8912.0837     704.4664    17684.359    7.5333827 
    3970    1084.8695   -9033.9207   -8912.9019   -1039.4438    17687.058    7.5496591 
    3980    1062.0484   -9032.2239   -8913.7508   -1621.9205    17689.043    7.5662834 
    3990    1041.6755   -9030.7822   -8914.5817   -2229.7675    17689.832     7.583405 
    4000    1045.1989   -9031.9754   -8915.3819   -3712.6431    17688.892    7.6025525 
    4010    1042.3066   -9032.4169    -8916.146   -4164.7248    17685.287    7.6248459 
    4020    1052.5492   -9034.3108   -8916.8973   -3156.1388    17678.753    7.6496964 
    4030    1037.1436   -9033.3084   -8917.6134   -1857.2848    17670.015    7.6759951 
    4040    1068.8278   -9037.5222   -8918.2929     -2112.84    17659.969    7.7024541 
    4050    1116.3372   -9043.5753   -8919.0462   -3037.0009    17648.487    7.7302474 
    4060     1071.298    -9039.386   -8919.8811   -1768.0945    17635.144    7.7569037 
    4070    1056.1633   -9038.5492   -8920.7326   -1251.3383    17620.682    7.7776085 
    4080    1049.4413   -9038.6421   -8921.5754   -1071.1646    17605.531    7.8009087 
    4090    1043.6096   -9038.7847   -8922.3685   -656.71059    17589.869    7.8315506 
    4100    1067.2314   -9042.2008   -8923.1495   -748.37874    17573.959    7.8630034 
    4110    1045.3253   -9040.5197   -8923.9121    829.59961    17557.904    7.8861393 
    4120    1037.5424   -9040.3607   -8924.6213    2902.5166    17542.755    7.8958477 
    4130    1047.3915   -9042.1136   -8925.2755    4875.7314    17530.002    7.8976727 
    4140    1073.5624   -9045.6734   -8925.9159    5033.0437     17520.88    7.8947603 
    4150     1109.622   -9050.4249   -8926.6449    4655.1559    17515.535    7.8874325 
    4160    1060.9304   -9045.7884     -8927.44    5988.8006    17513.813     7.878692 
    4170    1040.2439   -9044.2768    -8928.236    6402.6249    17516.414    7.8715785 
    4180    1041.1506   -9045.1516   -8929.0097    5813.4281    17523.597    7.8672845 
    4190    997.37359   -9040.9598   -8929.7013    4651.6493    17534.884    7.8675855 
    4200    1017.8542   -9043.8102    -8930.267    2269.9196     17549.32    7.8667702 
    4210    1054.1476   -9048.3321   -8930.7403     25.43261    17565.237    7.8578251 
    4220    1048.7428   -9048.1643   -8931.1755   -1256.9578    17581.042    7.8427545 
    4230    1055.9668   -9049.3971   -8931.6024    -3615.049    17595.599    7.8233203 
    4240    1058.1547   -9050.0669   -8932.0281    -5156.906    17607.359    7.8047187 
    4250    1058.7652   -9050.5954   -8932.4886   -5735.8197    17615.203    7.7967856 
    4260    1034.1532   -9048.3367   -8932.9754   -4603.0849    17618.833    7.8057154 
    4270    1022.2003    -9047.465   -8933.4371   -3237.0904    17619.017    7.8269079 
    4280    1013.8208   -9046.9404   -8933.8471    -1707.556    17616.851    7.8517344 
    4290    981.65899    -9043.652   -8934.1465   -1019.1206    17613.433    7.8762889 
    4300    1032.3324   -9049.5052    -8934.347   -2897.8644     17609.13    7.9047323 
    4310    1065.6186    -9053.396   -8934.5247   -3889.9944    17602.812    7.9416571 
    4320    1006.8236   -9047.0075   -8934.6948   -2973.7907    17593.852    7.9841091 
    4330    986.20225   -9044.7958   -8934.7834   -2483.3222    17582.782    8.0224815 
    4340    1016.6965   -9048.1632   -8934.7492   -2313.3387    17569.999    8.0526773 
    4350    1032.5979    -9049.812   -8934.6242   -956.77264    17555.783     8.078507 
    4360    1081.3433   -9055.1035    -8934.478    340.91871    17541.045    8.1051395 
    4370    1079.5274   -9054.7754   -8934.3525    2119.3784    17526.807    8.1320534 
    4380    1030.4114   -9049.1816   -8934.2377    4297.4162     17514.36    8.1578516 
    4390    1047.8432   -9050.9927   -8934.1042    4351.8749    17505.064    8.1837201 
    4400    1074.1696   -9053.8035   -8933.9782    2381.5851    17498.901    8.2193523 
    4410    1056.4205   -9051.7389   -8933.8936    1947.6217    17494.674     8.260413 
    4420    1070.9947   -9053.3292   -8933.8581    2378.4166    17491.967     8.297634 
    4430    1100.2798   -9056.6031   -8933.8652    2811.0076     17491.03    8.3222334 
    4440    1119.9901   -9058.9252   -8933.9886     3708.532    17492.159    8.3327606 
    4450    1073.3435   -9053.9776   -8934.2445    5140.0786    17496.013    8.3369462 
    4460    1059.7933   -9052.8227   -8934.6012    5155.9492    17503.474    8.3412192 
    4470    1047.3381   -9051.8353   -8935.0031    4441.7944    17514.567    8.3463277 
    4480      1047.14   -9052.2316   -8935.4216    3606.7398    17528.795    8.3535282 
    4490    1071.6253    -9055.399   -8935.8576    2267.3924    17545.507    8.3624851 
    4500    1079.4218   -9056.7407   -8936.3296    978.70672    17563.709    8.3818953 
    4510    1074.3293   -9056.7104   -8936.8674    343.38962    17582.475    8.4077503 
    4520    1064.4586   -9056.2248   -8937.4828   -487.51108    17601.273    8.4229668 
    4530    1025.0692   -9052.4483   -8938.1003    -1208.755     17619.54    8.4312989 
    4540    1035.8263   -9054.2122   -8938.6643   -2749.0622    17636.672    8.4440682 
    4550    1060.1085   -9057.4589   -8939.2022   -4279.7935    17651.565    8.4615656 
    4560    1020.3258   -9053.5364   -8939.7175   -2930.5954     17663.35    8.4849276 
    4570    1030.1677   -9055.1228    -8940.206   -2223.0367    17672.793    8.5152886 
    4580    1024.1035   -9054.8858   -8940.6455    -2919.231    17680.396    8.5484589 
    4590    1024.5176   -9055.3267   -8941.0402   -3880.7251    17685.728    8.5726403 
    4600    1047.0871   -9058.1915   -8941.3874   -4425.1326    17688.131    8.5796969 
    4610    1068.0941   -9060.8803   -8941.7328   -4381.1099    17687.238    8.5738528 
    4620    1040.9836   -9058.2203   -8942.0971   -2815.8389    17683.218    8.5637768 
    4630    1037.3952   -9058.1755   -8942.4525   -1154.5665    17677.135    8.5568761 
    4640    1056.7135   -9060.6624   -8942.7844   -1277.3532    17670.147    8.5561486 
    4650     1047.009   -9059.9213   -8943.1259   -2414.2763     17662.24    8.5538314 
    4660     1016.021   -9056.7945   -8943.4558   -2174.5328    17652.749    8.5490012 
    4670    1027.3335   -9058.3446    -8943.744   -2289.5921    17641.705      8.54725 
    4680    1026.7582   -9058.5111   -8943.9747   -1678.9475    17629.169    8.5468326 
    4690    1021.9608   -9058.1387   -8944.1374   -300.81399    17615.624    8.5432074 
    4700    1067.0235   -9063.3125   -8944.2844    527.89289    17601.999    8.5389896 
    4710    1044.2064   -9060.9324   -8944.4496    1579.2797     17588.96    8.5397073 
    4720    1052.0603   -9061.9916   -8944.6327    2088.1896    17577.207    8.5392394 
    4730    1065.5859   -9063.7104   -8944.8427    2816.4055    17567.153    8.5371817 
    4740    1022.0706   -9059.0804   -8945.0669    4679.2738    17559.379    8.5365963 
    4750     1065.732   -9064.2012   -8945.3172    5746.5159    17555.094    8.5356814 
    4760    1068.9294   -9064.8828   -8945.6421    5748.2337    17555.015    8.5380398 
    4770    1026.2092   -9060.5254   -8946.0503    4272.5822    17559.064    8.5486986 
    4780    1040.6181   -9062.5658   -8946.4833    1234.7762    17566.098    8.5677033 
    4790    1060.9121   -9065.3128   -8946.9665   -824.04542    17574.025    8.5940013 
    4800    1041.3651   -9063.7083   -8947.5425   -1040.0203    17581.342    8.6193873 
    4810    1011.6812   -9061.0368   -8948.1823    276.05758    17587.935    8.6412555 
    4820    1035.7052    -9064.416   -8948.8815    619.83949    17594.575    8.6676506 
    4830    1038.4305     -9065.47   -8949.6316     1601.059    17601.645    8.7035995 
    4840    1014.5774   -9063.5556    -8950.378     2361.477    17609.801    8.7422986 
    4850     1016.154   -9064.4681   -8951.1146    1366.8778    17619.476     8.776829 
    4860    1025.7299   -9066.2335   -8951.8117   -25.670182     17630.04    8.8114285 
    4870    1027.7504   -9067.1181    -8952.471   -2012.5083    17640.418    8.8495004 
    4880    1027.3201    -9067.687   -8953.0879   -3981.5753    17649.183    8.8847565 
    4890    1010.7085   -9066.3878   -8953.6418   -5002.6359    17654.941    8.9184864 
    4900    1039.2367   -9070.0904    -8954.162   -4943.9103    17656.979      8.95514 
    4910    1049.2497   -9071.7197   -8954.6743   -3302.5957    17655.445    8.9982081 
    4920    1039.9109   -9071.2175   -8955.2138   -1690.5667    17651.491     9.039827 
    4930    1003.5285   -9067.6602   -8955.7151   -103.09887    17646.371    9.0779318 
    4940    965.40476    -9063.788   -8956.0957    1586.3343     17641.26    9.1155833 
    4950    990.74505   -9066.8669   -8956.3478    1739.5943    17637.263     9.147315 
    4960     987.7685   -9066.6568   -8956.4698    1791.8758    17634.626    9.1718516 
    4970    1023.3476   -9070.6591   -8956.5031    1244.8149    17633.296    9.1891337 
    4980     1038.333   -9072.2699   -8956.4423    1038.5591    17632.952     9.198381 
    4990    1041.9416   -9072.5623   -8956.3322    211.53327    17633.336    9.1990892 
    5000    1044.2287   -9072.6461   -8956.1608   -436.61593    17633.921    9.2007723 
Loop time of 2226.66 on 16 procs for 3000 steps with 864 atoms

Performance: 0.116 ns/day, 206.172 hours/ns, 1.347 timesteps/s
96.3% CPU use with 16 MPI tasks x 1 OpenMP threads

MPI task timing breakdown:
Section |  min time  |  avg time  |  max time  |%varavg| %total
---------------------------------------------------------------
Pair    | 491.48     | 1221.4     | 2215.6     |1587.5 | 54.85
Bond    | 0.00025582 | 0.00066833 | 0.001328   |   0.0 |  0.00
Neigh   | 0.021278   | 0.054395   | 0.10019    |  11.5 |  0.00
Comm    | 4.3396     | 687.73     | 1558.2     |1736.3 | 30.89
Output  | 0.19957    | 0.2029     | 0.25109    |   2.8 |  0.01
Modify  | 6.346      | 317.28     | 797.34     |1612.5 | 14.25
Other   |            | 0.01335    |            |       |  0.00

Nlocal:        54.0000 ave          86 max          22 min
Histogram: 3 2 1 1 1 0 3 1 0 4
Nghost:        536.375 ave         748 max         349 min
Histogram: 4 0 2 0 2 1 3 1 1 2
Neighs:         0.00000 ave           0 max           0 min
Histogram: 16 0 0 0 0 0 0 0 0 0
FullNghs:      3035.75 ave        6217 max         590 min
Histogram: 5 1 1 1 0 3 1 0 1 3

Total # of neighbors = 48572
Ave neighs/atom = 56.217593
Ave special neighs/atom = 0.0000000
Neighbor list builds = 300
Dangerous builds = 300
Setting up Verlet run ...
  Unit style    : metal
  Current step  : 5000
  Time step     : 0.001
Per MPI rank memory allocation (min/avg/max) = 8.895 | 8.911 | 8.921 Mbytes
Step Temp PotEng TotEng Press Volume c_msd[4] 
    5000    1044.2287   -9072.6461   -8956.1608   -436.61593    17633.921    9.2007723 
    5010    1089.7444   -9077.7511   -8956.1885   -766.28391    17633.689    9.2084086 
    5020    1058.4722   -9074.3393   -8956.2651    726.66369    17633.023    9.2174342 
    5030    1015.6998   -9069.6619    -8956.359    2656.1664     17632.93    9.2237586 
    5040    1033.9891     -9071.76    -8956.417    2244.8044    17634.644    9.2335326 
    5050    1035.5403   -9071.9411   -8956.4251    1550.7416    17638.046    9.2457459 
    5060    1052.7558   -9073.8491   -8956.4126    182.64549    17642.563    9.2526275 
    5070    1063.9995   -9075.0941   -8956.4033   -1071.9972    17647.235    9.2554755 
    5080    1025.8001   -9070.8226    -8956.393   -1098.4568    17651.219    9.2605803 
    5090    1030.0163   -9071.2435   -8956.3436   -1410.0201    17654.384    9.2690817 
    5100    1062.6469   -9074.7794   -8956.2395   -2363.6254     17656.44    9.2791623 
    5110    1058.8073   -9074.2445    -8956.133   -2022.1862    17656.839    9.2936383 
    5120      1052.59   -9073.4574   -8956.0394   -1416.5841     17655.73    9.3060364 
    5130    1062.1309   -9074.4465   -8955.9642   -871.86758    17653.548    9.3067094 
    5140     1026.318   -9070.3649   -8955.8776    444.91084    17650.783    9.2966198 
    5150     1020.748   -9069.5997   -8955.7337    1560.8949    17648.344    9.2827394 
    5160     1062.407    -9074.027   -8955.5139    1533.9495    17646.998    9.2732604 
    5170    1080.6562    -9075.797   -8955.2482    921.27993    17646.762     9.274359 
    5180    1074.5875   -9074.8542   -8954.9824   -509.26712    17647.164    9.2886467 
    5190    1087.4062   -9076.0382   -8954.7364   -3010.9402    17647.089    9.3140657 
    5200    1068.8141   -9073.7519   -8954.5241   -3723.9297     17644.92    9.3400254 
    5210    1070.3678   -9073.7385   -8954.3373    -4833.771    17639.895    9.3543921 
    5220    1078.0231    -9074.441   -8954.1859   -4260.3631    17631.363    9.3580531 
    5230    1063.0946   -9072.6508    -8954.061   -2062.4311     17619.76    9.3609565 
    5240    1067.5692   -9073.0439    -8953.955    -448.2468    17606.556    9.3666039 
    5250    1053.8114    -9071.416   -8953.8618    1412.4996     17593.02    9.3690361 
    5260    1063.7566   -9072.4473   -8953.7836    1965.6783    17580.414    9.3696306 
    5270    1106.8249   -9077.2247   -8953.7567    276.61174    17569.051    9.3724716 
    5280     1089.262   -9075.3461   -8953.8373    686.49062    17558.013    9.3741862 
    5290    1033.7902   -9069.3032   -8953.9823    2006.7162     17547.52     9.367231 
    5300    1056.6869    -9072.005     -8954.13     1189.012    17538.327    9.3508092 
    5310    1073.1463   -9074.0033   -8954.2923     493.7433    17530.015     9.339319 
    5320    1076.9907   -9074.6821   -8954.5422    1238.8573    17522.144    9.3395937 
    5330    1069.1517   -9074.1466   -8954.8811     2583.625    17515.207    9.3461899 
    5340    1074.8467   -9075.1867   -8955.2859    3310.5299    17510.109    9.3526075 
    5350    1091.0414   -9077.4736   -8955.7662    3807.4164    17507.418    9.3578091 
    5360    1065.8662   -9075.2185   -8956.3195    4841.5167    17507.575    9.3611061 
    5370    1070.8925   -9076.3886   -8956.9289    4497.6722    17511.183    9.3570908 
    5380    1086.1723   -9078.7877   -8957.6235    3073.5766    17518.011    9.3416911 
    5390     1060.306   -9076.6839   -8958.4052    2640.1115     17527.17    9.3270824 
    5400    1046.2401   -9075.9208   -8959.2111    2741.8205    17538.359    9.3222965 
    5410    1072.8641   -9079.7047   -8960.0251    709.33778    17551.457    9.3252145 
    5420    1063.0859   -9079.4127   -8960.8238   -1337.3261    17565.127     9.331019 
    5430    1046.1592   -9078.3055   -8961.6049   -2694.0791     17577.87    9.3418967 
    5440    999.32695   -9073.7639   -8962.2874   -2857.2791    17588.749    9.3537653 
    5450    988.06932   -9073.0125   -8962.7919   -3178.5368    17597.544    9.3564659 
    5460    1032.3473   -9078.3171   -8963.1572   -4234.4788    17603.942    9.3494616 
    5470    1070.9709   -9082.9397   -8963.4713   -4320.0308    17607.275    9.3405888 
    5480    1085.8441   -9084.9425   -8963.8149   -3830.0441     17607.43    9.3375807 
    5490    1076.8031   -9084.3319   -8964.2129   -2603.8218    17604.803    9.3456875 
    5500    1044.9139   -9081.1875   -8964.6258   -311.28745    17600.322    9.3677924 
    5510    1051.0887   -9082.2629   -8965.0124    595.58367     17595.49    9.4001823 
    5520    1068.0845   -9084.5432   -8965.3968    119.19513    17591.012    9.4326069 
    5530    1051.6906   -9083.1154   -8965.7978    -419.5014    17586.621    9.4608356 
    5540    1038.9314   -9082.0799   -8966.1856   -435.28562    17581.937    9.4914523 
    5550    1030.5887   -9081.4903   -8966.5266    253.17349    17576.972     9.530364 
    5560    1011.6511   -9079.6466   -8966.7954    1304.5229    17572.208    9.5756962 
    5570    1020.2853   -9080.8025   -8966.9882      1822.62    17568.366    9.6237497 
    5580    1035.7448   -9082.6673   -8967.1284    2131.1893    17565.858    9.6673183 
    5590    1019.9673   -9081.0011   -8967.2222    2446.2572    17564.928    9.6918925 
    5600    1026.5131   -9081.7675   -8967.2584    2445.9686    17565.801    9.6962809 
    5610    1048.2613   -9084.1976   -8967.2625    2727.0002     17568.51    9.6959492 
    5620    1002.8515   -9079.0915    -8967.222    2993.2287    17573.269     9.700117 
    5630    1013.5656   -9080.1753   -8967.1105    1182.6911    17580.126    9.7095437 
    5640    1048.4833   -9083.8628   -8966.9029   -680.11908     17587.92    9.7215941 
    5650    1043.1081   -9082.9988   -8966.6385   -1233.9297    17595.347    9.7341211 
    5660    1077.6281   -9086.5796   -8966.3686   -2187.6095    17601.838    9.7466213 
    5670    1050.1562   -9083.2494   -8966.1029    -1547.123    17606.882     9.763668 
    5680    1033.6134   -9081.1447   -8965.8436   -440.44695    17610.853    9.7763663 
    5690    1054.4334   -9083.1535   -8965.5298   -770.65452    17614.449      9.78431 
    5700     1050.702    -9082.378   -8965.1706   -1184.8862      17617.5     9.796305 
    5710    1035.1709   -9080.2318    -8964.757   -562.02656    17619.782      9.81549 
    5720    1045.6192   -9080.8819   -8964.2415   -584.24093    17621.612    9.8368592 
    5730    1086.4318   -9084.8108   -8963.6177   -1765.3735    17622.938    9.8603624 
    5740    1085.8539   -9084.0639   -8962.9353   -2307.1392    17623.017    9.8868186 
    5750    1078.0108   -9082.4845   -8962.2308   -2521.9296    17621.404    9.9108484 
    5760    1089.2449   -9082.9878   -8961.4809   -1918.6962    17617.926    9.9283396 
    5770    1045.3181   -9077.2821   -8960.6753    976.30829    17613.131     9.942065 
    5780    1058.5612   -9077.8804   -8959.7963    2764.6557    17608.923    9.9561917 
    5790    1088.2421   -9080.2249   -8958.8299    3570.0875     17606.67    9.9726138 
    5800    1076.5935   -9077.9829   -8957.8873    3482.0134    17607.011    9.9896126 
    5810    1102.6749   -9080.0094   -8957.0043    1430.7554    17609.838    9.9988255 
    5820    1111.7695   -9080.2167   -8956.1972    -882.6854    17613.752    9.9978368 
    5830    1118.0366   -9080.2482   -8955.5295   -1246.1978    17617.205    9.9937964 
    5840    1114.9199   -9079.3897   -8955.0187   -40.441269    17619.863    9.9899197 
    5850    1085.5601   -9075.7437   -8954.6479    1073.8856    17622.523    9.9854555 
    5860     1090.998   -9076.0802   -8954.3777   -215.99289    17625.855    9.9863083 
    5870    1086.0419   -9075.3431   -8954.1935   -1910.6238    17629.045    9.9987564 
    5880     1100.284   -9076.8566   -8954.1183   -3243.9128    17630.881    10.016564 
    5890    1107.3224   -9077.7013   -8954.1779   -4609.1458    17630.302    10.042232 
    5900    1100.9493   -9077.2023   -8954.3897   -4247.5302    17626.398    10.077279 
    5910    1132.6408   -9081.1087   -8954.7609   -2366.5424    17619.383    10.111809 
    5920    1126.5858    -9080.999   -8955.3267   -288.18879    17610.498    10.140191 
    5930    1067.9334   -9075.1482   -8956.0186    2034.4803    17601.306    10.166467 
    5940    1043.1582   -9073.1028    -8956.737    4494.2284    17593.545    10.187807 
    5950    1041.8618   -9073.6472   -8957.4259    4969.8815    17588.878    10.200699 
    5960    1073.3327   -9077.8791   -8958.1472    4027.9033    17587.763     10.21207 
    5970    1071.5541   -9078.4389   -8958.9055    3627.7487    17589.692    10.228396 
    5980    1041.9285   -9075.8969   -8959.6682    3508.6791     17594.37    10.249203 
    5990    1034.2106   -9075.7121   -8960.3444     2119.424    17601.673     10.26783 
    6000    1095.0171    -9083.132   -8960.9812   -421.86007    17610.585    10.278715 
    6010    1092.3629   -9083.4711   -8961.6164   -659.53922    17619.512    10.286617 
    6020    1071.9315   -9081.8303   -8962.2548    409.32069    17628.201    10.297346 
    6030    1058.7672   -9080.9349   -8962.8278   -212.30911    17637.231    10.310843 
    6040    1057.8339   -9081.2993   -8963.2963   -2688.8716    17646.145    10.321192 
    6050    1052.9897     -9081.14   -8963.6775   -4443.7533    17653.256     10.32774 
    6060    1031.1363   -9078.9934   -8963.9686   -4414.5185    17657.291    10.334029 
    6070    1058.7775   -9082.2977   -8964.1895   -5103.0757    17658.023    10.335262 
    6080    1062.6757   -9082.9396   -8964.3966    -5033.348    17654.994    10.334187 
    6090    1022.8105    -9078.671    -8964.575   -3831.0463    17648.193    10.332157 
    6100    1058.4085   -9082.7834   -8964.7164   -3232.5668    17638.327    10.330902 
    6110    1079.5556   -9085.2756   -8964.8495    -1666.464    17625.902    10.332746 
    6120     1078.433   -9085.3246   -8965.0238     743.1289    17612.041    10.337619 
    6130    1078.2164   -9085.5103   -8965.2337    2129.7654    17598.391    10.341731 
    6140    1061.3315   -9083.8725   -8965.4794    3477.4931    17586.105     10.34743 
    6150    1053.6907   -9083.2797   -8965.7389     2151.982    17576.008    10.354136 
    6160    1079.3473   -9086.4324   -8966.0296   -148.65256    17567.267    10.349457 
    6170     1080.113   -9086.8511   -8966.3629     234.3867    17558.444    10.337786 
    6180    1068.8884   -9085.9899   -8966.7537    1128.0424    17549.664    10.332653 
    6190    1056.2607    -9085.009   -8967.1815    404.60958    17541.438    10.332764 
    6200    1051.0018   -9084.8398    -8967.599   -1071.0777    17533.318    10.331185 
    6210    1070.0599   -9087.3892   -8968.0224   -2164.2361    17524.247    10.328447 
    6220    1062.3743   -9086.9735   -8968.4641   -1521.3492    17513.503    10.330781 
    6230      1040.64   -9084.9804   -8968.8954   -352.99688    17501.424    10.338506 
    6240    1047.6981   -9086.1739   -8969.3016    1160.7313    17488.864    10.359213 
    6250    1048.0895   -9086.6265   -8969.7105    2614.0778    17476.874    10.397263 
    6260    1021.1344   -9084.0102   -8970.1011     4491.751    17466.615     10.44089 
    6270    1044.9809   -9087.0301   -8970.4609    4618.3573     17459.33    10.473869 
    6280    1063.4234   -9089.4549   -8970.8284    4953.4981    17455.323    10.496568 
    6290    1045.4261   -9087.8418   -8971.2229    5501.3431    17454.895    10.517054 
    6300    1029.3241    -9086.435   -8971.6123    5512.5925    17458.485    10.533211 
    6310    1040.3424   -9088.0209   -8971.9691     4163.955    17466.142    10.538163 
    6320    1057.5879   -9090.2925    -8972.317    1655.3653    17476.956    10.537433 
    6330    1031.1407   -9087.6869   -8972.6616    1277.6602    17489.419    10.540728 
    6340    1036.3201   -9088.5991    -8972.996    671.23159    17503.099    10.551999 
    6350    1047.0923   -9090.0908   -8973.2861   -1580.4265    17517.488    10.570766 
    6360    1037.3492   -9089.2704   -8973.5525   -4271.3923    17531.009     10.58916 
    6370     1040.323   -9089.8414   -8973.7918   -6436.7592    17541.712    10.602258 
    6380    1068.1609   -9093.1994   -8974.0444   -7458.0577    17547.952    10.610675 
    6390    1048.9374   -9091.3779   -8974.3674   -6530.7896    17548.908    10.621389 
    6400    1013.5592   -9087.7832   -8974.7192      -4738.9    17545.079     10.64183 
    6410    1034.9156   -9090.5063   -8975.0599   -3559.9381    17537.591    10.662368 
    6420     1059.664   -9093.6191    -8975.412   -2695.6146    17527.296    10.672031 
    6430    1047.3262   -9092.6589   -8975.8281   -1531.8872    17514.816    10.670645 
    6440    1044.0874   -9092.7694   -8976.2998   -1400.1591    17500.859    10.667857 
    6450    1071.0297   -9096.3332   -8976.8582    -1444.915    17485.556    10.674216 
    6460    1072.3341   -9097.1634   -8977.5429    15.957494    17468.957    10.699229 
    6470    1029.9514   -9093.2413   -8978.3487    2289.8547    17452.068    10.743651 
    6480    990.06612   -9089.6031   -8979.1597    4378.9788    17436.538    10.792496 
    6490     1010.859    -9092.709   -8979.9461    4405.0122    17423.809    10.825016 
    6500       1047.3   -9097.6177   -8980.7898    3248.3014    17413.987     10.83775 
    6510    1038.9514   -9097.5794   -8981.6829    2806.0296    17406.435     10.84854 
    6520     1034.385   -9097.9921   -8982.6049    1897.3128    17400.767    10.860719 
    6530    1023.4808   -9097.6741   -8983.5033    1146.8923    17396.395    10.863652 
    6540    1013.6179   -9097.3926    -8984.322    1527.9525    17392.842    10.866466 
    6550    992.23425   -9095.6986   -8985.0134     3031.034    17390.416    10.873907 
    6560     989.4033   -9095.9134    -8985.544    3598.5564    17390.111    10.880145 
    6570    1007.6611   -9098.3428   -8985.9367    2273.0512    17392.309    10.882225 
    6580    993.54381    -9097.031   -8986.1997     1193.005    17396.267    10.885633 
    6590    994.59422   -9097.2791   -8986.3306    777.30119    17401.233    10.890439 
    6600    1014.6323   -9099.5239   -8986.3402    1151.5391    17406.924    10.892096 
    6610    1005.2955   -9098.3962    -8986.254    1366.0296    17413.587     10.89573 
    6620    1017.9695   -9099.6515   -8986.0955   -435.60009    17421.265    10.902741 
    6630    1029.9756   -9100.7619   -8985.8666   -3209.2146     17428.72    10.904537 
    6640    1015.6748   -9098.9006   -8985.6006   -4268.0561    17434.095     10.89916 
    6650    985.44026   -9095.2019   -8985.2746   -4179.2037    17436.508    10.895208 
    6660    1010.8657   -9097.6502   -8984.8866   -4345.2698     17435.87    10.898597 
    6670    982.85333   -9094.0585   -8984.4197   -2609.0695    17432.183    10.907867 
    6680    968.89897   -9091.9571   -8983.8749   -487.24866    17426.543    10.917641 
    6690    1040.4185   -9099.2869   -8983.2267   -632.07809    17420.296    10.929246 
    6700    1044.7657   -9099.1003   -8982.5551   -875.74817    17413.482    10.939288 
    6710    1029.0831   -9096.7745   -8981.9788   -803.85062    17405.905    10.947717 
    6720    1043.4647   -9097.8765   -8981.4764    652.34365     17397.72    10.957412 
    6730    1038.9186   -9096.9321   -8981.0392    2771.1143    17389.921    10.966975 
    6740    1023.2119   -9094.7943   -8980.6535    4569.2383        17384    10.971494 
    6750    1032.3657   -9095.4759    -8980.314    5237.5185    17381.216    10.967252 
    6760    1048.6713   -9096.9921   -8980.0112    5868.1157    17382.195    10.957139 
    6770    1018.8903   -9093.4017   -8979.7429    6682.2671      17387.5    10.938983 
    6780    1016.1622   -9092.8479   -8979.4935    5422.3681    17397.645    10.906666 
    6790    1039.9301   -9095.2442   -8979.2384    2884.8455    17411.837    10.861528 
    6800    1013.6061   -9092.0223    -8978.953     1751.223    17428.483    10.815481 
    6810    1004.9316   -9090.6941   -8978.5925    580.27186    17446.655    10.779967 
    6820    1034.2857   -9093.5079   -8978.1318   -1494.7874     17465.44    10.762639 
    6830    1036.8287    -9093.287   -8977.6272   -2768.9295    17483.395    10.765869 
    6840    1003.3706   -9089.0538   -8977.1263   -2211.3648    17499.645    10.783551 
    6850    993.62789   -9087.4441   -8976.6034   -2311.1377    17514.366    10.803181 
    6860    1028.9914   -9090.8123   -8976.0268   -2510.5733    17527.539    10.815717 
    6870    1059.8751   -9093.6535   -8975.4228   -2231.0023    17539.015    10.818547 
    6880    1060.3881   -9093.1584   -8974.8705   -1974.6863    17548.931    10.817351 
    6890    1042.8077   -9090.7174   -8974.3907   -1323.4431    17557.531    10.821103 
    6900    1018.7438   -9087.5874    -8973.945    -1434.824    17565.184    10.833253 
    6910    1010.0906   -9086.1436   -8973.4665    -2509.814    17571.781    10.855121 
    6920    1044.8576   -9089.4991   -8972.9437   -3137.5291    17576.622    10.890416 
    6930    1069.9442   -9091.7779    -8972.424    -2373.562    17579.299    10.937328 
    6940    1055.5576   -9089.7144   -8971.9654   -1682.3794    17580.233    10.984648 
    6950    1042.3758   -9087.8296    -8971.551   -1023.2227    17579.947    11.021002 
    6960    1054.5784    -9088.777   -8971.1372   -7.9711503    17578.911    11.041308 
    6970    1060.2823   -9089.0114   -8970.7353    1749.5595    17577.916    11.051674 
    6980    1063.5844     -9089.02   -8970.3756    3234.5465     17578.19    11.058829 
    6990    1069.4915   -9089.3613   -8970.0579    4360.4005    17580.859    11.067284 
    7000    1099.9903   -9092.5163   -8969.8108    4236.6159    17586.692    11.080533 
    7010    1080.5203   -9090.1975   -8969.6639    4170.9087    17595.733    11.095958 
    7020    1045.1476    -9086.196   -8969.6082    3535.4873    17607.914    11.109126 
    7030    1047.6222   -9086.4079   -8969.5441    1661.1866    17622.794    11.115076 
    7040     1068.827   -9088.7064   -8969.4772    338.21633     17639.09    11.114764 
    7050     1037.157   -9085.1088   -8969.4124    219.55348    17655.867    11.119477 
    7060    1103.2008   -9092.4322   -8969.3685   -1335.1077    17672.837    11.133454 
    7070    1113.9168   -9093.6591      -8969.4   -1605.9714    17689.057     11.15361 
    7080    1077.4033   -9089.7522   -8969.5662   -1074.9149    17704.261     11.17328 
    7090    1087.2481   -9091.1213   -8969.8372   -2009.1042    17718.636    11.185581 
    7100    1071.8489   -9089.7646   -8970.1983   -2520.6359    17731.649    11.190368 
    7110    1076.9078    -9090.778   -8970.6473   -3365.4215    17742.841     11.19126 
    7120    1076.4583   -9091.2937   -8971.2132   -3942.1648    17751.578    11.194709 
    7130    1035.9042   -9087.4119   -8971.8552   -2518.8041    17757.553    11.204364 
    7140    1059.8081   -9090.7796   -8972.5564    -1669.349    17761.614    11.217014 
    7150    1067.1036   -9092.3866   -8973.3496   -1278.4134    17764.418    11.227418 
    7160     1036.646   -9089.8536   -8974.2142   -723.29266    17766.314    11.237414 
    7170    1046.4671   -9091.8559   -8975.1209   -695.28428    17767.666    11.247118 
    7180    1036.4139   -9091.6665    -8976.053    -916.7767    17768.491    11.255222 
    7190    1033.1228   -9092.2111   -8976.9647   -1081.0686    17768.635    11.262953 
    7200     1054.935   -9095.5132   -8977.8336   -1916.1451    17767.916    11.268881 
    7210    1047.2247    -9095.468   -8978.6485   -1707.0707    17765.817    11.271865 
    7220    996.36524   -9090.4799   -8979.3339    55.683436    17762.511    11.267735 
    7230    1003.9662   -9091.8406   -8979.8466    964.82276     17759.16    11.256109 
    7240    1055.1381   -9097.9456   -8980.2433    436.21923    17756.421    11.243679 
    7250    1050.0032   -9097.7081   -8980.5787    936.90023    17754.084     11.23663 
    7260    1032.8233   -9096.0659   -8980.8529    1669.3485    17752.451    11.235936 
    7270    1024.7576   -9095.3571   -8981.0438    2222.5081    17752.057    11.237624 
    7280     993.6602    -9091.975   -8981.1307    3302.6268    17753.354    11.241165 
    7290    996.76996    -9092.297   -8981.1058    3759.8459    17757.103    11.246917 
    7300    1013.7815   -9094.0761   -8980.9873    3463.9607    17763.688    11.248575 
    7310    1018.2622   -9094.4091   -8980.8204    3063.3765    17772.939     11.23804 
    7320    1037.3372   -9096.3513   -8980.6348    2563.7252    17784.589    11.218821 
    7330     1027.705    -9095.078    -8980.436    1808.7088     17798.29    11.203347 
    7340    1032.5919   -9095.4119   -8980.2247   -73.068547     17813.39    11.197337 
    7350    1069.1602   -9099.2765   -8980.0101   -2288.1309    17828.514    11.196372 
    7360    1078.3729   -9100.1333   -8979.8392   -2993.1006    17842.106    11.189282 
    7370      1080.22   -9100.2574   -8979.7573   -2077.4263    17853.623    11.173373 
    7380    1067.4744   -9098.8322   -8979.7538   -1047.2354    17863.626    11.161073 
    7390    1052.4356   -9097.1639   -8979.7631   -577.65394    17872.842    11.155385 
    7400    1065.7871   -9098.6557   -8979.7656   -1314.4308    17881.574    11.150934 
    7410    1051.9166   -9097.1191   -8979.7762   -3267.6641    17889.258    11.150693 
    7420    1009.3073   -9092.3558    -8979.766   -4632.9882    17894.503    11.153791 
    7430    1012.9489    -9092.678   -8979.6821   -4653.1596    17896.312    11.154339 
    7440    1064.9465   -9098.3383   -8979.5419   -4824.9708     17894.55    11.150082 
    7450    1072.1861    -9099.036    -8979.432   -3547.1225    17889.217    11.144812 
    7460    1041.0157   -9095.5041   -8979.3773   -1279.0713    17881.205    11.147433 
    7470    1036.8211   -9094.9758   -8979.3168    1044.2151    17872.201    11.158229 
    7480    1060.4576    -9097.532   -8979.2363    2701.9746    17863.924    11.172033 
    7490    1052.0792    -9096.515    -8979.154    3872.1051    17857.661    11.185041 
    7500    1078.5932   -9099.4302   -8979.1115    4241.8759    17854.278    11.196343 
    7510    1084.8968   -9100.1486   -8979.1267    5160.0476    17854.187    11.208007 
    7520    1069.8821   -9098.5576   -8979.2106    5470.2818    17858.005    11.230356 
    7530    1078.3807   -9099.6554   -8979.3604    3983.4587    17865.864    11.262908 
    7540    1055.8268     -9097.35   -8979.5709    2846.3991     17876.82    11.294885 
    7550    1025.1119   -9094.1458    -8979.793    1886.1551    17890.035    11.317117 
    7560    1058.3782   -9098.0607    -8979.997   -393.93316    17904.644    11.325387 
    7570    1049.5301   -9097.2953   -8980.2186   -1000.3428    17919.111    11.322228 
    7580    1013.8328   -9093.5734   -8980.4788   -375.96053     17932.92    11.308889 
    7590    1013.1798   -9093.7509   -8980.7291   -343.75986    17946.441    11.292682 
    7600    1035.5409   -9096.4715   -8980.9554   -1448.9236    17959.662    11.289643 
    7610    1061.6069    -9099.637   -8981.2131   -2586.9977    17971.807    11.303003 
    7620    1009.3203   -9094.1052    -8981.514   -1983.5552    17982.127    11.320912 
    7630    989.67595   -9092.1692   -8981.7694   -2103.2471    17990.915    11.336597 
    7640    1051.3338     -9099.24   -8981.9621   -3253.0581    17998.027    11.345133 
    7650    1042.1003   -9098.3991   -8982.1512   -2147.5119    18002.814    11.343978 
    7660    1021.6397    -9096.314   -8982.3485   -841.58654    18005.945    11.344076 
    7670    1039.3097   -9098.4698   -8982.5333   -514.94878    18008.367    11.350727 
    7680    1024.2463   -9096.9434   -8982.6871    -158.5898     18010.44    11.353467 
    7690    1056.1489   -9100.6447   -8982.8296   -1952.3088    18012.215    11.347327 
    7700    1084.2636   -9103.9752   -8983.0239   -4087.7364    18012.427     11.34573 
    7710    1037.3426   -9099.0044   -8983.2873   -3512.7669    18009.689    11.345736 
    7720    1058.0509   -9101.6343   -8983.6071   -3316.6363    18004.152    11.334417 
    7730    1059.4086   -9102.1478   -8983.9691   -2603.2744    17996.072     11.31115 
    7740    1045.3666   -9100.9741   -8984.3619   -1516.6214    17985.988    11.289002 
    7750    1072.5499   -9104.4402   -8984.7956   -1027.4646    17974.636    11.282196 
    7760    1046.1703   -9101.9727   -8985.2709     532.4296    17962.538     11.28609 
    7770    996.01144    -9096.809   -8985.7025    2086.2577    17950.827    11.290724 
    7780     1014.566    -9099.225   -8986.0486     2519.742    17940.627    11.290343 
    7790    1038.5838   -9102.1946   -8986.3391    2783.1498    17932.346    11.283527 
    7800    1042.2916   -9102.8983   -8986.6291    2984.0827    17926.169    11.272247 
    7810    1028.5243   -9101.6513   -8986.9178    2747.6421    17922.267    11.264584 
    7820    1039.0605   -9103.1139   -8987.2052    1391.5013    17920.362    11.270843 
    7830    1035.7302   -9103.0189   -8987.4817    1419.2264    17919.638    11.288751 
    7840     1036.122   -9103.3257   -8987.7448    1547.6675    17920.015    11.304888 
    7850    1048.4269    -9104.949   -8987.9954    1238.2747    17921.555    11.316939 
    7860    1037.4048   -9103.9753   -8988.2513     1576.209    17924.098    11.325618 
    7870    998.79337   -9099.8859    -8988.469    2452.8288    17927.941    11.328674 
    7880    1037.4745   -9104.3711   -8988.6393    338.55578    17933.476    11.331048 
    7890    1069.2775   -9108.0814   -8988.8019   -2428.3087    17939.262    11.345203 
    7900    1032.3805   -9104.1604   -8988.9968    -2193.654    17943.436     11.37295 
    7910     1014.842   -9102.3845   -8989.1774   -1738.3971    17945.951    11.407415 
    7920    1008.5305    -9101.789   -8989.2859   -2505.9468    17947.061    11.445431 
    7930    1006.3765   -9101.5696   -8989.3068   -3222.2964    17946.257    11.486804 
    7940    1036.3435   -9104.8703   -8989.2646   -3546.1165    17942.979    11.531182 
    7950    1026.7981   -9103.7101   -8989.1692   -2316.3645    17937.071     11.57644 
    7960    1029.7152   -9103.8851   -8989.0188   -1780.2214    17929.277    11.614405 
    7970    1064.1715   -9107.5262   -8988.8162   -2356.3618    17919.979    11.639621 
    7980    1057.0656   -9106.5065   -8988.5893   -2049.1784    17908.886    11.654354 
    7990     1046.927   -9105.1067   -8988.3204   -1427.2662    17896.197    11.667111 
    8000    1060.5802   -9106.3037   -8987.9944   -1119.1118    17882.345    11.686866 
    8010    1042.4277   -9103.8877   -8987.6033    19.998541    17867.644    11.710067 
    8020    1058.3672   -9105.2133   -8987.1508    1052.1133    17852.872    11.731767 
    8030     1071.166   -9106.1418   -8986.6517    2435.4798    17838.886    11.754873 
    8040    1022.3088   -9100.1519   -8986.1118    4542.5137     17826.79    11.779509 
    8050    1047.7074   -9102.3858   -8985.5124    4622.2935     17817.99    11.797257 
    8060    1104.7606   -9108.1087    -8984.871    2700.7488    17812.547    11.803018 
    8070    1068.4671   -9103.4619   -8984.2728    1644.2303    17809.228    11.803214 
    8080    1060.2687   -9101.9988   -8983.7242    208.11275    17807.105     11.80059 
    8090    1091.7883    -9104.966   -8983.1753   -1062.6227    17805.137    11.796677 
    8100    1097.0513   -9105.0643   -8982.6866   -1091.5123    17802.443    11.797647 
    8110    1054.9585   -9099.9556   -8982.2734    299.13311    17799.027    11.807273 
    8120    1042.1299   -9098.1247   -8981.8735    993.53343    17795.771    11.822496 
    8130    1079.5038   -9101.8647   -8981.4445    1252.7518    17793.242    11.834285 
    8140    1091.4702   -9102.7997   -8981.0445    1856.2039    17791.662    11.835642 
    8150    1058.9512   -9098.8495   -8980.7219    2799.0796    17791.524    11.827912 
    8160    1064.9439   -9099.2487   -8980.4526    1482.8634    17793.341    11.816222 
    8170    1068.4669   -9099.3913   -8980.2022   -254.19018    17796.303    11.806966 
    8180    1064.6818   -9098.7322   -8979.9654   -2024.8428    17799.115    11.803474 
    8190    1102.8774   -9102.7718   -8979.7442   -4462.3696    17800.356    11.808127 
    8200     1097.522   -9102.0174   -8979.5872   -4849.0877    17798.369    11.815001 
    8210    1072.2664   -9099.1225   -8979.5095    -3490.505    17792.837    11.817367 
    8220    1109.0221   -9103.2249   -8979.5118   -2855.1042    17784.554    11.815794 
    8230    1100.5495   -9102.3844   -8979.6164   -1293.3305    17774.179    11.805574 
    8240    1092.5186   -9101.7368   -8979.8647    -795.5694    17762.716    11.780371 
    8250    1084.1139   -9101.1706    -8980.236   -1118.7973    17750.565    11.746856 
    8260    1097.4694   -9103.1865   -8980.7621   -1437.4348    17737.532    11.711494 
    8270    1067.0725    -9100.473   -8981.4394   -549.16814    17723.472    11.684831 
    8280    1029.9942   -9097.0983   -8982.2009    1324.3187    17709.044    11.674302 
    8290    1030.6889   -9097.9697   -8982.9948    2684.6036    17695.552    11.672879 
    8300    1029.8612   -9098.6786   -8983.7961    3414.9629     17684.02    11.676684 
    8310    1050.9108   -9101.8496   -8984.6189    2928.9082    17674.956    11.688252 
    8320    1069.6991   -9104.8223   -8985.4958    2000.8337    17668.068    11.702713 
    8330    1065.0944     -9105.23   -8986.4172    1041.8379     17662.67    11.711907 
    8340    1073.4355   -9107.0972   -8987.3539   -914.70231    17657.959    11.719011 
    8350    1058.7916   -9106.3934   -8988.2836    -1830.933    17652.637    11.726618 
    8360     1025.256   -9103.4858   -8989.1169   -1163.4383    17646.059    11.731014 
    8370    1037.4887   -9105.5814   -8989.8479   -939.03511     17638.54    11.734128 
    8380    1018.1237   -9104.0148   -8990.4416    508.92345     17630.42    11.739466 
    8390    1027.7125   -9105.5236   -8990.8807    2201.1274    17622.698    11.743567 
    8400    1044.1949   -9107.6705    -8991.189    2758.6926    17616.525    11.737722 
    8410    1063.3789   -9110.0823   -8991.4608    2283.2709    17612.323     11.71872 
    8420    1057.9296   -9109.7363   -8991.7227    1776.7108    17609.814    11.696352 
    8430    1081.0583   -9112.5825   -8991.9888    1006.6769    17608.624    11.682346 
    8440    1092.5422    -9114.182   -8992.3072    115.75279    17608.182    11.686024 
    8450    1055.4057   -9110.3963   -8992.6642   -1005.5934    17607.826    11.703386 
    8460     1046.275   -9109.7205   -8993.0069   -3147.0722    17606.644    11.720461 
    8470    1033.0456   -9108.5437   -8993.3059   -3792.4154    17603.228    11.733844 
    8480    1025.5276   -9107.9397   -8993.5406   -3137.7703    17597.094    11.748078 
    8490    1044.8432   -9110.2746   -8993.7208   -2740.8652    17588.599    11.765639 
    8500    1022.1702     -9107.88   -8993.8553   -1276.1077    17578.139    11.777811 
    8510    1000.2007   -9105.4836   -8993.9098    19.193864    17566.733    11.776478 
    8520    1035.7807   -9109.4297   -8993.8868   -769.70807    17555.212    11.767659 
    8530     1041.764   -9110.0335   -8993.8231   -1645.0927     17543.12    11.755758 
    8540    1043.8439   -9110.1852   -8993.7428   -889.12214    17529.939    11.742772 
    8550    1067.4639   -9112.7324   -8993.6552    629.91289    17516.156    11.733658 
    8560    1050.7442   -9110.7888   -8993.5767    2854.0105    17502.905    11.737011 
    8570    1032.3517   -9108.6507   -8993.4903    3894.6842    17491.677    11.754573 
[...]
   22890     1053.122   -9178.7305   -9061.2532    3177.8154    17448.778    24.435262 
   22900    1055.7773   -9179.7313   -9061.9577      4758.36    17446.796    24.426337 
   22910    1063.2128    -9181.291    -9062.688    6480.5342      17448.3    24.426653 
   22920    1041.7321   -9179.6545   -9063.4477    7764.6372     17454.53    24.431353 
   22930    1034.6855   -9179.6242   -9064.2035    7152.5296    17466.329    24.439546 
   22940    1054.3005   -9182.5555   -9064.9467     4835.502    17483.272    24.454631 
   22950    1018.7416   -9179.2826   -9065.6405    3377.8976    17503.895    24.477321 
   22960     1012.042   -9179.0999   -9066.2051    732.51388     17527.02    24.502285 
   22970    1033.5691    -9181.923   -9066.6268   -3528.3893    17550.614    24.526777 
   22980    993.77049   -9177.7514   -9066.8948   -5834.2134      17571.8    24.545938 
   22990    999.16988   -9178.4907   -9067.0318   -7406.1932    17588.762    24.552549 
   23000    1039.0116     -9182.98   -9067.0767   -8088.6268    17600.347    24.550411 
   23010    1039.4996   -9183.0588    -9067.101   -7507.5882    17606.043    24.551821 
   23020    1012.9574   -9180.1247   -9067.1278    -5548.889    17606.293    24.560156 
   23030    1012.8021    -9180.084   -9067.1045   -4732.6869    17602.362    24.571441 
   23040    1036.0805   -9182.6074   -9067.0311   -4442.9543    17594.881    24.586921 
   23050    1039.2645    -9182.856   -9066.9245   -2014.9547    17584.266    24.609244 
   23060    1059.7353   -9185.0028   -9066.7877    1333.6856     17572.17    24.632713 
   23070    1058.3773   -9184.7034   -9066.6398    5882.2794    17561.133    24.651129 
   23080    1013.4923    -9179.544   -9066.4874    9049.4871    17554.341    24.667503 
   23090    1042.9462   -9182.6731   -9066.3309    9068.6157    17554.013    24.688094 
   23100    1064.7034   -9184.9725   -9066.2033    8641.0776    17560.346    24.712351 
   23110    1007.6023   -9178.5261   -9066.1265    9226.4539    17573.179     24.74741 
   23120    1028.1462   -9180.7626   -9066.0713    7116.8518     17592.68    24.797436 
   23130    1005.7655   -9178.1495   -9065.9549    4947.1727    17617.568    24.850155 
   23140    1026.8977   -9180.3293   -9065.7773    1733.1559     17646.15    24.888409 
   23150    1084.2574   -9186.4853   -9065.5348   -2092.7302    17676.053    24.912981 
   23160    1028.7287   -9180.0415   -9065.2853   -3305.2102    17704.636    24.937605 
   23170    1025.7021   -9179.4627   -9065.0441    -3687.172    17730.793    24.970838 
   23180    1004.7577   -9176.8316   -9064.7494   -3229.4818    17754.248    25.013778 
   23190    984.01064   -9174.1799   -9064.4121   -3434.1838    17775.199    25.059934 
   23200    1016.2504   -9177.3582   -9063.9939   -5500.1145    17793.383    25.107861 
   23210    1038.5933   -9179.3825   -9063.5258   -6751.0218    17807.433      25.1533 
   23220    1054.4296   -9180.7186   -9063.0954   -7400.9783    17816.341    25.188635 
   23230    1050.4009   -9179.9292   -9062.7554   -6745.5477    17819.705    25.209762 
   23240    1010.9775   -9175.2628   -9062.4868   -5615.4579    17817.965    25.226882 
   23250    1031.0945   -9177.2496   -9062.2295   -5426.6129    17811.903    25.256008 
   23260    1049.1836   -9178.9949   -9061.9568    -4719.541    17801.822    25.301501 
   23270    1028.2998   -9176.4032   -9061.6948   -3416.7052    17788.305    25.350635 
   23280    1050.8438   -9178.6843    -9061.461   -1948.1701    17772.308    25.383996 
   23290    1029.5406   -9176.0767   -9061.2299    1675.2005    17755.104    25.395455 
   23300    1010.5146   -9173.6917   -9060.9673     5066.678    17739.262    25.388615 
   23310    1043.1972   -9177.0409   -9060.6707     5924.379    17727.153    25.374527 
   23320    1064.1462   -9179.0935   -9060.3864    6372.1728    17719.547    25.372338 
   23330    1055.5605   -9177.9036   -9060.1542    7226.2066    17716.821    25.391078 
   23340     1038.616   -9175.8266   -9059.9674    7061.7892    17719.452    25.413987 
   23350     1053.772   -9177.3486   -9059.7987    6366.4849    17727.335    25.425689 
   23360    1076.2474   -9179.7088   -9059.6518    4547.3728    17739.851    25.429489 
   23370    1062.5481   -9178.0551   -9059.5263    3117.7672    17755.752    25.433283 
   23380    1070.0459   -9178.8019   -9059.4366    1816.9556    17773.903     25.44792 
   23390     1045.904    -9176.024   -9059.3518    986.46165    17793.355    25.483415 
   23400    1061.2366   -9177.6546    -9059.272    79.608298    17813.449     25.53588 
   23410    1079.3325   -9179.6121    -9059.211   -866.69727    17833.464    25.584671 
   23420    1057.2461    -9177.145   -9059.2076   -1041.9989    17852.743    25.614213 
   23430     1053.497   -9176.7637   -9059.2446   -1532.1933    17871.082    25.628515 
   23440    1059.9569   -9177.5357   -9059.2959   -2248.7499    17888.113     25.64535 
   23450    1054.2202   -9176.9557   -9059.3559   -2144.2952    17903.387     25.66858 
   23460    1058.9397   -9177.5564   -9059.4301   -2353.1884    17916.879    25.694353 
   23470    1066.6442   -9178.5215   -9059.5357   -2290.7421    17928.506    25.726359 
   23480    1060.8423   -9178.0298   -9059.6912   -1906.7711    17938.313    25.764317 
   23490    1047.1676   -9176.6908   -9059.8777   -2013.0341    17946.557     25.80012 
   23500    1067.8988    -9179.233   -9060.1072   -2877.2088     17953.12     25.83545 
   23510    1033.0282   -9175.6017   -9060.3658   -2380.3973    17957.544    25.874406 
   23520    1023.2062   -9174.7779   -9060.6377   -2235.5171     17960.09    25.919867 
   23530    1044.8607   -9177.4661   -9060.9103   -2426.2068    17960.875    25.969459 
   23540    1043.6258    -9177.644    -9061.226   -1290.3995    17959.903    26.013924 
   23550    1022.3244   -9175.6069    -9061.565    441.66897    17957.982     26.04147 
   23560    1054.9066   -9179.6122   -9061.9358    1036.2196    17956.329    26.045969 
   23570    1034.7979   -9177.7892   -9062.3559    837.12833    17955.447    26.037287 
   23580    1012.5667   -9175.7379   -9062.7845    21.311326    17955.203    26.016237 
   23590     1057.679    -9181.226   -9063.2404   -2073.6714    17954.877     25.98399 
   23600    1035.4211   -9179.2459   -9063.7431   -2360.9775    17953.082    25.953046 
   23610    1050.0154   -9181.4157   -9064.2849    -1472.956    17949.555    25.934669 
   23620    1075.4597   -9184.8817   -9064.9126   -137.45442    17944.929    25.924962 
   23630    1038.4345   -9181.4452   -9065.6062    988.04937    17940.221    25.922412 
   23640    1041.4713   -9182.5057    -9066.328    411.38156    17936.181    25.935664 
   23650    1042.2144   -9183.3313   -9067.0707    -202.4637    17932.455    25.969163 
   23660    1028.8329   -9182.5709   -9067.8031   -143.90388    17928.651    26.020261 
   23670    1058.7606   -9186.6623    -9068.556    4.3639603    17924.759    26.079755 
   23680    1023.2838   -9183.4453   -9069.2964    948.74252    17920.962    26.133093 
   23690    1040.1577   -9186.0133   -9069.9821     312.2981    17917.793     26.16275 
   23700    1077.5094   -9190.8758    -9070.678   -554.10713    17914.873    26.162139 
   23710    1021.4498   -9185.3026   -9071.3583    16.186061    17911.655    26.149316 
   23720    973.94372   -9180.5604   -9071.9155      179.113    17908.456    26.148825 
   23730    1010.1867   -9185.0024   -9072.3145   -1814.7355    17905.256    26.165052 
   23740    1025.3263   -9186.9878   -9072.6111    -3614.098    17900.687    26.190219 
   23750    980.99343   -9182.2456   -9072.8143   -2496.1662    17893.574    26.208071 
   23760    1001.1997    -9184.567   -9072.8817     72.70105    17884.689    26.205284 
   23770    1050.9631    -9190.074   -9072.8374     2406.724    17875.875    26.190477 
   23780     1026.714    -9187.255   -9072.7235     5148.133    17869.019    26.183024 
   23790    1028.5928   -9187.2979   -9072.5568    4963.2866    17865.915    26.184078 
   23800    1046.5631   -9189.1128   -9072.3671     2973.702    17866.488    26.186952 
   23810    1001.7622   -9183.9113   -9072.1632    2221.4579    17869.435    26.202586 
   23820     1017.715   -9185.4319   -9071.9043     838.8851    17874.017    26.233563 
   23830    1054.5133   -9189.1946   -9071.5621   -681.42469    17879.214    26.268492 
   23840    1056.4329   -9189.0543   -9071.2077    -940.6455    17883.974    26.305503 
   23850    1043.8525   -9187.3111   -9070.8678   -492.03171    17888.043      26.3458 
   23860    998.29263   -9181.8569   -9070.4959    92.136603    17891.746    26.378911 
   23870    998.45104   -9181.4051   -9070.0264   -656.63521    17895.412    26.394684 
   23880    1012.6209   -9182.3662   -9069.4068      -854.14    17898.597    26.388269 
   23890    1001.0143   -9180.3156   -9068.6509    607.30199    17901.241    26.366038 
   23900    1050.6897   -9184.9859   -9067.7799    1247.2865    17904.286     26.34707 
   23910    1081.9755   -9187.5276   -9066.8316     1571.952     17908.25    26.346638 
   23920    1040.3766   -9181.9846    -9065.929    2903.6463    17913.511    26.360767 
   23930    1063.6608   -9183.7534   -9065.1004    2833.6244    17920.896    26.381206 
   23940     1052.678   -9181.7543   -9064.3264    3165.0369    17930.484     26.40846 
   23950    1011.5477    -9176.482   -9063.6423    2314.0191    17942.399    26.432007 
   23960    1070.9822   -9182.4785   -9063.0089   -1134.3491    17955.882      26.4482 
   23970    1090.7956   -9184.1555   -9062.4756   -2485.8307    17968.629    26.466506 
   23980    1046.9895   -9178.9189   -9062.1256   -1543.7854    17979.578    26.495292 
   23990    1047.1653   -9178.6824   -9061.8696   -1192.5894    17989.273    26.529808 
   24000    1065.3802    -9180.507   -9061.6622   -1726.2052     17997.98    26.563252 
   24010    1044.2357   -9177.9887   -9061.5026   -2214.4234    18005.365    26.582195 
   24020    1030.2252   -9176.2908   -9061.3677     -1770.84    18011.104     26.58128 
   24030    1028.9852   -9176.0073   -9061.2224   -1790.2007    18015.398     26.57481 
   24040    1033.6061   -9176.3664   -9061.0661   -2627.7454    18018.215    26.564597 
   24050    1047.6389   -9177.7711   -9060.9054   -2732.5797    18019.038    26.542264 
   24060    1068.4234   -9179.9492    -9060.765    -2136.546    18017.792     26.51722 
   24070    1062.6089   -9179.1892   -9060.6536   -1970.6742    18014.874    26.511328 
   24080    1082.4407   -9181.3424   -9060.5945   -3197.3936    18010.327    26.529378 
   24090    1077.6024   -9180.8133   -9060.6051   -3643.3451    18003.392    26.558986 
   24100     1070.489   -9180.0989   -9060.6842   -2876.8151    17993.738    26.587754 
   24110     1057.851   -9178.7934   -9060.7885    -266.3715    17982.041     26.61024 
   24120    1066.8742   -9179.9157   -9060.9042    963.40236    17970.062    26.621224 
   24130    1081.1489   -9181.6688    -9061.065    964.76103    17958.767    26.615851 
   24140    1064.7152   -9180.0562   -9061.2857    1623.1643    17948.293     26.59176 
   24150    1030.9223   -9176.5267   -9061.5258    1422.9894    17939.003    26.565316 
   24160    1052.9648   -9179.2122   -9061.7524    603.99454    17930.792    26.558803 
   24170    1070.3304   -9181.3908   -9061.9939       703.73    17923.136    26.580923 
   24180     1053.459   -9179.7751   -9062.2602     1792.885    17916.095    26.621937 
   24190    1087.3801   -9183.8726   -9062.5737    2458.2738    17910.407     26.67053 
   24200    1059.5867   -9181.1532   -9062.9547    3090.0063    17906.622    26.713268 
   24210    1051.5535   -9180.6993   -9063.3969    2794.8102    17905.146    26.731931 
   24220    1071.6766   -9183.4306   -9063.8835    2256.7016    17905.821    26.716111 
   24230    1064.8836   -9183.2183   -9064.4289    2238.4334    17908.275    26.678448 
   24240    1066.6421    -9184.029   -9065.0435    2444.7436    17912.449    26.654697 
   24250    1055.3506   -9183.4341   -9065.7082    2837.0507    17918.524    26.671775 
   24260    1053.1167   -9183.8928    -9066.416     1986.354    17926.688    26.719422 
   24270    1025.3877   -9181.4944   -9067.1109    1152.3789    17936.403    26.774885 
   24280    1001.1864    -9179.436   -9067.7521    1019.2729    17947.076    26.826799 
   24290    973.21686    -9176.813   -9068.2491    657.77456    17958.573    26.872398 
   24300    1026.5983   -9183.1376    -9068.619   -1570.0939    17970.455    26.905033 
   24310    1044.3523   -9185.4046   -9068.9055   -2429.1773    17981.287    26.926988 
   24320    1020.3889   -9182.9892   -9069.1633   -2562.7353    17990.305     26.93515 
   24330    1017.8198    -9182.907   -9069.3677   -3006.6284    17997.351    26.930935 
   24340    1038.7641   -9185.4082   -9069.5325   -3614.3601    18002.079     26.93122 
   24350    998.55545   -9181.0383    -9069.648   -3250.9456    18004.097    26.948969 
   24360    1025.5246   -9184.0842   -9069.6854   -3440.6036    18003.553    26.968874 
   24370    1043.0331   -9186.0085   -9069.6566   -3254.7572    18000.374    26.975852 
   24380    1027.2209   -9184.1877   -9069.5997   -2716.3669    17994.701    26.976003 
   24390    1040.1295   -9185.5424   -9069.5144   -3557.7563    17986.784    26.975073 
   24400     997.4297   -9180.6246   -9069.3598   -2397.9295    17976.257    26.978151 
   24410    1015.6588   -9182.3769   -9069.0786   -1070.4331    17963.834    26.992484 
   24420    1071.0204   -9188.1088   -9068.6349    112.36696    17950.546    27.020212 
   24430    1069.1335   -9187.3585    -9068.095    2458.3024    17937.396    27.052235 
   24440    1045.3234   -9184.1104    -9067.503    5032.5792    17926.128    27.083642 
   24450    1071.2694   -9186.3038   -9066.8021    4527.2724    17918.505    27.110602 
   24460    1110.8612   -9189.8916   -9065.9733    2789.3006    17914.276    27.115659 
   24470    1058.8035   -9183.1979   -9065.0867    2556.5847    17912.303    27.102862 
   24480    1068.0951   -9183.2852   -9064.1376    1430.3421    17912.204    27.105259 
   24490    1097.1526   -9185.4729   -9063.0838    1242.2277    17913.273    27.126415 
   24500    1047.1356   -9178.8506   -9062.0411    2822.3014    17915.444    27.150227 
   24510    1038.3678   -9176.8527   -9061.0212    2921.6171     17919.71    27.178121 
   24520    1062.1554   -9178.4563   -9059.9712     1272.128    17926.124    27.220614 
   24530    1084.9413   -9180.0004   -9058.9736    1199.3303    17933.707    27.275127 
   24540    1085.6217   -9179.1941   -9058.0914    1638.3765    17942.307    27.331116 
   24550    1082.9111   -9178.1827   -9057.3823    2344.0553    17952.269    27.375504 
   24560    1072.0917   -9176.4225    -9056.829    2933.1747     17964.11    27.407772 
   24570     1057.059    -9174.316   -9056.3994    2078.6898    17978.182    27.446118 
   24580    1058.2158   -9174.0915   -9056.0459   -290.46126    17993.839     27.49699 
   24590    1093.6126   -9177.7245   -9055.7304   -2881.4902    18009.362    27.554082 
   24600    1111.5173   -9179.5089   -9055.5174   -4065.8991    18022.847     27.61304 
   24610    1094.9033   -9177.5794   -9055.4413   -3989.3789    18033.344    27.671955 
   24620    1113.8105   -9179.7531   -9055.5059   -3317.3184    18040.833    27.722826 
   24630    1065.9329   -9174.5896   -9055.6832   -1905.5975    18045.835    27.761115 
   24640    1044.0297   -9172.3557   -9055.8926   -2021.6766    18049.276    27.794402 
   24650    1085.2833    -9177.192    -9056.127    -3404.609    18051.039    27.826154 
   24660     1060.438   -9174.6808   -9056.3873   -3385.7991    18050.272    27.844401 
   24670     1076.296   -9176.7529   -9056.6905   -4115.3669    18046.771    27.842348 
   24680    1066.8157    -9176.033   -9057.0281   -3774.3709    18040.136     27.83421 
   24690    1035.5543   -9172.8998   -9057.3821   -2682.8951    18030.579    27.828863 
   24700    1053.8347   -9175.2881   -9057.7312   -2303.3062    18018.828     27.82417 
   24710    1079.2346   -9178.4967   -9058.1065   -2498.7658    18005.195    27.821185 
   24720    1079.7606   -9178.9998   -9058.5509   -2815.5832    17989.526    27.828285 
   24730    1063.2774   -9177.6609   -9059.0507    -2056.882    17971.653    27.847322 
   24740    1064.9203   -9178.3702   -9059.5767   -811.55337    17952.102    27.868815 
   24750    1080.4739   -9180.6495    -9060.121    1568.3587    17931.894    27.881283 
   24760    1080.8843   -9181.2754   -9060.7012    4488.9734    17912.797    27.885913 
   24770    1056.8168   -9179.1669   -9061.2774    7142.5418    17897.035    27.885195 
   24780    1064.9938   -9180.6712   -9061.8695     8341.721    17886.578    27.897027 
   24790    1067.9702   -9181.6338   -9062.5001    7084.0052    17882.285    27.928444 
   24800    1060.7759    -9181.475   -9063.1438    5093.2295    17883.369     27.95783 
   24810    1080.7947   -9184.3791   -9063.8148    2852.6482    17888.336    27.967595 
   24820    1051.8478    -9181.806   -9064.4708    2189.9179    17895.677    27.962359 
   24830    1029.2369   -9179.8609    -9065.048    2088.3199    17904.792    27.943149 
   24840    1047.0062   -9182.3352     -9065.54    2695.0854    17915.657    27.923662 
   24850    1051.6012   -9183.2589   -9065.9512    2697.5306    17928.635    27.922303 
   24860     1071.144   -9185.8067    -9066.319    1831.2637    17943.767    27.936177 
   24870    1054.9854   -9184.3424   -9066.6572    473.43656    17960.423    27.939345 
   24880    1012.1651   -9179.8109   -9066.9024   -589.41062    17977.647    27.920636 
   24890    1028.1434   -9181.7332   -9067.0423   -1911.6062    17994.544    27.883709 
   24900    1011.5693   -9179.9033   -9067.0613   -3111.3313    18010.108    27.847983 
   24910    1027.6304    -9181.639   -9067.0053   -4846.7546    18023.344    27.832098 
   24920    1033.1596   -9182.1488   -9066.8983    -5831.037    18032.971    27.840742 
   24930    1024.8479   -9181.1285   -9066.8051   -4951.9158    18038.255     27.86879 
   24940    1008.6347   -9179.1942   -9066.6794   -4601.3723    18039.673    27.901405 
   24950    1053.5116   -9184.0316   -9066.5108    -5365.869    18037.449    27.928937 
   24960    1046.1112   -9183.0002    -9066.305   -4617.1335    18031.161    27.953065 
   24970    1068.2159   -9185.2691    -9066.108   -3027.3913    18021.286    27.962041 
   24980    1102.5102    -9188.953   -9065.9663   -779.24727    18009.033    27.961292 
   24990     1043.804   -9182.3115   -9065.8736     2017.471     17996.17    27.961423 
   25000    1053.2466   -9183.3114   -9065.8202    1837.5586    17984.577    27.959264 
Loop time of 15097.4 on 16 procs for 20000 steps with 864 atoms

Performance: 0.114 ns/day, 209.686 hours/ns, 1.325 timesteps/s
95.8% CPU use with 16 MPI tasks x 1 OpenMP threads

MPI task timing breakdown:
Section |  min time  |  avg time  |  max time  |%varavg| %total
---------------------------------------------------------------
Pair    | 2011       | 7915.5     | 15020      |5087.6 | 52.43
Bond    | 0.0026336  | 0.0053813  | 0.0092354  |   2.7 |  0.00
Neigh   | 0.10977    | 0.37529    | 0.6863     |  34.9 |  0.00
Comm    | 9.1317     | 5561       | 11001      |4712.6 | 36.83
Output  | 1.3676     | 1.3933     | 1.7708     |   8.3 |  0.01
Modify  | 66.064     | 1619       | 5096.9     |4404.7 | 10.72
Other   |            | 0.09205    |            |       |  0.00

Nlocal:        54.0000 ave          88 max          15 min
Histogram: 2 3 1 0 0 2 2 1 2 3
Nghost:        535.875 ave         850 max         263 min
Histogram: 2 2 2 0 1 3 4 0 0 2
Neighs:         0.00000 ave           0 max           0 min
Histogram: 16 0 0 0 0 0 0 0 0 0
FullNghs:      3117.75 ave        6071 max         355 min
Histogram: 6 0 0 0 2 1 1 2 1 3

Total # of neighbors = 49884
Ave neighs/atom = 57.736111
Ave special neighs/atom = 0.0000000
Neighbor list builds = 2000
Dangerous builds = 2000
Total wall time: 5:15:30
