LAMMPS (29 Sep 2021 - Update 3)
OMP_NUM_THREADS environment is not set. Defaulting to 1 thread. (src/comm.cpp:98)
  using 1 OpenMP thread(s) per MPI task
units	metal
atom_style	full

read_data	mixed.data
Reading data file ...
  orthogonal box = (0.0000000 0.0000000 0.0000000) to (17.171819 17.292452 83.119182)
  1 by 2 by 8 MPI processor grid
  reading atoms ...
  864 atoms
Finding 1-2 1-3 1-4 neighbors ...
  special bond factors lj:    0        0        0       
  special bond factors coul:  0        0        0       
     0 = max # of 1-2 neighbors
     0 = max # of 1-3 neighbors
     0 = max # of 1-4 neighbors
     1 = max # of special neighbors
  special bonds CPU = 0.001 seconds
  read_data CPU = 0.030 seconds

pair_style	quip
pair_coeff	* * /ocean/projects/cts180021p/wuziqi/clease/mint-PD/PhaseDiagram-Clease/Liquid/GAP_potential/gap_LiKCl.xml "Potential xml_label=GAP_2021_9_27_0_1_17_37_618" 17 19 3

neighbor	0.3 bin
neigh_modify	delay 10

timestep	0.001
compute	msd all msd
thermo_style	custom step temp pe etotal press vol c_msd[4]
thermo	10
dump	1 all custom 10 xyz-mix.dump type id x y z
dump	2 all custom 10 force-mix.dump type id fx fy fz

fix     1 all nve
run     2000
Neighbor list info ...
  update every 1 steps, delay 10 steps, check yes
  max neighbors/atom: 2000, page size: 100000
  master list distance cutoff = 6.22
  ghost atom cutoff = 6.22
  binsize = 3.11, bins = 6 6 27
  1 neighbor lists, perpetual/occasional/extra = 1 0 0
  (1) pair quip, perpetual
      attributes: full, newton on
      pair build: full/bin
      stencil: full/bin/3d
      bin: standard
Per MPI rank memory allocation (min/avg/max) = 8.894 | 8.900 | 8.906 Mbytes
Step Temp PotEng TotEng Press Volume c_msd[4] 
       0            0   -7174.3834   -7174.3834   -3403.7864    24681.648            0 
      10    59.886459   -7181.0715   -7174.3911    -3591.811    24681.648 0.0004428069 
      20    152.53511   -7191.4143   -7174.3988    -3532.456    24681.648 0.0053913133 
      30    183.53475   -7194.8677   -7174.3941   -2645.2133    24681.648  0.017829876 
      40    202.66462   -7197.0001   -7174.3926   -1813.5571    24681.648  0.032805386 
      50    235.34035   -7200.6482   -7174.3956    -1646.813    24681.648   0.04588816 
      60    247.94168    -7202.052   -7174.3938   -1842.2959    24681.648   0.05765331 
      70    253.09642   -7202.6277   -7174.3944   -2064.7915    24681.648  0.069436765 
      80    250.99467   -7202.3926   -7174.3937   -2200.0016    24681.648  0.082900901 
      90    246.12852   -7201.8494   -7174.3934   -2173.7127    24681.648  0.099028065 
     100    244.92959   -7201.7179   -7174.3956   -1978.8699    24681.648   0.11746343 
     110    242.28341    -7201.419   -7174.3919   -1729.6413    24681.648   0.13557848 
     120    255.22195   -7202.8655   -7174.3951   -1848.0783    24681.648   0.15075494 
     130    256.29683   -7202.9842   -7174.3939     -2007.52    24681.648   0.16545013 
     140    255.59143   -7202.9057   -7174.3941   -2078.8051    24681.648   0.17976362 
     150    254.71653    -7202.809    -7174.395   -2143.2247    24681.648   0.19317961 
     160    251.90206   -7202.4945   -7174.3944   -2001.6951    24681.648   0.20534635 
     170    250.97219   -7202.3902   -7174.3939   -1889.6105    24681.648   0.21663825 
     180     257.3806   -7203.1055   -7174.3943   -1934.6918    24681.648    0.2288925 
     190     260.3621   -7203.4402   -7174.3964   -1958.2977    24681.648   0.24328518 
     200    252.18366   -7202.5243   -7174.3928   -1925.8316    24681.648   0.25702409 
     210    258.35994    -7203.215   -7174.3946   -1990.3907    24681.648   0.26669152 
     220    260.53492   -7203.4573   -7174.3943   -1988.9024    24681.648    0.2748492 
     230    258.23338   -7203.2005   -7174.3942   -1795.6857    24681.648   0.28332799 
     240    252.93197   -7202.6085   -7174.3936   -1566.3378    24681.648   0.29247854 
     250    254.73094   -7202.8097   -7174.3941   -1512.6013    24681.648   0.30118823 
     260    260.13921   -7203.4133   -7174.3944   -1595.4355    24681.648   0.30980823 
     270    263.33316   -7203.7692    -7174.394   -1672.2968    24681.648    0.3193726 
     280    266.81067   -7204.1584   -7174.3953   -1641.3932    24681.648   0.32972958 
     290    262.39696   -7203.6654   -7174.3946   -1516.4449    24681.648   0.34016636 
     300    261.07623   -7203.5192   -7174.3957   -1490.2694    24681.648   0.34870802 
     310    256.60645    -7203.019   -7174.3942   -1424.9004    24681.648   0.35616095 
     320    255.12221   -7202.8537   -7174.3944   -1431.1943    24681.648   0.36426417 
     330    257.21766   -7203.0875   -7174.3944   -1535.2284    24681.648   0.37294434 
     340    260.71445   -7203.4781    -7174.395   -1738.4386    24681.648   0.38207588 
     350    260.87542   -7203.4955   -7174.3944   -1787.8195    24681.648   0.39203939 
     360    259.24296   -7203.3137   -7174.3948   -1801.5109    24681.648   0.40305256 
     370     256.8045   -7203.0415   -7174.3946    -1871.197    24681.648   0.41474987 
     380    253.74937   -7202.7006   -7174.3945   -2006.2935    24681.648   0.42675018 
     390     250.3984   -7202.3262   -7174.3939   -2133.6916    24681.648    0.4387225 
     400    253.59482   -7202.6831   -7174.3942   -2227.7267    24681.648   0.44925493 
     410    258.62293   -7203.2446   -7174.3948   -2242.4151    24681.648   0.45744528 
     420    260.59152   -7203.4634   -7174.3941   -2202.0252    24681.648   0.46381779 
     430    265.56276   -7204.0186   -7174.3947   -2285.5748    24681.648   0.46928077 
     440    267.29796   -7204.2122   -7174.3947   -2340.4066    24681.648   0.47466356 
     450     263.7688   -7203.8177   -7174.3939   -2324.3833    24681.648   0.47995391 
     460    263.97331    -7203.841   -7174.3944   -2444.9636    24681.648   0.48477747 
     470    265.08715   -7203.9653   -7174.3944   -2633.9331    24681.648   0.48948207 
     480    264.24939   -7203.8716   -7174.3942   -2661.2403    24681.648   0.49464966 
     490    265.03895   -7203.9596   -7174.3941   -2483.9795    24681.648   0.50051068 
     500     268.0228   -7204.2928   -7174.3944   -2130.0039    24681.648   0.50762008 
     510    269.68559   -7204.4783   -7174.3945   -1895.8231    24681.648   0.51677182 
     520     269.3401     -7204.44   -7174.3947   -1772.5691    24681.648   0.52791571 
     530      266.526   -7204.1254    -7174.394   -1820.7728    24681.648   0.53993524 
     540    268.21801   -7204.3142   -7174.3941   -1957.9364    24681.648   0.55113406 
     550    273.27905   -7204.8799   -7174.3952   -1952.1322    24681.648   0.56047872 
     560     270.7895   -7204.6017   -7174.3947   -1784.6397    24681.648   0.56820517 
     570    267.63087   -7204.2482   -7174.3935    -1644.341    24681.648   0.57439114 
     580    274.75017   -7205.0438    -7174.395   -1642.7538    24681.648   0.57908351 
     590    278.06846    -7205.414    -7174.395   -1634.7568    24681.648   0.58273182 
     600    275.33483   -7205.1086   -7174.3946   -1546.2732    24681.648   0.58557023 
     610    272.73058   -7204.8178   -7174.3943   -1362.5514    24681.648   0.58813395 
     620     275.6395   -7205.1428   -7174.3948   -1228.8054    24681.648   0.59107932 
     630    277.82637   -7205.3871   -7174.3952    -1223.228    24681.648   0.59521422 
     640    275.21147   -7205.0945   -7174.3942   -1328.0133    24681.648   0.60059579 
     650    276.76341   -7205.2679   -7174.3945   -1587.9159    24681.648   0.60632225 
     660    280.29592   -7205.6626   -7174.3951   -1876.3308    24681.648   0.61197812 
     670    278.94874   -7205.5114   -7174.3943   -1988.9252    24681.648    0.6176124 
     680    279.62887   -7205.5876   -7174.3946    -1854.874    24681.648   0.62312175 
     690    278.35671   -7205.4465   -7174.3954     -1626.67    24681.648   0.62896185 
     700    269.37243   -7204.4429    -7174.394   -1418.2553    24681.648   0.63559784 
     710    266.45521   -7204.1181   -7174.3946   -1472.5221    24681.648   0.64215216 
     720    265.84495   -7204.0503   -7174.3949   -1709.2555    24681.648   0.64781464 
     730    263.59964   -7203.7992   -7174.3943   -1848.2285    24681.648   0.65193307 
     740    266.57701   -7204.1317   -7174.3946   -1895.4286    24681.648   0.65412735 
     750    271.76415   -7204.7106   -7174.3949   -1968.2386    24681.648   0.65547825 
     760      275.029   -7205.0755   -7174.3956   -2013.6107    24681.648   0.65726746 
     770     271.0675   -7204.6326   -7174.3946   -1846.7085    24681.648   0.65945095 
     780    271.60028    -7204.692   -7174.3946   -1756.0037    24681.648   0.66122261 
     790    276.79844    -7205.273   -7174.3957   -1802.9901    24681.648   0.66298127 
     800    272.61055    -7204.805   -7174.3949   -1872.3043    24681.648    0.6665383 
     810    266.19836   -7204.0894   -7174.3945   -1968.7863    24681.648   0.67221854 
     820    263.38752   -7203.7759   -7174.3946   -2141.6217    24681.648   0.67891951 
     830    264.77149   -7203.9298   -7174.3941   -2417.3308    24681.648   0.68520732 
     840    272.58637    -7204.803   -7174.3955   -2752.0813    24681.648   0.69025418 
     850    272.65549   -7204.8097   -7174.3946   -2928.1991    24681.648   0.69428736 
     860    273.59711   -7204.9144   -7174.3942   -2900.3005    24681.648    0.6970968 
     870    278.19824   -7205.4288   -7174.3953    -2707.162    24681.648    0.6996263 
     880    276.53864   -7205.2424   -7174.3941   -2500.9253    24681.648   0.70364771 
     890    279.23786   -7205.5442   -7174.3948   -2415.7746    24681.648   0.70924281 
     900    280.95843   -7205.7363    -7174.395    -2364.961    24681.648   0.71595523 
     910    278.43861   -7205.4551   -7174.3949   -2292.0963    24681.648   0.72276909 
     920    274.58034   -7205.0239    -7174.394   -2145.7325    24681.648    0.7279473 
     930    277.12312   -7205.3082   -7174.3947    -2157.167    24681.648   0.73037655 
     940    279.73337   -7205.5996   -7174.3949   -2169.2816    24681.648   0.73135876 
     950    279.22126   -7205.5421   -7174.3945   -2172.7349    24681.648   0.73362662 
     960    279.34211   -7205.5558   -7174.3947    -2162.325    24681.648   0.73879001 
     970    278.76831   -7205.4918   -7174.3948   -2041.5721    24681.648   0.74667297 
     980    277.67235   -7205.3697   -7174.3949   -1885.6852    24681.648   0.75580397 
     990    276.23383    -7205.209   -7174.3947   -1855.7306    24681.648   0.76364754 
    1000    276.65338   -7205.2559   -7174.3948   -1804.2694    24681.648   0.76766421 
    1010    277.15823    -7205.313   -7174.3956    -1670.983    24681.648   0.76766874 
    1020    269.42126   -7204.4494   -7174.3951   -1424.7931    24681.648   0.76610705 
    1030     260.7554   -7203.4818   -7174.3941   -1215.0065    24681.648   0.76554395 
    1040    261.30906   -7203.5441   -7174.3947   -1098.2689    24681.648   0.76665088 
    1050    265.20034   -7203.9786   -7174.3951   -1049.7855    24681.648   0.76872121 
    1060    265.37142   -7203.9979   -7174.3953     -1168.93    24681.648    0.7710414 
    1070    262.30523   -7203.6545    -7174.394   -1216.5846    24681.648   0.77312784 
    1080     269.2805   -7204.4336   -7174.3949   -1303.2806    24681.648   0.77456841 
    1090    278.21465   -7205.4311   -7174.3958   -1474.4916    24681.648   0.77578562 
    1100    279.83218   -7205.6107    -7174.395   -1575.5621    24681.648   0.77731718 
    1110    283.74367   -7206.0469   -7174.3949   -1579.9493    24681.648   0.77887111 
    1120    290.78719   -7206.8334   -7174.3957   -1573.7467    24681.648   0.78005841 
    1130    290.95381   -7206.8511   -7174.3948   -1519.3089    24681.648   0.78128493 
    1140    291.42672   -7206.9042   -7174.3951   -1587.1629    24681.648   0.78343187 
    1150    288.83961    -7206.616   -7174.3955   -1727.5352    24681.648   0.78763344 
    1160    278.98488   -7205.5156   -7174.3944   -1780.0997    24681.648   0.79353187 
    1170     274.5083   -7205.0159   -7174.3941   -1742.9948    24681.648   0.79894507 
    1180    278.08142   -7205.4157   -7174.3953   -1700.4448    24681.648   0.80276226 
    1190    278.86175    -7205.502   -7174.3946   -1575.2201    24681.648    0.8050797 
    1200    282.48118   -7205.9064   -7174.3952   -1531.0337    24681.648   0.80550341 
    1210     282.2015   -7205.8756   -7174.3956   -1582.1964    24681.648    0.8047093 
    1220    273.66019   -7204.9216   -7174.3943   -1443.9202    24681.648   0.80424724 
    1230    271.02344   -7204.6278   -7174.3947   -1294.8219    24681.648   0.80553838 
    1240    273.21828   -7204.8729    -7174.395   -1344.7406    24681.648   0.80963811 
    1250    274.53804   -7205.0205   -7174.3953   -1557.8461    24681.648   0.81626207 
    1260    273.33761   -7204.8857   -7174.3945   -1709.4029    24681.648    0.8238996 
    1270    277.03845    -7205.299   -7174.3949   -1861.8941    24681.648   0.83066888 
    1280    279.60921   -7205.5866   -7174.3958   -1776.8315    24681.648   0.83577326 
    1290     271.8553   -7204.7208   -7174.3949   -1451.3285    24681.648    0.8390946 
    1300    264.41726   -7203.8899   -7174.3937   -1174.9198    24681.648   0.84015079 
    1310    270.14381   -7204.5298   -7174.3948   -1305.4319    24681.648   0.83955817 
    1320    276.28563    -7205.216   -7174.3959   -1616.8447    24681.648    0.8394972 
    1330    269.37516    -7204.444   -7174.3948   -1792.2063    24681.648   0.84108811 
    1340    263.66565    -7203.806   -7174.3937   -1787.5686    24681.648   0.84324181 
    1350    271.75636   -7204.7105   -7174.3956   -1789.9886    24681.648   0.84491174 
    1360    274.27239   -7204.9909   -7174.3954   -1904.3466    24681.648   0.84675977 
    1370    271.14124   -7204.6406   -7174.3944   -2044.7094    24681.648   0.84884467 
    1380    273.68352    -7204.925   -7174.3952   -2173.0979    24681.648   0.85060846 
    1390    275.02452   -7205.0744    -7174.395   -2215.3954    24681.648   0.85231893 
    1400    276.25601   -7205.2118    -7174.395   -2238.0373    24681.648   0.85406463 
    1410    278.84188   -7205.4999   -7174.3947   -2167.4859    24681.648   0.85604751 
    1420    283.63171   -7206.0351   -7174.3956   -2106.7356    24681.648   0.85860197 
    1430     281.5104   -7205.7981   -7174.3952   -2039.7153    24681.648   0.86172051 
    1440    277.08643   -7205.3037   -7174.3943   -2134.4004    24681.648   0.86445233 
    1450    280.14663   -7205.6458    -7174.395   -2425.0475    24681.648   0.86616941 
    1460    284.16882   -7206.0946   -7174.3952   -2629.1536    24681.648   0.86801931 
    1470    286.02648   -7206.3014   -7174.3947   -2499.1716    24681.648   0.87115512 
    1480    288.85345   -7206.6176   -7174.3956   -2167.0023    24681.648   0.87530865 
    1490    284.31956   -7206.1114   -7174.3951   -1635.6837    24681.648   0.87953488 
    1500    278.98283   -7205.5151   -7174.3941    -1216.743    24681.648   0.88285916 
    1510    281.81212   -7205.8323   -7174.3957   -1229.4385    24681.648   0.88582692 
    1520    276.49173   -7205.2381   -7174.3951   -1562.5155    24681.648   0.89044229 
    1530    268.60167    -7204.357   -7174.3941   -1832.8137    24681.648   0.89739602 
    1540    268.44471   -7204.3404   -7174.3949   -2013.3452    24681.648   0.90578469 
    1550    268.16938   -7204.3093   -7174.3946   -2010.8653    24681.648   0.91410017 
    1560    269.46062   -7204.4535   -7174.3947   -1942.9791    24681.648   0.92102099 
    1570    272.53021   -7204.7961    -7174.395   -1895.4867    24681.648   0.92617748 
    1580    274.16463   -7204.9785   -7174.3951   -1823.6829    24681.648   0.92969488 
    1590    274.08365    -7204.969   -7174.3945   -1694.8776    24681.648   0.93183336 
    1600    276.38809   -7205.2266   -7174.3951   -1582.4042    24681.648   0.93327697 
    1610    276.47515   -7205.2358   -7174.3946    -1514.064    24681.648   0.93523754 
    1620    278.82635   -7205.4983   -7174.3948   -1527.2623    24681.648   0.93825527 
    1630    283.05477   -7205.9703   -7174.3951   -1480.4486    24681.648   0.94238563 
    1640    283.75544   -7206.0487   -7174.3953   -1428.7453    24681.648   0.94810451 
    1650    279.65577   -7205.5907   -7174.3946   -1482.0142    24681.648   0.95569667 
    1660    277.97149   -7205.4028   -7174.3947   -1644.7201    24681.648   0.96460041 
    1670    277.63235   -7205.3655   -7174.3952   -1799.5694    24681.648   0.97399532 
    1680     273.1457   -7204.8646   -7174.3948   -1807.2549    24681.648     0.982653 
    1690     269.1131   -7204.4145   -7174.3945    -1848.628    24681.648   0.98867138 
    1700    269.43844   -7204.4513    -7174.395   -2023.5742    24681.648   0.99116369 
    1710    269.78252   -7204.4896   -7174.3949   -2209.0436    24681.648    0.9917874 
    1720    270.65906   -7204.5872   -7174.3948   -2303.1156    24681.648   0.99313368 
    1730    273.04698    -7204.854   -7174.3952   -2347.4849    24681.648   0.99679692 
    1740    274.23892   -7204.9868   -7174.3951   -2237.2262    24681.648    1.0035992 
    1750    273.69441   -7204.9263   -7174.3952   -2020.2102    24681.648    1.0135583 
    1760    270.40125   -7204.5585   -7174.3949    -1788.634    24681.648    1.0251981 
    1770    270.68343   -7204.5897   -7174.3946   -1549.0244    24681.648    1.0353833 
    1780    277.90453   -7205.3964   -7174.3957    -1511.742    24681.648    1.0415834 
    1790    279.00509   -7205.5188   -7174.3954   -1597.8653    24681.648    1.0442507 
    1800    277.00732   -7205.2948   -7174.3942   -1788.7028    24681.648    1.0451598 
    1810    282.39257   -7205.8967   -7174.3954   -2040.7403    24681.648    1.0459368 
    1820    284.13814   -7206.0911   -7174.3951   -2280.9528    24681.648    1.0481335 
    1830    282.91429   -7205.9545   -7174.3949   -2430.6285    24681.648    1.0523919 
    1840     281.3318   -7205.7782   -7174.3952   -2306.2747    24681.648    1.0583276 
    1850    277.24801   -7205.3224    -7174.395   -2023.8294    24681.648    1.0646013 
    1860    275.86189   -7205.1669   -7174.3941   -1648.8281    24681.648    1.0693247 
    1870    285.01658   -7206.1898   -7174.3957   -1237.5386    24681.648    1.0720376 
    1880    287.69204   -7206.4885    -7174.396   -948.96764    24681.648    1.0743863 
    1890    280.11635   -7205.6423   -7174.3949   -885.51677    24681.648    1.0774135 
    1900    276.31656   -7205.2185    -7174.395   -989.28796    24681.648    1.0809193 
    1910      276.623   -7205.2529   -7174.3952   -1167.7604    24681.648    1.0845535 
    1920    277.67777   -7205.3704    -7174.395   -1316.9346    24681.648    1.0879417 
    1930    280.71277   -7205.7092   -7174.3953   -1469.0337    24681.648    1.0909294 
    1940    281.53928   -7205.8014   -7174.3953   -1673.5867    24681.648     1.094033 
    1950    279.58172   -7205.5827    -7174.395   -1827.7357    24681.648    1.0978665 
    1960    278.22672   -7205.4318   -7174.3952   -1824.7991    24681.648    1.1027058 
    1970    275.53555   -7205.1314    -7174.395    -1644.041    24681.648    1.1084664 
    1980    273.96064   -7204.9552   -7174.3945   -1378.9505    24681.648    1.1145371 
    1990    277.66865   -7205.3694    -7174.395   -1245.5747    24681.648    1.1207676 
    2000    280.84548   -7205.7241   -7174.3953   -1211.1794    24681.648    1.1274187 
Loop time of 1229.01 on 16 procs for 2000 steps with 864 atoms

Performance: 0.141 ns/day, 170.695 hours/ns, 1.627 timesteps/s
97.9% CPU use with 16 MPI tasks x 1 OpenMP threads

MPI task timing breakdown:
Section |  min time  |  avg time  |  max time  |%varavg| %total
---------------------------------------------------------------
Pair    | 420.57     | 972.03     | 1217.4     | 656.5 | 79.09
Bond    | 0.0001483  | 0.00039466 | 0.0013137  |   0.0 |  0.00
Neigh   | 0.017397   | 0.026979   | 0.038911   |   3.1 |  0.00
Comm    | 11.293     | 242.05     | 784.02     |1280.6 | 19.69
Output  | 0.17311    | 7.4329     | 20.217     | 246.2 |  0.60
Modify  | 0.0083385  | 0.010975   | 0.016594   |   1.8 |  0.00
Other   |            | 7.457      |            |       |  0.61

Nlocal:        54.0000 ave          68 max          38 min
Histogram: 2 0 1 2 1 3 1 3 1 2
Nghost:        453.312 ave         541 max         363 min
Histogram: 1 1 1 3 2 1 4 1 1 1
Neighs:         0.00000 ave           0 max           0 min
Histogram: 16 0 0 0 0 0 0 0 0 0
FullNghs:      1935.12 ave        2876 max         990 min
Histogram: 2 0 2 1 4 1 2 1 2 1

Total # of neighbors = 30962
Ave neighs/atom = 35.835648
Ave special neighs/atom = 0.0000000
Neighbor list builds = 199
Dangerous builds = 198
unfix   1

velocity    all create 712.5 1312343 dist gaussian
fix     2 all npt temp 712.5 712.5 $(100.0*dt) aniso 0.0 1.01325 $(1000.0*dt)
fix     2 all npt temp 712.5 712.5 0.10000000000000000555 aniso 0.0 1.01325 $(1000.0*dt)
fix     2 all npt temp 712.5 712.5 0.10000000000000000555 aniso 0.0 1.01325 1
run     3000
Per MPI rank memory allocation (min/avg/max) = 8.894 | 8.901 | 8.907 Mbytes
Step Temp PotEng TotEng Press Volume c_msd[4] 
    2000        712.5   -7205.7241   -7126.2436    872.62367    24681.648    1.1274187 
    2010    644.83032   -7198.1516   -7126.2198    1246.2401     24682.66     1.135492 
    2020    562.72726   -7188.8516   -7126.0785    1554.4187     24686.33    1.1496093 
    2030     536.5844   -7185.5678    -7125.711    1328.6503    24693.237    1.1649999 
    2040    503.50906    -7181.238   -7125.0708    1178.4738    24703.028    1.1828006 
    2050    471.13878   -7176.7769   -7124.2206    1075.4861    24715.383    1.2025806 
    2060    473.19504   -7176.0552   -7123.2696    708.73202    24730.041    1.2222847 
    2070    484.10119   -7176.3453   -7122.3431    219.90626    24746.247    1.2407411 
    2080     496.0393   -7176.8322   -7121.4983   -166.56333    24763.002    1.2570162 
    2090     503.2656   -7176.8086   -7120.6685   -388.22207    24779.492    1.2718135 
    2100    514.66358    -7177.197   -7119.7855   -496.29912    24795.221    1.2861861 
    2110    522.16706   -7177.0588   -7118.8103   -378.63616    24809.974    1.3006682 
    2120     520.7009   -7175.8467   -7117.7618   -293.74069    24823.945    1.3152987 
    2130      524.327   -7175.1431   -7116.6536   -509.50239    24837.265    1.3303121 
    2140    535.33406   -7175.2128   -7115.4955   -723.60848    24849.531    1.3463678 
    2150    546.71281   -7175.2909   -7114.3043   -771.87441      24860.3    1.3629821 
    2160     534.5458   -7172.7393     -7113.11   -656.54403     24869.47      1.37992 
    2170    530.67122   -7171.1217   -7111.9246     -652.004    24877.223    1.3964175 
    2180    539.55832   -7170.8938   -7110.7053   -694.66855    24883.581    1.4129269 
    2190    537.76324   -7169.4513    -7109.463   -536.06849    24888.496    1.4302257 
    2200    542.65276   -7168.7455   -7108.2118   -399.73311    24892.259    1.4465586 
    2210    558.30959     -7169.21   -7106.9297   -317.33509    24895.164    1.4591748 
    2220    565.54243    -7168.715   -7105.6279   -319.23168    24897.387    1.4679643 
    2230    568.94614    -7167.794   -7104.3272   -629.44521    24898.865    1.4766275 
    2240     574.3103   -7167.0868   -7103.0216   -953.06093    24898.971    1.4891332 
    2250    585.39877   -7167.0078   -7101.7057   -1002.7503    24897.043    1.5061774 
    2260    591.97955   -7166.4207   -7100.3845   -825.38377    24892.959    1.5260586 
    2270    585.26848    -7164.364   -7099.0764    -500.0207    24887.073    1.5464447 
    2280    581.46688   -7162.6446   -7097.7811   -201.95558    24880.049    1.5649567 
    2290    591.96295   -7162.5055   -7096.4712   -238.31163    24872.469    1.5802722 
    2300    595.37267   -7161.5582   -7095.1435   -360.93578    24864.307    1.5944132 
    2310    600.44051   -7160.8004   -7093.8204   -422.97735    24855.312    1.6101446 
    2320    616.81811   -7161.2915   -7092.4846   -416.55428    24845.368    1.6273607 
    2330    633.49719    -7161.808   -7091.1404   -364.16927    24834.459    1.6446882 
    2340    637.19246   -7160.8902   -7089.8104    14.034357    24822.737     1.660297 
    2350    645.04428   -7160.4619   -7088.5063    480.65565    24810.968    1.6725826 
    2360    652.89491   -7160.0442   -7087.2128    765.78317    24800.122     1.683569 
    2370    648.33108   -7158.2723     -7085.95    985.89421    24790.846    1.6957844 
    2380    637.02845   -7155.7763   -7084.7148    1140.7158    24783.642     1.709579 
    2390     639.3561   -7154.8066   -7083.4855    987.20308    24778.801     1.724858 
    2400    657.51499     -7155.58   -7082.2332    562.11923    24776.024    1.7414186 
    2410    669.66332   -7155.6785   -7080.9766    169.30562    24774.455    1.7585183 
    2420    664.62593    -7153.892    -7079.752   -96.900883    24773.264    1.7755564 
    2430    673.26631   -7153.6643   -7078.5604   -307.04929    24771.867    1.7920393 
    2440    684.29983   -7153.7161   -7077.3815   -444.64769    24769.792    1.8089736 
    2450    672.02193   -7151.2074   -7076.2423   -240.35176    24766.814    1.8268033 
    2460    676.35803    -7150.584   -7075.1352   -195.79397    24763.247    1.8415602 
    2470    686.64619   -7150.6255   -7074.0291    -62.98707    24759.232    1.8521309 
    2480    690.52375   -7149.9723   -7072.9433   -63.635019     24755.01    1.8602847 
    2490    699.23558   -7149.8855   -7071.8847     -117.328     24750.59     1.867859 
    2500    696.73518   -7148.5809    -7070.859    408.08336    24745.986    1.8786376 
    2510    706.81279   -7148.7168   -7069.8708    981.77495    24742.219    1.8949634 
    2520    702.70606    -7147.295   -7068.9071    1399.5093    24740.528    1.9158601 
    2530    712.91744    -7147.512    -7067.985    1323.2673    24741.747    1.9370433 
    2540    718.67267    -7147.263    -7067.094    1223.0412    24745.868    1.9565246 
    2550    714.56199   -7145.9704   -7066.2599    1085.5511    24752.676    1.9749086 
    2560    711.77319   -7144.8671   -7065.4678    815.13222    24761.941     1.993847 
    2570    735.35005   -7146.7311   -7064.7017     252.2239    24773.083     2.014976 
    2580    738.80287   -7146.3975   -7063.9829   -192.17586    24784.957    2.0388484 
    2590    713.26373   -7142.9076    -7063.342   -228.56843    24796.684    2.0620102 
    2600    718.24414   -7142.8627   -7062.7415   -601.75602    24808.012    2.0814885 
    2610    715.06436   -7141.9179   -7062.1514   -716.50498    24818.276    2.0984293 
    2620    714.25633   -7141.2611   -7061.5847     -726.462    24827.151    2.1129301 
    2630    725.36614   -7141.9459   -7061.0302   -795.49693    24834.576    2.1263323 
    2640    734.01492    -7142.386   -7060.5055   -892.68698    24840.372    2.1412297 
    2650    725.98409   -7141.0144   -7060.0298   -714.31274    24844.356    2.1581142 
    2660    729.10154   -7140.9298   -7059.5974   -428.97572    24846.873    2.1733817 
    2670    753.23519   -7143.2337   -7059.2091   -715.11378    24848.381      2.18664 
    2680    742.25638   -7141.6932   -7058.8934   -820.06614     24848.41    2.2038295 
    2690    736.70352   -7140.8396   -7058.6593    -517.9157    24846.738    2.2236742 
    2700    740.00543   -7141.0325   -7058.4838   -237.15368    24843.904     2.241003 
    2710    736.51538   -7140.5248   -7058.3654   -135.66088    24840.493    2.2530797 
    2720    745.53404   -7141.4773   -7058.3118   -179.07206    24836.707    2.2591218 
    2730    743.10946   -7141.2226   -7058.3276    278.95714    24832.581     2.264369 
    2740    740.92883   -7141.0683   -7058.4166    739.68769    24828.994    2.2760643 
    2750    751.25926   -7142.3794   -7058.5753    673.59379    24826.855     2.295988 
    2760    763.02029   -7143.9492   -7058.8331    553.55409    24826.144    2.3196005 
    2770     750.3268   -7142.8953   -7059.1952    721.47255    24826.701    2.3412139 
    2780    735.31192   -7141.6631   -7059.6379    830.96079     24828.84    2.3584182 
    2790    722.70111   -7140.7362   -7060.1178    728.82555     24832.82    2.3742259 
    2800      730.269   -7142.0889   -7060.6263    473.11325    24838.465     2.390781 
    2810    728.30842   -7142.4077   -7061.1638    435.31522     24845.32     2.409567 
    2820    723.08198   -7142.3817   -7061.7209    463.23719    24853.304    2.4298139 
    2830    733.36943   -7144.1112   -7062.3027    168.97701      24862.4    2.4488845 
    2840    729.90631   -7144.3461   -7062.9239   -111.78387    24872.057    2.4671706 
    2850    708.99146    -7142.637   -7063.5479   -264.44676    24881.713    2.4845175 
    2860    711.59232     -7143.54   -7064.1608   -263.41784    24891.021    2.4982997 
    2870    705.33491   -7143.4259   -7064.7448    220.94412    24900.062     2.509096 
    2880    715.25069   -7145.1047   -7065.3174    348.50795    24909.677    2.5175117 
    2890    706.21296   -7144.6534   -7065.8743    462.20738    24920.275    2.5259731 
    2900    694.37067   -7143.8637   -7066.4056     418.0341    24932.092    2.5369349 
    2910    676.70496   -7142.3619   -7066.8744    173.92843     24945.06     2.551838 
    2920    665.79443   -7141.5268   -7067.2565   -21.544775    24958.695    2.5671515 
    2930    664.56113   -7141.6664   -7067.5336   -198.29043    24972.579    2.5777154 
    2940     688.2729    -7144.499   -7067.7211   -487.80821    24986.309    2.5833005 
    2950    700.12834   -7145.9608   -7067.8605   -611.43621    24999.286     2.589523 
    2960    685.38887   -7144.4169   -7067.9607   -686.38331    25011.221    2.5998651 
    2970    691.26085   -7145.1274   -7068.0163   -1272.3595    25021.789    2.6117419 
    2980    698.17736   -7145.9039   -7068.0212   -1782.3655    25029.766    2.6248965 
    2990    712.86288   -7147.5237   -7068.0028   -1994.3464    25034.003    2.6398592 
    3000    721.82818   -7148.5058   -7067.9848   -2097.7539    25033.905    2.6549259 
    3010    713.07281    -7147.526   -7067.9817    -1969.923    25029.174    2.6677257 
    3020    701.50106   -7146.2355    -7067.982   -1669.4862    25019.982    2.6753093 
    3030    698.28949   -7145.8571   -7067.9619   -1406.1786    25006.895    2.6765395 
    3040    698.07924   -7145.7853   -7067.9135   -1448.8079    24990.362    2.6747867 
    3050    697.19598   -7145.6113    -7067.838    -1478.801    24970.293    2.6730916 
    3060     699.9107   -7145.8119   -7067.7358   -1285.8339    24946.639    2.6711096 
    3070    712.30158   -7147.0704   -7067.6121   -1227.8872    24919.715    2.6682747 
    3080    718.76635   -7147.6652   -7067.4857    -980.4535    24889.667    2.6669433 
    3090    702.68139   -7145.7422    -7067.357   -114.96423    24857.108    2.6691173 
    3100    696.20979   -7144.8613    -7067.198    641.25536    24823.773    2.6744467 
    3110    714.79211   -7146.7358   -7066.9997     1122.701    24791.342    2.6834671 
    3120    716.56819   -7146.7219   -7066.7877    1325.4353    24760.883    2.6986313 
    3130    702.10471   -7144.8927   -7066.5719    1483.2916    24732.957    2.7184719 
    3140    713.13485   -7145.8959   -7066.3446     1336.026    24707.865    2.7394922 
    3150    712.16362   -7145.5449    -7066.102    1434.4774    24685.484    2.7621112 
    3160    707.22778   -7144.7469   -7065.8545    1272.6953    24665.935     2.784478 
    3170    701.55993   -7143.8456   -7065.5855    1194.0482     24648.99    2.8048921 
    3180    704.33123   -7143.8673   -7065.2981    1359.4358    24634.535    2.8243761 
    3190    716.97567   -7144.9833   -7065.0036    1589.9582    24622.934    2.8451622 
    3200    720.51941   -7145.1006   -7064.7256     1628.884    24614.643     2.868994 
    3210    717.96818    -7144.557   -7064.4665    1399.2605    24609.745    2.8928876 
    3220    721.52936   -7144.7066   -7064.2189    1180.2904    24607.821    2.9134727 
    3230     727.1433   -7145.0982   -7063.9843    1207.1187    24608.484    2.9320857 
    3240    735.27305    -7145.798   -7063.7772      977.526    24611.687    2.9540559 
    3250    737.37504   -7145.8648   -7063.6095    535.64611    24616.967    2.9838716 
    3260    743.10724   -7146.3972   -7063.5024    103.78063     24623.41    3.0186009 
    3270    718.42402   -7143.5894   -7063.4481    183.02635    24630.209    3.0532636 
    3280    710.38664   -7142.6587    -7063.414    236.45234    24637.417    3.0834045 
    3290    737.11637   -7145.6128   -7063.3863   -36.711819    24645.076    3.1085942 
    3300    743.74061   -7146.3653   -7063.3999   -267.18073     24652.67    3.1320312 
    3310    744.94138   -7146.5832   -7063.4839   -400.28928    24659.716    3.1560944 
    3320    745.18852   -7146.7665   -7063.6396   -138.28964    24666.016    3.1832829 
    3330    747.73783   -7147.3007   -7063.8895   -15.070355    24671.978    3.2132158 
    3340    723.05741   -7144.8746   -7064.2164    109.18823     24677.92    3.2424645 
    3350    702.84124   -7142.9724   -7064.5694    28.050447    24684.065    3.2679054 
    3360    701.37129   -7143.1436   -7064.9046   -405.20535    24690.194    3.2911598 
    3370    700.35898   -7143.3369   -7065.2108   -751.31964    24695.484    3.3159473 
    3380    702.58743    -7143.867   -7065.4923   -1222.3793    24699.114    3.3430771 
    3390    709.29062   -7144.8774   -7065.7549   -1367.6235    24700.203    3.3735488 
    3400    705.82381   -7144.7535   -7066.0178   -1212.3699    24698.415      3.40724 
    3410    670.84449    -7141.077   -7066.2433   -836.41495    24694.082    3.4401128 
    3420    668.71219   -7140.9875   -7066.3917   -874.77844    24687.864    3.4664717 
    3430    690.83509   -7143.5169   -7066.4532   -869.36039    24679.795    3.4863176 
    3440    705.74014   -7145.1904    -7066.464   -592.93985     24669.92    3.5025652 
    3450    718.18779   -7146.5738   -7066.4589   -415.95845     24658.77    3.5169091 
    3460    746.57186   -7149.7614   -7066.4802   -469.34428    24646.676    3.5293259 
    3470     747.1521   -7149.9198   -7066.5738   -179.38212    24633.607    3.5417881 
    3480    714.07251   -7146.3876   -7066.7317    459.75363    24620.199    3.5568241 
    3490    695.45456   -7144.4706   -7066.8916    817.64809    24607.706    3.5752527 
    3500    696.61882   -7144.7222   -7067.0133    653.74374    24596.864    3.5939126 
    3510    715.54382   -7146.9363   -7067.1163    290.95258    24587.367    3.6084331 
    3520    710.74953   -7146.5016   -7067.2164    225.58212    24578.537    3.6203937 
    3530    704.08112   -7145.8595   -7067.3182     140.0222    24570.158    3.6325254 
    3540    697.13319   -7145.1707   -7067.4044   -144.75559     24562.01    3.6454203 
    3550    682.57097   -7143.5963   -7067.4544   -321.25734     24553.56     3.659428 
    3560    679.33103    -7143.223   -7067.4426   -274.58788    24544.458    3.6741856 
    3570    689.45268   -7144.2727   -7067.3632   -167.24088    24534.756    3.6892227 
    3580    688.40501   -7144.0171   -7067.2245    225.23644    24524.734    3.7056057 
    3590    685.08656    -7143.451   -7067.0285    549.35659    24515.141    3.7209813 
    3600    701.15564   -7144.9896   -7066.7746    663.80773    24506.659    3.7319201 
    3610    724.74055   -7147.3342   -7066.4883    641.55596    24499.523    3.7389219 
    3620     726.7854   -7147.2915   -7066.2175    897.55602    24493.771    3.7462917 
    3630    712.43727   -7145.4508   -7065.9773    1158.2541    24489.904    3.7546182 
    3640    716.66695   -7145.6996   -7065.7543    1158.3279    24488.427    3.7616637 
    3650    709.50932   -7144.6742   -7065.5274    1165.0307    24489.421     3.770028 
    3660    714.79918   -7145.0361   -7065.2992    932.38334     24492.83    3.7819713 
    3670    711.90459   -7144.4773   -7065.0632    888.07037    24498.287    3.7977852 
    3680    714.10319   -7144.4856   -7064.8263    644.16543    24505.629    3.8157859 
    3690    725.59499   -7145.5334   -7064.5922    235.55072    24514.358    3.8341754 
    3700    718.56974   -7144.5321   -7064.3746   -33.906243    24523.688    3.8502473 
    3710    719.27932   -7144.4101   -7064.1734    -590.4524    24532.938    3.8603257 
    3720    726.13635   -7144.9849   -7063.9833   -965.43648    24541.027    3.8667604 
    3730    718.02083   -7143.9101   -7063.8138   -898.56931    24547.198     3.872671 
    3740    705.21522   -7142.3271   -7063.6593   -596.52779    24551.546    3.8787727 
    3750    702.85569      -7141.9   -7063.4954    -356.2185    24554.642    3.8873717 
    3760     711.8457   -7142.7186   -7063.3111   -239.52209    24556.978    3.8995319 
    3770    723.12752   -7143.7851   -7063.1191   -78.539559    24558.836    3.9125759 
    3780    720.90324   -7143.3598   -7062.9419    151.01517    24560.559    3.9245664 
    3790    714.91547   -7142.5293   -7062.7794    113.17997     24562.57     3.935665 
    3800    716.84102   -7142.5856   -7062.6209   -251.96618    24564.781    3.9480188 
    3810    708.31665   -7141.4765   -7062.4627   -454.65677    24566.519    3.9635303 
    3820     702.9111   -7140.7064   -7062.2956   -475.69288    24567.341    3.9800794 
    3830    706.53237   -7140.9237    -7062.109   -453.03161    24567.142     3.995174 
    3840    697.15895   -7139.6695   -7061.9004   -49.564786    24566.068    4.0086986 
    3850    703.18071   -7140.1041   -7061.6633    196.56305    24564.851    4.0197699 
    3860    726.78519   -7142.4734   -7061.3995    359.57771    24564.033    4.0293567 
    3870    736.57039   -7143.3083   -7061.1428     705.8008    24564.022    4.0393087 
    3880    732.30353   -7142.6184   -7060.9289    1077.0055    24565.533    4.0488973 
    3890     727.0791   -7141.8656   -7060.7589    1321.3032    24569.353    4.0575325 
    3900    733.41989   -7142.4442   -7060.6301     1266.193    24575.968    4.0644883 
    3910    731.82577   -7142.1831   -7060.5469    1017.4162    24585.316    4.0698697 
    3920       724.05   -7141.2782   -7060.5094    673.30029    24596.904    4.0747588 
    3930     708.3102   -7139.5052   -7060.4921    378.84454     24610.06    4.0819521 
    3940    705.66933   -7139.1858   -7060.4673   -106.84337    24624.102    4.0925394 
    3950    715.88309   -7140.2835   -7060.4257   -721.15778    24638.009    4.1050085 
    3960      724.984   -7141.2597   -7060.3866   -1273.7361    24650.521     4.116305 
    3970    726.04007   -7141.3656   -7060.3747   -1683.1496     24660.44    4.1246991 
    3980    724.86476   -7141.2596   -7060.3998    -2036.602    24666.836    4.1302894 
    3990    721.86698   -7140.9874   -7060.4621   -2130.4175     24668.96    4.1337486 
    4000    709.54111   -7139.6987   -7060.5483    -1789.734    24666.596    4.1371776 
    4010    704.88698   -7139.2647   -7060.6335   -1419.1313    24660.363    4.1395767 
    4020    705.37803   -7139.3934   -7060.7074    -1246.242    24650.988     4.138315 
    4030    707.57753   -7139.7022   -7060.7709   -1228.3069     24638.84    4.1329373 
    4040    717.99761   -7140.9324   -7060.8387   -1385.9694    24623.922    4.1274404 
    4050    704.92065   -7139.5421   -7060.9071   -1353.2838    24605.956    4.1290013 
    4060     704.3598   -7139.5424     -7060.97   -1195.4134    24584.973    4.1402519 
    4070    709.37628   -7140.1492   -7061.0172   -772.50887    24561.366    4.1586606 
    4080    713.11084   -7140.6016    -7061.053   -435.98453    24535.948    4.1795923 
    4090    725.38015   -7142.0087   -7061.0914   -380.11745    24509.413    4.1985739 
    4100    730.83972   -7142.6854   -7061.1591   -244.71361    24481.966    4.2142793 
    4110    723.72602   -7141.9984   -7061.2657    320.99931    24453.975    4.2288311 
    4120    718.95353    -7141.593   -7061.3927    920.89193    24426.579    4.2437706 
    4130    722.71838   -7142.1635   -7061.5432    1136.2046    24400.972    4.2596905 
    4140    713.57776   -7141.3129   -7061.7123    1194.7123    24377.694    4.2769544 
    4150    732.12928    -7143.602   -7061.9319    699.49049    24356.763    4.2933936 
    4160    733.79018   -7144.0845   -7062.2291    405.53842    24337.321    4.3089253 
    4170    716.70318   -7142.5456   -7062.5963    193.94143    24318.705    4.3237832 
    4180    700.26672   -7141.1031   -7062.9873    89.362993    24300.506    4.3374388 
    4190    697.72503   -7141.2052   -7063.3729   -149.72016    24282.447    4.3478179 
    4200    698.41416   -7141.6573   -7063.7482   -124.89953    24264.142    4.3535862 
    4210    704.47777   -7142.6999   -7064.1144    214.28787    24245.664    4.3548457 
    4220    714.06314   -7144.1355   -7064.4807    446.05744    24227.616    4.3539558 
    4230    710.50518   -7144.1157   -7064.8578    494.63462     24210.47    4.3530053 
    4240    685.44078   -7141.6896   -7065.2276    526.20436    24194.361     4.351071 
    4250     667.5897   -7140.0058   -7065.5351    683.20858    24179.385    4.3470483 
    4260    681.21421   -7141.7625   -7065.7721    661.69724    24165.786     4.339287 
    4270    688.07384   -7142.7073   -7065.9516    719.87223    24153.597    4.3268856 
    4280    691.93257   -7143.2735   -7066.0873    696.63226    24142.897    4.3115637 
    4290    692.57042   -7143.4367   -7066.1794    611.28251    24133.639    4.2979043 
    4300    690.53596   -7143.2568   -7066.2264    414.51808    24125.621    4.2876375 
    4310     700.8494   -7144.4163   -7066.2355    395.89256    24118.489    4.2804652 
    4320    705.76922   -7144.9452   -7066.2156    579.45176     24112.21     4.276644 
    4330    702.37242   -7144.5239   -7066.1732    865.09626    24107.152    4.2755305 
    4340    701.06696   -7144.3019   -7066.0968    1169.7494    24103.888    4.2750812 
    4350     705.3496   -7144.6697   -7065.9869    1226.2458    24102.971    4.2742675 
    4360    705.61555   -7144.5574   -7065.8449    1270.2685    24104.585    4.2741216 
    4370    713.10065   -7145.2177   -7065.6703    1076.9854    24108.755    4.2744338 
    4380    722.39367   -7146.0543   -7065.4702    1090.3828    24115.191    4.2735887 
    4390    722.73543   -7145.8814   -7065.2592    1068.4259    24123.842     4.272529 
    4400    715.87041   -7144.8966   -7065.0402    1064.0046    24134.689    4.2743006 
    4410    700.25905    -7142.908    -7064.793    1277.2697    24147.784    4.2790079 
    4420    701.59665   -7142.7537   -7064.4895    1241.8852    24163.479    4.2843765 
    4430    715.46662   -7143.9186   -7064.1073    1059.7671    24181.727    4.2886849 
    4440    721.33276   -7144.1289   -7063.6632    1130.7019    24202.254    4.2912157 
    4450    714.68621   -7142.9021   -7063.1777    1208.5837    24225.154    4.2919458 
    4460    722.72999   -7143.2793   -7062.6576    1043.3003    24250.548    4.2937407 
    4470    729.30867   -7143.4667   -7062.1112    724.79605    24278.131     4.299547 
    4480     728.9048   -7142.8813   -7061.5708    264.81427    24307.222     4.309144 
    4490    727.49266   -7142.2067   -7061.0538   -178.16924    24336.901    4.3244044 
    4500     729.2028   -7141.9119   -7060.5682   -499.29316    24366.277    4.3444264 
    4510    736.03026   -7142.2279   -7060.1227   -659.00098     24394.67    4.3646217 
    4520    745.39892    -7142.888   -7059.7376   -599.76688    24421.741    4.3820284 
    4530    747.35738   -7142.7996   -7059.4308   -473.00097    24447.581    4.3967023 
    4540    751.92509   -7143.0882   -7059.2098   -666.30126    24472.374    4.4087255 
    4550    763.48624   -7144.2488   -7059.0807   -1136.2141      24495.7    4.4175414 
    4560    750.59177    -7142.784   -7059.0543   -1359.1346    24516.666    4.4256289 
    4570    725.29957   -7140.0185   -7059.1103   -1227.8063    24534.814    4.4384902 
    4580    713.05879   -7138.7471   -7059.2043   -1096.4628    24550.337    4.4590457 
    4590    700.26986   -7137.4201   -7059.3039   -968.87999    24563.507    4.4871112 
    4600    688.00054   -7136.1275     -7059.38   -762.50819    24574.631    4.5182581 
    4610    697.38279   -7137.2124   -7059.4183    -684.6264    24584.107    4.5453441 
    4620     712.9837   -7138.9642   -7059.4298   -748.71336    24592.084     4.568306 
    4630    729.33843   -7140.8089   -7059.4501   -864.73912    24598.448    4.5921444 
    4640    726.56498   -7140.5524    -7059.503   -938.42338    24602.979    4.6168229 
    4650    716.75098    -7139.543   -7059.5884   -1159.5885    24605.489    4.6381459 
    4660    711.89136   -7139.1068   -7059.6943   -1655.4737    24605.468    4.6516382 
    4670    704.02827   -7138.3478   -7059.8123   -1757.6314    24602.008    4.6585464 
    4680    701.95736   -7138.2351   -7059.9307   -1751.3364     24594.82    4.6619352 
    4690    716.08193   -7139.9413   -7060.0612   -2004.9068    24583.868    4.6658201 
    4700    716.31747    -7140.133   -7060.2267   -2181.8172    24568.688     4.677637 
    4710    708.76564   -7139.5023   -7060.4384   -2046.4151    24548.937    4.6979284 
    4720    704.53533   -7139.2756   -7060.6836   -1664.4052    24524.908    4.7187921 
    4730    697.94436   -7138.8019   -7060.9451    -1144.398    24497.415    4.7335351 
    4740    694.27301   -7138.6537   -7061.2065   -638.00556    24467.552    4.7419177 
    4750    710.98504   -7140.7844   -7061.4729   -495.21353    24436.335    4.7487957 
    4760    740.36993   -7144.3855   -7061.7961   -660.49792    24404.084    4.7588672 
    4770    746.25314    -7145.476   -7062.2303   -480.71236    24370.626    4.7745143 
    4780     737.0645   -7145.0068   -7062.7862   -149.74768    24336.294    4.7945472 
    4790    720.88201   -7143.8412   -7063.4257    172.17885    24301.775    4.8168977 
    4800    705.92773   -7142.8421   -7064.0948    262.17111    24267.706    4.8401257 
    4810    689.78297    -7141.685   -7064.7387    343.82806    24234.333    4.8604033 
    4820     678.1589   -7140.9518   -7065.3021    347.88924    24201.823    4.8714077 
    4830    688.98302   -7142.6301    -7065.773    261.30692    24170.202    4.8708431 
    4840    714.26065   -7145.8697   -7066.1928    99.966563    24139.276     4.863656 
    4850     715.5223   -7146.4075   -7066.5899    349.11867    24108.832    4.8573493 
    4860    711.31554   -7146.3105   -7066.9622    622.53468    24079.317    4.8551609 
    4870    713.51207   -7146.9044   -7067.3111    429.59268    24051.185    4.8563695 
    4880    708.67613   -7146.6937   -7067.6398    47.961921    24024.074    4.8605208 
    4890      698.758   -7145.8882   -7067.9407   -19.820367    23997.308    4.8680187 
    4900    688.67662   -7145.0148   -7068.1919    57.990703    23970.718    4.8783996 
    4910    685.41541   -7144.8421    -7068.383    125.73299    23944.433    4.8919812 
    4920    675.68166   -7143.8766   -7068.5033    327.34508    23918.623    4.9115735 
    4930     682.5268   -7144.6843   -7068.5474       580.06     23893.69    4.9396358 
    4940    691.54311   -7145.6651   -7068.5225    714.84912    23870.098    4.9728509 
    4950    692.28498     -7145.68   -7068.4545    800.02888    23848.123      5.00276 
    4960    684.29633   -7144.6745   -7068.3402    1087.7333    23827.986    5.0245522 
    4970     692.5255   -7145.4197   -7068.1675    1154.5927    23810.146    5.0373407 
    4980    710.69316   -7147.2179    -7067.939    1127.1159     23794.74    5.0437213 
    4990    729.43793   -7149.0679    -7067.698    1252.7113    23781.727    5.0481907 
    5000    725.62981    -7148.423   -7067.4779    1584.4237    23771.363    5.0555431 
Loop time of 2036.83 on 16 procs for 3000 steps with 864 atoms

Performance: 0.127 ns/day, 188.595 hours/ns, 1.473 timesteps/s
97.8% CPU use with 16 MPI tasks x 1 OpenMP threads

MPI task timing breakdown:
Section |  min time  |  avg time  |  max time  |%varavg| %total
---------------------------------------------------------------
Pair    | 1409.2     | 1793       | 2026.9     | 364.3 | 88.03
Bond    | 0.00024652 | 0.00063805 | 0.0017331  |   0.0 |  0.00
Neigh   | 0.032336   | 0.039716   | 0.048131   |   2.3 |  0.00
Comm    | 8.759      | 201.42     | 550.47     | 978.3 |  9.89
Output  | 0.17708    | 0.18129    | 0.24293    |   3.7 |  0.01
Modify  | 0.94997    | 42.137     | 93.945     | 520.4 |  2.07
Other   |            | 0.01443    |            |       |  0.00

Nlocal:        54.0000 ave          61 max          48 min
Histogram: 4 0 0 3 2 2 0 3 0 2
Nghost:        464.375 ave         504 max         425 min
Histogram: 3 0 2 1 3 0 3 0 2 2
Neighs:         0.00000 ave           0 max           0 min
Histogram: 16 0 0 0 0 0 0 0 0 0
FullNghs:      1943.88 ave        2360 max        1576 min
Histogram: 3 1 2 0 3 2 1 0 3 1

Total # of neighbors = 31102
Ave neighs/atom = 35.997685
Ave special neighs/atom = 0.0000000
Neighbor list builds = 300
Dangerous builds = 300
unfix   2

fix     3 all npt temp 712.5 712.5 $(100.0*dt) aniso 1.01325 1.01325 $(1000.0*dt)
fix     3 all npt temp 712.5 712.5 0.10000000000000000555 aniso 1.01325 1.01325 $(1000.0*dt)
fix     3 all npt temp 712.5 712.5 0.10000000000000000555 aniso 1.01325 1.01325 1
run     20000
Per MPI rank memory allocation (min/avg/max) = 8.899 | 8.902 | 8.907 Mbytes
Step Temp PotEng TotEng Press Volume c_msd[4] 
    5000    725.62981    -7148.423   -7067.4779    1584.4237    23771.363    5.0555431 
    5010    717.06718   -7147.4809   -7067.4909    1584.9712    23772.972     5.056323 
    5020    707.23909   -7146.4109   -7067.5173    1396.6334    23777.707    5.0608084 
    5030    693.42838   -7144.8847   -7067.5317    1230.9046    23785.244    5.0630808 
    5040    691.67535   -7144.6646   -7067.5071    868.07299    23795.204    5.0588004 
    5050    703.48527   -7145.9154   -7067.4406     520.0241    23806.917    5.0497189 
    5060    693.80464   -7144.7326   -7067.3376    522.57189    23819.781    5.0425616 
    5070    682.72715   -7143.3522   -7067.1929    459.06091    23833.702    5.0436673 
    5080    679.06584   -7142.7254   -7066.9746    632.62103    23848.625    5.0571709 
    5090    680.35972   -7142.5656   -7066.6704    911.94554    23864.884    5.0782051 
    5100    684.29616   -7142.5994   -7066.2651    826.68214     23882.95    5.0942031 
    5110    703.72439   -7144.2582   -7065.7567    574.40261    23902.703     5.097231 
    5120     715.0233   -7144.9274   -7065.1654     495.6238    23923.709    5.0868426 
    5130    726.04306   -7145.5333   -7064.5422    587.85047    23945.804    5.0669012 
    5140    728.61712   -7145.2089   -7063.9305    861.13927    23969.203    5.0463461 
    5150    722.42707   -7143.9534   -7063.3656    882.50026    23994.373    5.0360018 
    5160    715.24585   -7142.6345   -7062.8477    746.19919    24021.386    5.0412148 
    5170    723.61119    -7143.091   -7062.3711     526.5403    24049.977    5.0593488 
    5180    725.74439    -7142.898   -7061.9401    418.69262    24079.749    5.0832925 
    5190    731.84185   -7143.2112   -7061.5731    278.03016    24110.444    5.1052492 
    5200    749.38896   -7144.8756   -7061.2801   -128.51389    24141.723    5.1221757 
    5210    750.94186   -7144.8546   -7061.0859   -396.37789    24172.829    5.1377582 
    5220     740.7602   -7143.6315   -7060.9986   -441.47524    24203.199    5.1553532 
    5230    736.60274   -7143.1564   -7060.9872   -371.34293    24232.711    5.1751713 
    5240     745.2147   -7144.1662   -7061.0363   -200.44726    24261.484    5.1968633 
    5250    740.71126   -7143.7779   -7061.1505    213.91314    24289.909     5.220341 
    5260    725.81499   -7142.2735   -7061.3077    304.52577    24318.742       5.2408 
    5270    730.51843   -7142.9663   -7061.4758   -299.64988    24348.091    5.2516182 
    5280     729.5702   -7143.0286    -7061.644   -1023.3548    24376.786    5.2550717 
    5290    721.57595   -7142.3016   -7061.8087   -1182.9578    24403.448    5.2569164 
    5300    731.70423   -7143.6015   -7061.9788   -1254.9285    24427.604    5.2601495 
    5310    725.38629   -7143.0794   -7062.1615   -986.77705    24449.179    5.2675009 
    5320    714.61163   -7142.0635   -7062.3475   -735.37302    24468.645    5.2792499 
    5330    719.84682   -7142.8261   -7062.5261   -881.21969    24486.453     5.294339 
    5340    702.90466    -7141.098   -7062.6879   -935.10579     24502.42      5.31345 
    5350     697.6483   -7140.6395   -7062.8158     -960.921    24516.415    5.3370071 
    5360    712.34074   -7142.3727   -7062.9101   -1000.2924    24528.371    5.3646101 
    5370    719.29942   -7143.2332   -7062.9942    -1073.912    24538.203    5.3949509 
    5380    729.74029   -7144.4984   -7063.0948   -1433.6542    24545.697    5.4279122 
    5390    726.92368   -7144.3124    -7063.223   -1739.6123     24550.17    5.4656997 
    5400    702.41664   -7141.7193   -7063.3636   -2027.2404    24550.944    5.5054355 
    5410     696.2684   -7141.1522   -7063.4824    -2234.727    24547.437     5.538709 
    5420    714.77164   -7143.3124   -7063.5786   -2320.6285    24539.206    5.5623373 
    5430    706.01353   -7142.4251   -7063.6682   -2067.3464    24526.127    5.5824735 
    5440    697.27923   -7141.5262   -7063.7436   -1751.0596    24508.683    5.6057774 
    5450    701.42307   -7142.0381   -7063.7933   -1422.8549    24487.547    5.6341935 
    5460    683.46722   -7140.0452   -7063.8034   -962.30291    24463.453    5.6654606 
    5470    677.09089   -7139.2907   -7063.7602   -725.88091    24437.319    5.6949133 
    5480    670.48435    -7138.432   -7063.6384    -385.2896    24409.727    5.7207772 
    5490    659.61631        -7137   -7063.4188    -62.27876    24381.352    5.7427116 
    5500    676.18508   -7138.5167   -7063.0873    109.61679    24352.866    5.7593943 
    5510    712.35549   -7142.1237   -7062.6594    256.44138    24324.654    5.7709757 
    5520    722.16384   -7142.7552   -7062.1968    479.64682    24297.051    5.7818169 
    5530    714.80048   -7141.4865   -7061.7495    882.81321    24270.555    5.7945354 
    5540    718.81623   -7141.4989   -7061.3138    1031.7184    24245.921    5.8112876 
    5550    732.05288   -7142.5603   -7060.8987    957.03427    24223.453    5.8309395 
    5560    733.07813   -7142.2995   -7060.5235    1170.9092    24203.085    5.8491207 
    5570    744.40471   -7143.2386   -7060.1992    1350.6155     24185.18    5.8639092 
    5580    764.81771   -7145.2782   -7059.9616    1176.9032    24170.027    5.8769919 
    5590    752.48915   -7143.7828   -7059.8415    1020.2947    24157.344    5.8893023 
    5600    744.27766    -7142.853   -7059.8277    846.14962    24146.799     5.898125 
    5610    754.37375   -7144.0478   -7059.8962    488.77534    24137.972    5.9053831 
    5620    749.13722   -7143.6221   -7060.0548    376.37805    24130.224    5.9153272 
    5630    736.17852   -7142.4115   -7060.2897    411.51933    24123.315    5.9268704 
    5640    728.60708   -7141.8532    -7060.576    425.13991    24117.277    5.9358163 
    5650    710.46649   -7140.1263   -7060.8727    618.50943    24112.185    5.9401689 
    5660    710.89692   -7140.4515   -7061.1499    561.81223    24108.336    5.9396813 
    5670    714.66033   -7141.1225    -7061.401    393.45112    24105.633    5.9374854 
    5680    698.17571   -7139.4978   -7061.6152    614.86583    24103.815     5.936464 
    5690    702.04442   -7140.0959   -7061.7818    752.33917    24103.236    5.9355462 
    5700    720.35633   -7142.2755   -7061.9187    608.67586    24104.141    5.9364492 
    5710    721.15321   -7142.4974   -7062.0517    543.05577     24106.33    5.9418893 
    5720    718.52456   -7142.3375    -7062.185    415.33146    24109.624    5.9490135 
    5730    726.74423   -7143.3824    -7062.313    212.07043    24113.748    5.9541262 
    5740    725.67885   -7143.3923   -7062.4417     164.3874    24118.333    5.9565996 
    5750    707.29253    -7141.455   -7062.5554    314.94091    24123.292    5.9571157 
    5760    709.17987   -7141.7571    -7062.647     452.7477    24128.884    5.9527874 
    5770    709.30175    -7141.835   -7062.7113    275.93406     24135.34    5.9426483 
    5780    712.61178   -7142.2584   -7062.7655   -221.53179    24142.302    5.9307392 
    5790    712.79028   -7142.3291   -7062.8163   -547.18302    24148.838    5.9211565 
    5800    712.16146   -7142.3088   -7062.8661   -466.62759    24154.325    5.9156034 
    5810    708.95878   -7141.9972   -7062.9117   -213.43715    24158.883    5.9147711 
    5820    708.92444   -7142.0336    -7062.952   -218.10032     24162.96    5.9171263 
    5830    709.03035   -7142.0693   -7062.9759     -492.469    24166.559    5.9195179 
    5840     716.2055   -7142.8769   -7062.9831   -1058.4809    24169.081    5.9215102 
    5850    726.12354   -7143.9969   -7062.9967   -1397.4365    24169.467    5.9243644 
    5860    723.23255   -7143.7184   -7063.0407   -1300.2421    24167.059    5.9295589 
    5870    714.40739   -7142.8033   -7063.1101   -1049.2096    24162.019    5.9399226 
    5880    706.04219   -7141.9378   -7063.1777   -725.65334    24154.864    5.9583754 
    5890    701.01828   -7141.4235   -7063.2238   -459.87828     24146.26    5.9838962 
    5900    693.00647    -7140.537   -7063.2311   -558.34577    24136.705    6.0116636 
    5910    695.52519   -7140.7843   -7063.1974    -814.8967    24126.031    6.0389435 
    5920    687.75694   -7139.8391   -7063.1187   -611.85485    24113.858    6.0670962 
    5930    682.66001   -7139.1368    -7062.985   -470.14376    24100.495    6.0951769 
    5940    695.76701    -7140.403   -7062.7891   -425.49958    24086.248    6.1212761 
    5950    703.91888    -7141.061   -7062.5378   -42.354066     24071.32    6.1436512 
    5960    714.22989   -7141.9246   -7062.2512    369.57277    24056.441    6.1585956 
    5970    734.35459   -7143.8727   -7061.9544    401.11181    24042.374    6.1676906 
    5980    740.36018   -7144.2753    -7061.687    557.01856    24029.285    6.1790533 
    5990    733.05369   -7143.2459   -7061.4727    937.04356    24017.478    6.1993658 
    6000    728.92536   -7142.6096   -7061.2969    1327.1384    24007.681    6.2275758 
    6010     741.9329    -7143.926   -7061.1623    1577.4441    24000.639    6.2598331 
    6020     742.9215   -7143.9573   -7061.0833    1543.4377    23996.804    6.2926855 
    6030    740.01657   -7143.6243   -7061.0744    1336.8544    23996.111     6.320419 
    6040    737.03485   -7143.3483    -7061.131    1121.1624     23998.14    6.3417114 
    6050    723.07566   -7141.9102     -7061.25     997.0694    24002.432    6.3605753 
    6060     707.7547   -7140.3555   -7061.4044    976.21769    24008.735    6.3776607 
    6070    727.15894    -7142.705   -7061.5893    622.29534    24016.896    6.3934413 
    6080    724.22357   -7142.6066   -7061.8183    397.49812    24026.314    6.4143327 
    6090    715.27071   -7141.8927   -7062.1032    40.603003    24036.456    6.4424308 
    6100    714.12395   -7142.0927   -7062.4311   -324.95657    24046.602    6.4698556 
    6110    710.78669   -7142.0887   -7062.7994   -309.01304    24056.093     6.491936 
    6120    706.18644   -7141.9879   -7063.2117   -107.18174    24064.927    6.5096955 
    6130    687.89903   -7140.3768   -7063.6406    316.62501    24073.531     6.523107 
    6140     687.5611   -7140.7642   -7064.0657    637.42339    24082.694    6.5362892 
    6150    698.85197   -7142.4362   -7064.4782    764.27813    24093.057    6.5553893 
    6160    715.68039   -7144.7386   -7064.9034     711.1264    24104.864    6.5763858 
    6170     716.5799   -7145.3009   -7065.3653    601.91774     24118.03    6.5931453 
    6180    709.73326   -7145.0161   -7065.8443    301.31861    24132.303    6.6071745 
    6190    724.47944   -7147.1621   -7066.3453   -199.12255    24147.046    6.6206657 
    6200    720.33299   -7147.2241   -7066.8699   -382.93607    24161.342    6.6333704 
    6210    713.06182   -7146.9559   -7067.4128   -489.41273    24174.768    6.6452899 
    6220    701.42041   -7146.1856   -7067.9411   -629.97168    24187.097    6.6583632 
    6230    686.72165   -7145.0274   -7068.4226   -848.16498    24198.022    6.6759554 
    6240    671.98415   -7143.7787   -7068.8179   -844.56841    24207.154    6.7027331 
    6250    671.82161   -7144.0532   -7069.1105   -581.46492    24214.533    6.7384721 
    6260    670.77162   -7144.1277   -7069.3021   -327.54238    24220.651    6.7772607 
    6270     659.2223   -7142.9231   -7069.3858   -1.5248627    24226.071    6.8110866 
    6280    672.98767   -7144.4385   -7069.3657    51.674309    24231.388    6.8331009 
    6290    690.06253   -7146.2369   -7069.2594   -16.144911    24236.764    6.8471837 
    6300    697.33759   -7146.8923   -7069.1032    -194.8852    24242.041    6.8610093 
    6310    695.75521    -7146.529   -7068.9165   -182.88967    24246.922    6.8788463 
    6320    702.89902   -7147.1112   -7068.7018   -196.34407    24251.387    6.9019608 
    6330    724.55874   -7149.3043   -7068.4787   -388.95242    24255.372    6.9265793 
    6340    709.00978   -7147.3647   -7068.2736   -273.37577    24258.595    6.9488491 
    6350    690.18138   -7145.0709   -7068.0801   -142.08531    24261.219    6.9655307 
    6360    685.90608   -7144.3633   -7067.8494   -87.623122    24263.515    6.9782178 
    6370    696.58537   -7145.2812   -7067.5761    -46.91212    24265.615    6.9907327 
    6380    684.32312   -7143.6106   -7067.2733    88.691744    24267.616    7.0040175 
    6390    670.51689   -7141.7311    -7066.934    313.11821    24269.805    7.0161455 
    6400    689.60872   -7143.4655   -7066.5386       280.64     24272.56    7.0295393 
    6410    703.65927   -7144.6029   -7066.1086    374.70203    24275.893    7.0437449 
    6420    702.79549   -7144.0899   -7065.6921    611.53146    24280.006    7.0546304 
    6430    709.49429    -7144.453   -7065.3078    680.65528    24285.326    7.0652812 
    6440    724.23773   -7145.7616   -7064.9717    488.85975    24291.976    7.0824615 
    6450    739.88268   -7147.2476   -7064.7126    275.35056    24299.598       7.1029 
    6460    735.07419   -7146.5481   -7064.5495    189.76595    24307.755    7.1221085 
    6470    715.23799   -7144.2449    -7064.459    163.96842     24316.26    7.1432073 
    6480    717.29203   -7144.4151   -7064.4001   -123.18891    24325.001    7.1715176 
    6490    717.82487   -7144.4312   -7064.3567   -555.60167    24333.402    7.2061256 
    6500    709.17012   -7143.4349   -7064.3259   -836.20689    24340.622    7.2403916 
    6510    726.58887   -7145.3607   -7064.3086   -1122.0172     24346.04    7.2650384 
    6520    716.33725   -7144.2184   -7064.3099   -1054.7391    24349.158     7.279749 
    6530    701.03015   -7142.5229    -7064.322   -839.32658    24350.082    7.2905683 
    6540    700.35833   -7142.4415   -7064.3155   -564.70108    24349.268    7.3015191 
    6550    695.33562   -7141.8458     -7064.28   -301.46087    24347.284    7.3189597 
    6560    704.20486   -7142.7731    -7064.218   -179.70327    24344.669    7.3456454 
    6570    717.72488   -7144.2024   -7064.1391    35.955313    24341.721    7.3754754 
    6580    727.58207   -7145.2395   -7064.0767     489.6215    24338.926    7.4010196 
    6590    726.38179   -7145.0736   -7064.0446    867.79001    24337.171    7.4166253 
    6600    723.55463    -7144.759   -7064.0454    882.10879    24337.173    7.4208218 
    6610     724.6763   -7144.9143   -7064.0755    645.46571     24338.97    7.4168822 
    6620    717.76918   -7144.1935   -7064.1253    486.07151    24342.127    7.4083311 
    6630    716.37991   -7144.1038   -7064.1906    506.23634    24346.315    7.3981281 
    6640    713.69762   -7143.8783   -7064.2643    548.13193    24351.565    7.3912351 
    6650    716.02118   -7144.2186   -7064.3453    349.11988      24357.9    7.3919836 
    6660    720.38701    -7144.797   -7064.4368   -236.13489    24364.851    7.4004317 
    6670    716.30529   -7144.4496   -7064.5446   -477.46122     24371.35     7.411937 
    6680    715.59309   -7144.4928   -7064.6673   -265.59242    24376.899    7.4242034 
    6690    711.71846   -7144.1975   -7064.8042   -139.99501    24381.851    7.4358559 
    6700    705.74655   -7143.6763   -7064.9492   -254.42304    24386.445    7.4448759 
    6710    709.66417    -7144.261   -7065.0969    -432.7686    24390.485    7.4488421 
    6720    711.45035   -7144.6172   -7065.2538   -434.51841    24393.634    7.4534904 
    6730    708.38741   -7144.4377    -7065.416   -499.25857    24395.858    7.4686208 
    6740    717.21161   -7145.6034   -7065.5973   -756.33761    24396.998    7.4955359 
    6750    710.27262   -7145.0367   -7065.8048   -541.53108    24396.646    7.5279388 
    6760    711.56554   -7145.4174   -7066.0411   -266.67223    24395.179    7.5588068 
    6770    720.58497   -7146.7017   -7066.3193   -177.57947    24393.149    7.5869058 
    6780    698.04095   -7144.5118   -7066.6443     22.74493    24390.792    7.6119448 
    6790    677.53896   -7142.5531   -7066.9727    53.968314    24388.452    7.6291681 
    6800    684.43993   -7143.6269   -7067.2766   -85.513139    24386.195    7.6363917 
    6810    690.13127   -7144.5371   -7067.5519  -0.87547459    24383.833     7.639606 
    6820    701.74973   -7146.1057   -7067.8245   -48.354297    24381.453    7.6481713 
    6830    688.94993   -7144.9441   -7068.0907   -13.613375    24379.008    7.6654907 
    6840    699.01317   -7146.3267   -7068.3507     -121.086    24376.518    7.6873734 
    6850    714.05996   -7148.2695    -7068.615   -403.13899    24373.756    7.7131621 
    6860    709.67835   -7148.0768   -7068.9111   -557.72261    24370.181    7.7389009 
    6870    690.54432    -7146.253   -7069.2217   -567.75578    24365.472      7.75609 
    6880    682.86844   -7145.6912   -7069.5162   -643.22531    24359.573    7.7605181 
    6890     675.1936   -7145.0891   -7069.7703   -827.80298    24352.322    7.7570516 
    6900    674.96053   -7145.2567   -7069.9639   -1008.7928    24343.373    7.7517689 
    6910    700.60516   -7148.2708   -7070.1172   -1234.9532    24332.316    7.7498636 
    6920    709.55475    -7149.409   -7070.2571   -1160.5116    24318.775     7.756057 
    6930    715.84187    -7150.265   -7070.4118   -1139.4586    24302.833    7.7680294 
    6940    723.85832   -7151.3394   -7070.5919   -1119.3546     24284.56    7.7832192 
    6950    732.92178    -7152.587   -7070.8285   -1028.7441    24264.011    7.8024334 
    6960     712.2598   -7150.5749   -7071.1213    -655.2093    24241.439     7.826998 
    6970    696.93031   -7149.1783   -7071.4347   -494.87771    24217.512    7.8549576 
    6980    698.93173   -7149.7109    -7071.744   -285.18773     24192.64    7.8846758 
    6990    684.26225   -7148.3625    -7072.032     112.0506    24167.278    7.9159582 
    7000    673.68852   -7147.4214   -7072.2704    358.08087     24142.19    7.9462435 
    7010    676.09906   -7147.8704   -7072.4506    518.89906     24117.89    7.9748523 
    7020    661.03525   -7146.2867   -7072.5472    998.42215    24094.798    8.0025574 
    7030    677.34138   -7148.1119   -7072.5535    1285.4705    24073.759    8.0232791 
    7040    699.36653   -7150.4971   -7072.4817    1654.2139    24055.432    8.0340477 
    7050    693.13747   -7149.6815    -7072.361    1765.3605     24040.47    8.0361634 
    7060    680.86579    -7148.147   -7072.1954    1648.4734    24029.085    8.0325624 
    7070    667.72331   -7146.4319   -7071.9464    1801.8897    24021.135    8.0293762 
    7080    676.82591   -7147.0904   -7071.5895    1734.3027    24016.807    8.0316847 
    7090    672.43218   -7146.1186   -7071.1078    1490.1949    24015.976     8.043567 
    7100    671.63651   -7145.4345   -7070.5124    1174.6937     24018.17    8.0627777 
    7110    684.66598   -7146.1782   -7069.8026     746.5914    24022.742    8.0804761 
    7120    691.47332   -7146.1594   -7069.0245    599.52682    24028.893    8.0918687 
    7130    696.78612   -7145.9721   -7068.2445    589.20814    24036.293    8.1004379 
    7140    713.25103   -7147.0752   -7067.5109    353.25208    24044.851    8.1067136 
    7150    727.78942   -7148.0535   -7066.8675    212.00409    24054.157    8.1094436 
    7160    749.70555   -7149.9906   -7066.3598    135.84224    24063.925    8.1115622 
    7170    752.84491   -7149.9831   -7066.0021    57.887212    24074.011    8.1162517 
    7180    735.12579   -7147.7942   -7065.7898     144.2812    24084.277      8.12331 
    7190    707.98504   -7144.6323   -7065.6555    156.40058    24094.851    8.1317802 
    7200    707.76972    -7144.496   -7065.5432   -218.10706    24105.697    8.1418636 
    7210    715.08697   -7145.1976   -7065.4286   -587.39973    24116.143    8.1525786 
    7220    713.58086   -7144.9239   -7065.3228   -807.06232    24125.452    8.1623832 
    7230    710.02764   -7144.4263   -7065.2216    -1120.089    24133.112     8.170691 
    7240    710.73032   -7144.4025   -7065.1195   -1335.3862     24138.51    8.1785778 
    7250     707.4711   -7143.9331   -7065.0136   -1080.1881    24141.278    8.1884298 
    7260    725.68717    -7145.867   -7064.9155   -824.86149    24141.817    8.2011289 
    7270    724.03296   -7145.6026   -7064.8357     -329.725    24140.741    8.2177174 
    7280    710.21729   -7144.0121   -7064.7863   -126.83002    24138.919    8.2380182 
    7290    689.73043    -7141.673   -7064.7325   -169.66558    24136.799    8.2605228 
    7300    674.44986   -7139.8659     -7064.63   -247.51525    24134.318     8.282967 
    7310    686.55532     -7141.04   -7064.4537   -374.35078    24131.294    8.3029766 
    7320    700.12041   -7142.3102   -7064.2107    -444.1667    24127.504    8.3224359 
    7330    694.93064   -7141.4448   -7063.9242   -220.07333    24122.845    8.3422725 
    7340    695.09566   -7141.1341   -7063.5952    139.20495    24117.744    8.3618107 
    7350    708.85993    -7142.291   -7063.2166    102.88266    24112.828    8.3844061 
    7360    721.07682   -7143.2494   -7062.8122   -41.578619    24108.083    8.4118498 
    7370    720.08561   -7142.7363   -7062.4097    48.126013    24103.269    8.4419636 
    7380    737.30538    -7144.273   -7062.0255   -38.116236     24098.48    8.4708531 
    7390    744.55371   -7144.7366   -7061.6805   -181.92947    24093.575    8.4957746 
    7400    741.99928    -7144.181   -7061.4099   -216.35541    24088.297    8.5172386 
    7410    735.71115   -7143.2766   -7061.2069   -387.75438     24082.51    8.5402513 
    7420    725.89162   -7142.0287   -7061.0544   -252.49179    24075.965    8.5701522 
    7430    713.87287   -7140.5582   -7060.9246   -12.932629    24068.887    8.6082132 
    7440    712.09418   -7140.2315   -7060.7963    -6.717104    24061.677    8.6507719 
    7450    717.93807   -7140.7506   -7060.6635    98.127676    24054.421    8.6904764 
    7460    720.39295   -7140.8928   -7060.5319    222.89683    24047.303    8.7210945 
    7470    730.48725   -7141.9014   -7060.4145    201.84177    24040.555    8.7390135 
    7480     731.5824   -7141.9376   -7060.3285     154.1064    24034.156    8.7484347 
    7490    715.52335   -7140.0849   -7060.2672      369.628    24028.085    8.7628461 
    7500    722.37022   -7140.7993   -7060.2179    368.01992    24022.665    8.7879545 
    7510    737.15912   -7142.4192   -7060.1879     411.6367    24017.972    8.8206496 
    7520    741.95946   -7142.9817    -7060.215     589.8945    24014.109    8.8548769 
    7530     728.2278   -7141.5515   -7060.3166    843.08921    24011.433    8.8815857 
    7540    726.83119   -7141.5696   -7060.4905    793.04879     24010.41    8.8958545 
    7550    734.83475   -7142.7184   -7060.7464    518.03295    24010.975     8.906136 
    7560       739.54   -7143.6219   -7061.1251    326.31144    24012.612    8.9244362 
    7570    735.45139   -7143.6864   -7061.6457    326.44087    24014.983    8.9518061 
    7580     741.1691   -7144.9976    -7062.319    321.50938    24018.058    8.9811662 
    7590    733.72032   -7144.9785   -7063.1309    570.34525    24021.894    9.0064023 
    7600    722.68694   -7144.6384   -7064.0216    811.97606    24026.957    9.0258296 
    7610    713.54672    -7144.502   -7064.9048    883.27494    24033.729    9.0423332 
    7620    714.26004   -7145.3959   -7065.7191    1019.9656    24042.418    9.0582368 
    7630    727.76382   -7147.6376   -7066.4544    1051.4292    24053.312    9.0701601 
    7640    723.16962    -7147.789   -7067.1183    845.62466    24066.487    9.0742382 
    7650    702.64106   -7146.0633   -7067.6826    585.29152    24081.594    9.0725969 
    7660    696.77322   -7145.8636   -7068.1375     254.6267    24098.125      9.07065 
    7670    692.48717    -7145.735   -7068.4871    71.017518    24115.493    9.0735487 
    7680      694.798   -7146.2581   -7068.7524    -154.2078    24133.297    9.0821397 
    7690    698.44917   -7146.8623   -7068.9492   -505.45725    24151.049    9.0949234 
    7700    697.91574   -7146.9541   -7069.1005   -722.43948    24168.074    9.1099379 
    7710    682.58771   -7145.3426   -7069.1989   -821.94296    24183.915    9.1218854 
    7720     694.6598   -7146.7342   -7069.2438   -1209.7353    24198.265    9.1261591 
    7730    699.39574   -7147.2631   -7069.2444   -1441.3995    24210.385    9.1245549 
    7740    692.40752   -7146.4527   -7069.2136    -1346.143    24219.785    9.1201708 
    7750    697.39101   -7146.9449   -7069.1499   -1104.0772    24226.577    9.1167473 
    7760    691.31862   -7146.1665   -7069.0489   -763.75401    24231.203    9.1144732 
    7770     681.8855   -7144.9653   -7068.8999   -468.63918     24234.33    9.1114633 
    7780    686.94864   -7145.3192    -7068.689   -512.31662    24236.485    9.1095473 
    7790    690.01197   -7145.3865   -7068.4146   -482.99677    24237.644    9.1131393 
    7800    683.40202   -7144.3194   -7068.0849   -233.56743    24237.866    9.1228085 
    7810    681.49567   -7143.7138    -7067.692   -72.853417    24237.603    9.1341293 
    7820    688.44882   -7144.0309   -7067.2334   -196.84052    24237.112    9.1422307 
    7830    683.43409   -7142.9566   -7066.7185   -154.47799    24236.243    9.1450272 
    7840    700.23861   -7144.2785   -7066.1659   -119.70706     24235.03     9.143394 
    7850    709.60465   -7144.7466   -7065.5892    177.93404    24233.605    9.1418559 
    7860    720.41407   -7145.4007   -7065.0374    384.80369    24232.511    9.1383858 
    7870    727.08874   -7145.6388   -7064.5309    219.89762    24232.145    9.1304597 
    7880    738.62317   -7146.4931   -7064.0986   -250.20739    24232.169    9.1205801 
    7890    745.08858   -7146.8763   -7063.7605   -480.64445     24231.72    9.1130921 
    7900    746.08952   -7146.7548   -7063.5274   -320.49857    24230.345    9.1133201 
    7910    736.75812   -7145.5759   -7063.3895   -78.935101    24228.294    9.1222725 
    7920    722.54527   -7143.9182   -7063.3172    140.55218    24226.033    9.1383314 
    7930    720.00874   -7143.5962   -7063.2782    65.456138    24223.973    9.1604289 
    7940    714.67393   -7142.9768   -7063.2539   -390.15489     24221.94    9.1866321 
    7950    715.68636   -7143.0753   -7063.2394   -652.60279    24219.104    9.2100102 
    7960    725.02686   -7144.1139   -7063.2361   -730.73027    24214.868    9.2246371 
    7970    713.85259   -7142.8803    -7063.249   -566.00334    24209.051    9.2334453 
    7980    707.12931   -7142.1467   -7063.2654   -419.02031    24201.933    9.2418139 
    7990    724.95425   -7144.1528   -7063.2831   -593.11396    24193.732    9.2525111 
    8000    723.53917    -7144.033   -7063.3211   -643.17126    24184.143    9.2660875 
    8010    722.26255   -7143.9558   -7063.3863   -542.90603    24173.007    9.2797444 
    8020    729.78363   -7144.8873   -7063.4789   -124.98046    24160.558    9.2915576 
    8030    721.26658   -7144.0615   -7063.6031    294.18339    24147.559    9.2994768 
    8040    720.51583   -7144.1326    -7063.758    658.62967    24134.857    9.3004312 
    8050    724.96797   -7144.8122   -7063.9409    1086.2798    24123.227    9.2972593 
    8060    722.43111    -7144.751   -7064.1627    1503.5518    24113.591    9.2977192 
    8070     718.5871   -7144.5907   -7064.4313    1558.0902    24106.792    9.3096524 
    8080     708.3331   -7143.7533   -7064.7377    1581.1643    24103.075    9.3304982 
    8090     698.6179    -7142.992   -7065.0601    1662.0851    24102.569    9.3483889 
    8100    711.76207   -7144.7958   -7065.3976    1113.7156    24105.379    9.3568994 
    8110    719.46971   -7146.0364   -7065.7785    470.23468    24110.569    9.3580221 
    8120    706.84424   -7145.0653   -7066.2157    618.49744    24117.038    9.3542844 
    8130    697.49995   -7144.5054   -7066.6982    844.56105    24124.961    9.3465032 
    8140    686.58455   -7143.7825    -7067.193    591.37551    24134.751    9.3409588 
    8150    698.08906   -7145.5675   -7067.6946   -9.7725757    24145.963    9.3415007 
    8160    701.18305   -7146.4316   -7068.2136   -512.83224    24157.469    9.3459147 
    8170    693.72945   -7146.1257   -7068.7391   -800.39438    24168.258    9.3532508 
    8180    703.03543   -7147.6948   -7069.2701   -1367.9314    24177.586    9.3650281 
    8190    697.25824   -7147.5889   -7069.8087   -1606.8402    24184.372    9.3821853 
    8200    675.88964   -7145.7193   -7070.3227   -1316.5232    24188.091    9.4015375 
    8210    666.05237   -7145.0673   -7070.7681   -1069.6482    24189.119    9.4190822 
    8220    671.03016   -7145.9776   -7071.1231   -747.37734    24187.952    9.4372865 
    8230    689.65098   -7148.3376    -7071.406   -413.47259      24185.2    9.4613204 
    8240    698.60982   -7149.5726   -7071.6416   -80.163679    24181.518    9.4919129 
    8250    696.52901   -7149.5475   -7071.8487    354.71638     24177.62    9.5225504 
    8260    683.58611   -7148.2727   -7072.0177    505.22397    24174.328    9.5462045 
    8270    679.94655   -7147.9834   -7072.1344    280.95601    24171.952    9.5624992 
    8280    674.80234    -7147.459   -7072.1837    160.82045    24170.135    9.5740203 
    8290    675.60755   -7147.5208   -7072.1557    238.08976    24168.656    9.5851216 
    8300    690.89794   -7149.1194   -7072.0487    340.25831     24167.65    9.6007595 
    8310    699.67039   -7149.9174   -7071.8681    559.48885    24167.342    9.6226719 
    8320    720.79188   -7152.0382   -7071.6327    741.22504    24168.178    9.6520399 
    8330    729.17701   -7152.7004   -7071.3596    726.13999    24170.548    9.6891276 
    8340    720.12701   -7151.3922    -7071.061     407.1195    24174.452      9.72862 
    8350    714.23096   -7150.3809   -7070.7073   -161.70148    24179.268    9.7694052 
    8360    715.90505   -7150.1271   -7070.2668   -795.86666    24183.852    9.8145684 
    8370     708.2426   -7148.7197   -7069.7142   -1101.5327    24186.963    9.8604551 
    8380    708.88195   -7148.1184   -7069.0415    -1408.636    24187.848    9.8989855 
    8390    713.18561   -7147.8012   -7068.2443   -1619.9833    24185.845    9.9323833 
    8400    721.38777   -7147.8447   -7067.3728   -1382.6514    24180.517    9.9631035 
    8410     727.2797   -7147.6262    -7066.497   -1030.9328    24172.192    9.9905461 
    8420    738.10942   -7148.0261   -7065.6889   -528.07694    24161.577    10.020065 
    8430    744.51758   -7148.0532   -7065.0012   -210.39425    24149.582    10.056581 
    8440    733.89232   -7146.3228    -7064.456    45.326344    24136.899    10.101553 
    8450    719.42974   -7144.2823   -7064.0288    87.446902    24124.006    10.152478 
    8460    717.33877    -7143.699   -7063.6788    56.849522    24111.014    10.202589 
    8470    716.56848   -7143.3135   -7063.3792    170.36729    24097.909    10.245565 
[...]
   22890    707.72656    -7141.553   -7062.6051    1805.9394    23878.706    31.754312 
   22900    711.04722   -7141.8766   -7062.5582    2075.5279    23848.714    31.775069 
   22910    728.22606   -7143.7527    -7062.518    2151.7037    23822.842    31.795236 
   22920    711.04838   -7141.8115   -7062.4929    2459.2426    23801.338    31.824307 
   22930     699.4856      -7140.5   -7062.4713    2629.2781    23784.725    31.868243 
   22940    711.11089   -7141.7621   -7062.4366    2708.7197    23773.332    31.913879 
   22950    706.92112   -7141.2456   -7062.3875    3082.7895    23767.407     31.94264 
   22960    720.85807   -7142.7595   -7062.3467    3070.0058    23767.551    31.946676 
   22970    736.90063   -7144.5412   -7062.3388    2937.2966    23773.806    31.939885 
   22980    725.58576   -7143.3286   -7062.3884    2840.8326    23785.927    31.942247 
   22990     705.0015     -7141.12    -7062.476    2642.9432    23803.708    31.961309 
   23000    705.91322   -7141.2999   -7062.5542    2109.2753    23826.711    31.993789 
   23010    718.86708   -7142.8087    -7062.618    1651.6432    23853.945    32.026914 
   23020    721.58421   -7143.1926   -7062.6988    1690.4532    23884.578    32.049541 
   23030    722.17724   -7143.3688   -7062.8088    1779.5063    23918.608    32.060103 
   23040    724.84328   -7143.8004   -7062.9431    1577.8397    23956.136     32.06308 
   23050    729.36105   -7144.4645   -7063.1032    1064.3053    23996.733    32.068289 
   23060    725.01805   -7144.1725   -7063.2956    585.06849    24039.399    32.082849 
   23070    708.11709   -7142.4962   -7063.5047    413.53227      24083.2    32.106997 
   23080    716.65571   -7143.6601   -7063.7161    120.88294    24127.669    32.139679 
   23090    722.63849    -7144.551   -7063.9396   -76.646677    24172.212    32.175866 
   23100    706.36135   -7142.9836   -7064.1879   -6.1218126    24216.433    32.199748 
   23110     707.5806   -7143.3709   -7064.4392   -154.41674    24260.349    32.207155 
   23120    717.19027   -7144.6916    -7064.688   -476.18841    24303.642    32.215724 
   23130    705.81737   -7143.6719   -7064.9369   -857.99083    24345.615    32.239309 
   23140    686.87593   -7141.7861   -7065.1641   -956.56192    24385.544    32.277255 
   23150     677.6592   -7140.9345   -7065.3406   -1125.3189    24423.135    32.326466 
   23160    685.36645   -7141.9054   -7065.4518   -1400.3318    24458.039    32.377969 
   23170    693.07227   -7142.8222   -7065.5089   -1683.8202    24489.696    32.428511 
   23180      689.823   -7142.4712   -7065.5204   -1720.6116    24517.583    32.482414 
   23190    703.99573   -7144.0324   -7065.5006   -1653.0884    24541.591    32.536106 
   23200    710.85978   -7144.7639   -7065.4665   -1193.7604    24561.968    32.576384 
   23210    703.97665   -7143.9622   -7065.4326   -770.64477    24579.623    32.586364 
   23220    720.33442   -7145.7485   -7065.3941   -968.48613    24595.385    32.562708 
   23230    747.30737   -7148.7375   -7065.3742   -1542.9848    24608.896    32.523657 
   23240    735.67885    -7147.487   -7065.4209   -1827.8263    24619.064    32.493459 
   23250    710.31776   -7144.7603   -7065.5232   -1856.2685    24625.323    32.484275 
   23260    709.16373   -7144.7527   -7065.6444   -2163.4628    24627.532    32.491665 
   23270    723.46914   -7146.4887   -7065.7846   -2513.7811    24625.129    32.499782 
   23280    730.27938   -7147.4481   -7065.9843   -2546.6976    24617.463    32.492519 
   23290    694.61709   -7143.7161   -7066.2306   -1955.7259    24604.595    32.464767 
   23300    667.13252   -7140.8695   -7066.4499   -1410.5007    24587.688    32.420403 
   23310    679.15712   -7142.3554   -7066.5944   -1223.2144    24567.912     32.37072 
   23320    695.83782   -7144.2958    -7066.674   -1238.4487     24545.74    32.327753 
   23330    693.44437   -7144.0549   -7066.7002    -908.3037    24521.276    32.298744 
   23340    698.82242   -7144.6245   -7066.6698   -149.52056    24495.281    32.285523 
   23350    714.24351   -7146.2641   -7066.5891    510.21851    24469.296    32.284666 
   23360    724.97237   -7147.3679   -7066.4961    907.15861    24444.694    32.290257 
   23370    723.25814   -7147.0994   -7066.4189    1181.5991     24422.31    32.291785 
   23380    708.49247   -7145.3906   -7066.3572    1428.7605      24402.7    32.286199 
   23390    706.32882   -7145.0847   -7066.2927    1498.5738     24386.33      32.2779 
   23400    715.58595   -7146.0414   -7066.2167    1373.1024    24373.291      32.2725 
   23410    694.18996   -7143.5584   -7066.1205    1466.3342    24363.377     32.27166 
   23420    694.62014   -7143.4675   -7065.9816    1397.5655     24356.65    32.276068 
   23430     713.9106   -7145.4197   -7065.7819     1134.723     24352.91    32.281408 
   23440    711.57982   -7144.9126   -7065.5348    925.97994    24351.601    32.279228 
   23450    716.09599   -7145.1349   -7065.2533    802.23803    24352.254    32.269381 
   23460    723.64142   -7145.6699   -7064.9466    698.18497    24354.563     32.26299 
   23470    724.49396   -7145.4577   -7064.6393    616.56016    24358.278    32.269463 
   23480    721.55886   -7144.8278   -7064.3368    676.68606    24363.225    32.287739 
   23490    717.94436   -7144.1181   -7064.0303    740.36356    24369.488    32.307338 
   23500    733.11355   -7145.4994   -7063.7195    464.59277    24377.099    32.319696 
   23510    741.61998   -7146.1592   -7063.4303    301.56833    24385.555    32.321442 
   23520    733.00375   -7144.9597    -7063.192     195.8864    24394.476    32.311335 
   23530    723.85831   -7143.7362   -7062.9887     40.76338     24403.63    32.293527 
   23540    715.93224   -7142.6593   -7062.7959   -154.85398    24412.684    32.274897 
   23550    717.15295   -7142.6011   -7062.6016   -267.72936    24421.266    32.259061 
   23560     720.9861   -7142.8351    -7062.408   -367.98926    24429.131    32.247394 
   23570    715.99849   -7142.0929   -7062.2222   -410.18411     24436.11    32.242487 
   23580    716.63292   -7141.9752   -7062.0337   -771.59983    24442.037    32.246795 
   23590    718.91638   -7142.0341   -7061.8379    -797.8766    24446.318    32.255449 
   23600     717.4858   -7141.6794   -7061.6428   -599.00278    24448.901    32.258274 
   23610    732.97049   -7143.2189   -7061.4549   -376.78431      24450.2    32.251406 
   23620    744.49923   -7144.3485   -7061.2985    188.53511    24450.751    32.246898 
   23630     739.2013   -7143.6593   -7061.2003    888.18786    24451.729    32.256222 
   23640    729.64294   -7142.5541   -7061.1613    1171.3332    24454.471     32.27424 
   23650    715.99945   -7141.0224   -7061.1516    1067.9432    24459.558    32.295879 
   23660    727.62024   -7142.3255   -7061.1583    731.20012    24466.769     32.32692 
   23670    738.91971    -7143.622   -7061.1944    355.64158    24475.386    32.373412 
   23680    725.05093    -7142.169   -7061.2885    294.33608      24484.7    32.431452 
   23690    712.03254   -7140.8509   -7061.4226    249.78765    24494.513    32.487516 
   23700    729.35032    -7142.946   -7061.5859    -161.6527    24504.638    32.528807 
   23710    738.28343   -7144.1671   -7061.8105    -607.2179    24514.298    32.556294 
   23720    716.76557   -7142.0687   -7062.1124   -1091.8382    24522.524    32.574394 
   23730    698.61639   -7140.3846   -7062.4529   -1475.2155    24528.364    32.575893 
   23740    717.26174   -7142.8356    -7062.824   -1778.9887    24531.018    32.558072 
   23750    720.20881   -7143.5866   -7063.2462   -1546.7552     24530.01    32.537461 
   23760    716.03386   -7143.6002   -7063.7255   -1439.3222    24525.719    32.526276 
   23770    716.74221   -7144.2011   -7064.2474   -1405.9265    24518.437    32.521158 
   23780    711.85199   -7144.2076   -7064.7994   -1137.0032    24508.343    32.521951 
   23790    691.62326   -7142.5007   -7065.3491   -988.62483    24495.964    32.534838 
   23800    672.05955   -7140.8066   -7065.8374   -1153.7996    24481.596     32.56495 
   23810    670.14521   -7140.9985   -7066.2428   -1369.5559     24464.96    32.605369 
   23820    665.59768   -7140.7952   -7066.5468   -986.19256    24445.789    32.642353 
   23830    679.88085      -7142.6   -7066.7583   -640.92741    24424.766    32.670011 
   23840    685.45087   -7143.3555   -7066.8924   -410.69454    24402.639    32.684432 
   23850    664.68053   -7141.0926   -7066.9464   -97.245591    24379.935    32.682296 
   23860    665.05745   -7141.0916   -7066.9035    251.34759    24357.297    32.667362 
   23870    695.37356   -7144.3322   -7066.7622    577.86592    24335.445    32.648716 
   23880    726.85021   -7147.6551   -7066.5739    717.78313    24315.004    32.637149 
   23890    727.34611   -7147.5387   -7066.4021    739.84694    24296.267    32.642346 
   23900    727.55971   -7147.4314    -7066.271    736.52919    24279.274    32.670642 
   23910    727.77403   -7147.3551   -7066.1708    834.37007    24264.024    32.715768 
   23920    715.40904   -7145.8921   -7066.0871    729.39173     24250.63    32.759945 
   23930    710.73726    -7145.287   -7066.0032    412.18276    24238.853    32.794379 
   23940    718.44228   -7146.0573    -7065.914    52.540022    24228.037    32.823854 
   23950    718.18434   -7145.9409   -7065.8264    194.13851    24217.548    32.856601 
   23960    706.75135   -7144.5675   -7065.7283     692.7256    24207.645    32.901786 
   23970    707.14832   -7144.4877   -7065.6042    943.14581    24199.235    32.958029 
   23980     704.1284   -7143.9893   -7065.4428    1011.0971    24192.841    33.017328 
   23990    708.52595   -7144.2728   -7065.2356    1046.6638    24188.592    33.072911 
   24000    709.68706   -7144.1372   -7064.9705    1265.4005    24186.592    33.123172 
   24010    711.12723   -7143.9762   -7064.6489    1336.6029    24187.187    33.162835 
   24020    698.30323   -7142.1559   -7064.2591    1282.0976      24190.5     33.19029 
   24030    698.70329   -7141.7218   -7063.7804    1343.0449    24196.433    33.209439 
   24040    710.93908   -7142.5032   -7063.1969    1649.1341    24205.118    33.227104 
   24050     723.0007   -7143.1863   -7062.5345    1859.5753    24217.108    33.259896 
   24060    735.65225   -7143.9137   -7061.8506    1644.3066    24232.722    33.317612 
   24070    734.93707   -7143.1709   -7061.1875    1106.9747    24251.513    33.396201 
   24080    738.04671   -7142.9046   -7060.5743     525.7714    24272.404    33.485178 
   24090     746.1151   -7143.2583    -7060.028    266.35369    24294.255     33.57627 
   24100    744.18649   -7142.5886   -7059.5734  -0.35155353    24316.424    33.663292 
   24110    743.07922   -7142.1065   -7059.2149   -165.11744    24338.383    33.739226 
   24120    741.78608   -7141.6964    -7058.949    -108.3715    24359.807    33.794889 
   24130    735.66651   -7140.8314   -7058.7667   -53.656748    24380.779    33.827533 
   24140    744.47181   -7141.7019   -7058.6549   -309.80947    24401.372    33.847126 
   24150    750.73316   -7142.3591   -7058.6137   -499.84617    24421.118    33.867154 
   24160    744.19704   -7141.6742   -7058.6579   -364.53565     24439.67    33.890925 
   24170    741.75881   -7141.5258   -7058.7814   -494.12787     24457.22    33.923697 
   24180    739.01499   -7141.4054   -7058.9671   -810.16868    24473.523    33.970575 
   24190     726.9405   -7140.2891   -7059.1978   -746.50091    24488.019    34.024694 
   24200    737.20632   -7141.7141   -7059.4777   -473.10127    24500.835    34.076843 
   24210    739.37708   -7142.2961   -7059.8175   -430.70779    24512.464    34.121433 
   24220    729.40224   -7141.5807   -7060.2148   -496.07039    24523.049    34.155526 
   24230    729.53189   -7142.0303   -7060.6499   -667.16227    24532.478    34.184356 
   24240    719.70228   -7141.3914   -7061.1075   -855.81005    24540.393    34.215614 
   24250    699.15766   -7139.5441    -7061.552    -828.5972    24546.478    34.252909 
   24260    690.38059    -7138.956    -7061.943   -978.81408    24550.724    34.297436 
   24270    708.94061   -7141.3676   -7062.2842   -1303.1291    24552.815    34.349128 
   24280    717.22578   -7142.6084   -7062.6008   -1301.9537    24552.197    34.405847 
   24290    720.26268   -7143.2598   -7062.9134   -1176.5532    24548.846    34.462159 
   24300    715.13124   -7142.9901   -7063.2161   -1018.0496    24543.065    34.515262 
   24310    705.80791   -7142.2291   -7063.4952   -1184.3994    24535.109     34.56581 
   24320    703.63842   -7142.2325   -7063.7406   -1334.9475    24524.728    34.611805 
   24330    692.97548   -7141.2442   -7063.9417   -1418.4489    24511.636    34.644185 
   24340    691.37997   -7141.2134   -7064.0889   -1522.4804    24495.678    34.658443 
   24350    699.40571    -7142.205   -7064.1852    -1616.647    24476.678     34.66743 
   24360    709.70314   -7143.4199   -7064.2515   -1803.7873    24454.443    34.691114 
   24370    715.81498   -7144.1638   -7064.3136   -1777.3178    24428.677    34.736297 
   24380     707.2685   -7143.2647   -7064.3679   -1371.4021    24399.523    34.790626 
   24390    713.02794   -7143.9454    -7064.406   -947.22695    24367.797    34.833183 
   24400    718.01574   -7144.5318    -7064.436   -507.67064    24334.424    34.850127 
   24410    700.46888    -7142.597   -7064.4587   -74.024598    24300.339    34.844585 
   24420    692.70569   -7141.7216   -7064.4493    182.92067    24266.454    34.830101 
   24430     702.7133   -7142.7951   -7064.4064    77.922837    24233.253    34.818134 
   24440    703.48805   -7142.8224   -7064.3473   -4.2231273    24200.593    34.813814 
   24450    700.45824   -7142.4176   -7064.2804   -299.54579    24168.243    34.811894 
   24460    708.10733   -7143.1987   -7064.2083   -517.13311    24135.671    34.806997 
   24470    725.01648   -7145.0197    -7064.143   -186.96864    24102.529    34.799636 
   24480    724.51543    -7144.914   -7064.0932    607.97821    24069.496    34.789699 
   24490    723.20786   -7144.7402   -7064.0653    1075.1649    24038.064    34.782389 
   24500    718.32201   -7144.1876   -7064.0577    1237.6503    24009.171    34.792998 
   24510    707.47236   -7142.9784   -7064.0588    1572.2682    23983.193    34.826025 
   24520    707.92629   -7143.0279   -7064.0577    1637.9731    23960.658    34.868356 
   24530    707.86762   -7143.0127    -7064.049    1602.1454    23941.687    34.910659 
   24540    716.03476   -7143.9096   -7064.0349    1451.3704    23926.148     34.94773 
   24550     726.3499   -7145.0505    -7064.025    1226.1439    23913.706    34.972548 
   24560    730.75883   -7145.5578   -7064.0405    1219.0843    23903.919    34.977463 
   24570    733.74615   -7145.9426   -7064.0921    1200.6059      23896.7    34.967426 
   24580    732.14736   -7145.8653   -7064.1932    810.03528    23891.899     34.96236 
   24590    714.20262    -7144.006   -7064.3356     645.1301    23888.818    34.975245 
   24600    699.12116   -7142.4689   -7064.4809    855.64067     23887.15    35.009619 
   24610    690.20715    -7141.588   -7064.5944    1156.4846    23887.255    35.059348 
   24620    690.42465    -7141.678   -7064.6601    1158.9148    23889.611    35.101971 
   24630    708.05345   -7143.6665    -7064.682    1005.9919     23894.23    35.112141 
   24640    730.04279   -7146.1337   -7064.6963    811.50593    23900.809    35.091524 
   24650    728.54764   -7146.0106     -7064.74    880.39744    23909.004    35.067492 
   24660    734.27404   -7146.7429   -7064.8335    1098.5326    23918.904    35.058094 
   24670    740.24653   -7147.5593   -7064.9836    1320.9621    23930.927      35.0658 
   24680    737.58352   -7147.4915    -7065.213     1480.346    23945.487    35.089177 
   24690    727.79769    -7146.706   -7065.5191    1389.1869    23962.855    35.124428 
   24700    721.36393    -7146.361   -7065.8918    939.80666    23982.804    35.168931 
   24710    710.95449   -7145.6272   -7066.3192    499.07289    24004.503    35.219354 
   24720    695.59688   -7144.3729    -7066.778   -6.8749792    24027.009    35.257221 
   24730    690.64815   -7144.2911   -7067.2483   -504.09728    24049.308    35.277256 
   24740    690.45352   -7144.7521   -7067.7309   -863.94335      24070.4    35.298625 
   24750    686.77607   -7144.8367   -7068.2258   -749.07971    24089.635    35.334013 
   24760    688.82636   -7145.5746   -7068.7349   -791.83506    24107.133    35.375588 
   24770    688.04605   -7146.0106    -7069.258   -1233.4151    24122.795     35.40981 
   24780    678.31989   -7145.4515   -7069.7839   -1550.7385    24135.836    35.431951 
   24790    682.47278   -7146.4274   -7070.2965   -1585.5536    24145.658    35.441304 
   24800    694.24816   -7148.2568   -7070.8123   -1515.4618    24152.162    35.443166 
   24810    689.98447   -7148.3033   -7071.3345   -1188.7245    24155.572    35.452093 
   24820    688.79185   -7148.6854   -7071.8497   -967.57941     24156.51    35.483888 
   24830    692.34975   -7149.5807    -7072.348   -759.53489    24155.473    35.537316 
   24840      697.764   -7150.6721   -7072.8355   -668.89496    24152.862    35.596683 
   24850    688.16253   -7150.0709   -7073.3054   -346.28241    24148.982    35.650123 
   24860    680.09669   -7149.6066   -7073.7408   -152.64967    24144.385    35.690675 
   24870    668.19899   -7148.6489   -7074.1103    42.792973    24139.519    35.712503 
   24880    667.85509   -7148.8992    -7074.399    95.524266    24134.757    35.710371 
   24890    679.22828   -7150.3806   -7074.6117    25.918179    24130.202    35.688496 
   24900    677.05319   -7150.2822   -7074.7559    87.247574    24125.755     35.65907 
   24910    682.94242   -7151.0245   -7074.8412    107.11358    24121.512    35.638869 
   24920    691.64641   -7152.0229   -7074.8687   -174.38814    24117.433    35.640351 
   24930     702.8656   -7153.2568   -7074.8511   -310.44658     24113.06     35.65575 
   24940    703.45234   -7153.2736   -7074.8025   -149.45425    24108.137    35.668871 
   24950    676.88194   -7150.2097   -7074.7025    254.28678    24102.987    35.678038 
   24960    678.86898   -7150.2395   -7074.5106    300.04462    24098.295    35.682304 
   24970    685.49636   -7150.6391    -7074.171    437.47609    24094.283    35.682536 
   24980    697.27674   -7151.4457   -7073.6635    275.95908    24091.128    35.684723 
   24990    704.16414   -7151.5197   -7072.9691   -66.655842    24088.547    35.691112 
   25000    714.12384    -7151.771   -7072.1094   -560.75465    24085.802    35.706449 
Loop time of 14287.5 on 16 procs for 20000 steps with 864 atoms

Performance: 0.121 ns/day, 198.437 hours/ns, 1.400 timesteps/s
97.6% CPU use with 16 MPI tasks x 1 OpenMP threads

MPI task timing breakdown:
Section |  min time  |  avg time  |  max time  |%varavg| %total
---------------------------------------------------------------
Pair    | 11538      | 12950      | 14109      | 643.5 | 90.64
Bond    | 0.0035799  | 0.0082429  | 0.01554    |   3.4 |  0.00
Neigh   | 0.28436    | 0.32074    | 0.37247    |   3.8 |  0.00
Comm    | 160.42     | 1111.8     | 2483.5     |1997.8 |  7.78
Output  | 2.2177     | 2.2517     | 2.7503     |   8.6 |  0.02
Modify  | 15.61      | 223.04     | 441.58     |1129.7 |  1.56
Other   |            | 0.2686     |            |       |  0.00

Nlocal:        54.0000 ave          62 max          46 min
Histogram: 1 2 1 2 1 3 3 0 2 1
Nghost:        462.500 ave         510 max         420 min
Histogram: 1 0 4 3 2 0 3 1 1 1
Neighs:         0.00000 ave           0 max           0 min
Histogram: 16 0 0 0 0 0 0 0 0 0
FullNghs:      1924.12 ave        2501 max        1424 min
Histogram: 1 1 3 1 3 3 1 1 1 1

Total # of neighbors = 30786
Ave neighs/atom = 35.631944
Ave special neighs/atom = 0.0000000
Neighbor list builds = 2000
Dangerous builds = 2000
unfix   3
                
Total wall time: 4:52:38
