LAMMPS (29 Sep 2021 - Update 3)
OMP_NUM_THREADS environment is not set. Defaulting to 1 thread. (src/comm.cpp:98)
  using 1 OpenMP thread(s) per MPI task
units	metal
atom_style	full

read_data	mixed.data
Reading data file ...
  orthogonal box = (0.0000000 0.0000000 0.0000000) to (16.534670 17.767358 74.594796)
  1 by 2 by 8 MPI processor grid
  reading atoms ...
  864 atoms
Finding 1-2 1-3 1-4 neighbors ...
  special bond factors lj:    0        0        0       
  special bond factors coul:  0        0        0       
     0 = max # of 1-2 neighbors
     0 = max # of 1-3 neighbors
     0 = max # of 1-4 neighbors
     1 = max # of special neighbors
  special bonds CPU = 0.001 seconds
  read_data CPU = 0.018 seconds

pair_style	quip
pair_coeff	* * /ocean/projects/cts180021p/wuziqi/clease/mint-PD/PhaseDiagram-Clease/Liquid/GAP_potential/gap_LiKCl.xml "Potential xml_label=GAP_2021_9_27_0_1_17_37_618" 17 19 3

neighbor	0.3 bin
neigh_modify	delay 10

timestep	0.001
compute	msd all msd
thermo_style	custom step temp pe etotal press vol c_msd[4]
thermo	10
dump	1 all custom 10 xyz-mix.dump type id x y z
dump	2 all custom 10 force-mix.dump type id fx fy fz

fix     1 all nve
run     2000
Neighbor list info ...
  update every 1 steps, delay 10 steps, check yes
  max neighbors/atom: 2000, page size: 100000
  master list distance cutoff = 6.22
  ghost atom cutoff = 6.22
  binsize = 3.11, bins = 6 6 24
  1 neighbor lists, perpetual/occasional/extra = 1 0 0
  (1) pair quip, perpetual
      attributes: full, newton on
      pair build: full/bin
      stencil: full/bin/3d
      bin: standard
Per MPI rank memory allocation (min/avg/max) = 8.894 | 8.906 | 8.915 Mbytes
Step Temp PotEng TotEng Press Volume c_msd[4] 
       0            0   -8413.4292   -8413.4292   -12531.916    21914.265            0 
      10    63.367096   -8420.5059   -8413.4372   -13062.757    21914.265 0.00028900792 
      20    162.23389   -8431.5423   -8413.4448   -13580.932    21914.265 0.0035442006 
      30    203.76318   -8436.1707   -8413.4406   -13263.999    21914.265  0.011998633 
      40     225.5427      -8438.6   -8413.4404   -13091.981    21914.265  0.023619499 
      50    238.39464   -8440.0352   -8413.4419   -13192.953    21914.265  0.036411648 
      60    237.91747   -8439.9798   -8413.4397    -13151.82    21914.265  0.049420327 
      70    242.25882   -8440.4649   -8413.4405   -12986.142    21914.265  0.062561747 
      80    243.33226   -8440.5825   -8413.4384   -12841.846    21914.265  0.075987004 
      90     256.1439    -8442.014   -8413.4408   -12985.089    21914.265  0.088683986 
     100    260.92723   -8442.5467   -8413.4399   -13129.532    21914.265   0.10092572 
     110    263.36735   -8442.8185   -8413.4395   -13314.209    21914.265   0.11296329 
     120    267.45703   -8443.2754   -8413.4402   -13403.997    21914.265   0.12509928 
     130    267.20277   -8443.2463   -8413.4395   -13198.457    21914.265   0.13819283 
     140    269.21359   -8443.4705   -8413.4393   -12839.711    21914.265   0.15259322 
     150     276.3754   -8444.2699   -8413.4398   -12564.061    21914.265   0.16775295 
     160    282.09052   -8444.9077   -8413.4401   -12400.914    21914.265   0.18315323 
     170    283.74907   -8445.0928   -8413.4402     -12430.3    21914.265    0.1989762 
     180    279.57367   -8444.6271   -8413.4402   -12727.353    21914.265   0.21536827 
     190    272.01519   -8443.7829   -8413.4391   -12943.608    21914.265   0.23180139 
     200    272.98877   -8443.8921   -8413.4397   -13066.814    21914.265    0.2476891 
     210    278.28656   -8444.4833     -8413.44   -13119.162    21914.265   0.26290373 
     220    281.61115   -8444.8543   -8413.4402    -13052.65    21914.265   0.27743582 
     230    283.45537   -8445.0589    -8413.439   -12948.839    21914.265   0.29133107 
     240    292.81696   -8446.1046   -8413.4404   -13016.029    21914.265    0.3048675 
     250    295.20203   -8446.3705   -8413.4402   -13077.887    21914.265   0.31931215 
     260    290.46684   -8445.8415   -8413.4394   -13040.528    21914.265   0.33532684 
     270    290.61991    -8445.858   -8413.4389   -13235.455    21914.265   0.35239777 
     280    301.25443   -8447.0456   -8413.4402   -13515.282    21914.265   0.36952956 
     290    308.28623   -8447.8304   -8413.4406   -13611.572    21914.265   0.38667041 
     300    309.20907   -8447.9319   -8413.4392   -13455.868    21914.265    0.4041006 
     310     314.5316   -8448.5273   -8413.4408   -13198.597    21914.265   0.42152557 
     320    312.09261   -8448.2546   -8413.4402   -12968.083    21914.265   0.43866959 
     330    305.84421   -8447.5573   -8413.4399   -12657.381    21914.265   0.45536472 
     340    303.20988   -8447.2632   -8413.4397   -12498.026    21914.265   0.47172581 
     350    307.13857   -8447.7018     -8413.44   -12492.368    21914.265   0.48754232 
     360    312.15901   -8448.2619   -8413.4401   -12369.505    21914.265   0.50223919 
     370     318.6847   -8448.9898     -8413.44   -12195.898    21914.265   0.51545083 
     380    326.66636   -8449.8808   -8413.4407   -12030.164    21914.265   0.52751087 
     390    328.67292   -8450.1043   -8413.4403   -11786.931    21914.265   0.53983918 
     400    329.42172   -8450.1875     -8413.44   -11529.418    21914.265   0.55338123 
     410    329.12824   -8450.1558   -8413.4411   -11363.621    21914.265   0.56856317 
     420    321.17839   -8449.2675   -8413.4396   -11329.503    21914.265   0.58578319 
     430    319.73313   -8449.1067     -8413.44   -11645.546    21914.265   0.60460993 
     440    321.87014   -8449.3455   -8413.4404   -12168.872    21914.265   0.62482739 
     450    321.69175   -8449.3257   -8413.4405   -12517.526    21914.265   0.64605131 
     460    321.58625   -8449.3131   -8413.4397   -12738.117    21914.265   0.66602281 
     470    327.73765   -8450.0009   -8413.4413    -13118.13    21914.265   0.68222539 
     480    325.78012   -8449.7811   -8413.4399   -13518.975    21914.265   0.69547134 
     490    325.26696   -8449.7242   -8413.4402   -13912.333    21914.265   0.70709849 
     500    326.02809   -8449.8096   -8413.4407    -14245.82    21914.265    0.7181905 
     510     321.8067   -8449.3384   -8413.4404   -14358.421    21914.265   0.73031831 
     520    314.82643   -8448.5595   -8413.4401   -14393.561    21914.265   0.74493886 
     530    311.55922   -8448.1945   -8413.4396    -14504.26    21914.265   0.76206346 
     540    316.52181   -8448.7487   -8413.4402   -14692.451    21914.265   0.78048733 
     550    323.45997   -8449.5224     -8413.44   -14675.954    21914.265   0.79880458 
     560    332.20295   -8450.4987   -8413.4409    -14432.97    21914.265   0.81596428 
     570    332.37528   -8450.5179   -8413.4409   -14008.452    21914.265   0.83234674 
     580    324.44532    -8449.632   -8413.4397   -13682.622    21914.265   0.84880328 
     590    322.54654   -8449.4211   -8413.4405   -13611.186    21914.265   0.86493346 
     600    320.03229     -8449.14   -8413.4399   -13618.158    21914.265   0.88136827 
     610     322.0694   -8449.3667   -8413.4393   -13770.866    21914.265   0.89972436 
     620    332.97088   -8450.5844    -8413.441   -14040.679    21914.265   0.91979176 
     630    336.52886   -8450.9806   -8413.4403   -14106.634    21914.265    0.9400978 
     640    340.63169   -8451.4378   -8413.4399   -14084.373    21914.265   0.95883362 
     650     349.6267   -8452.4431   -8413.4417   -14126.089    21914.265   0.97518253 
     660     345.3101   -8451.9607   -8413.4408    -13925.09    21914.265   0.98949595 
     670    335.30236   -8450.8431   -8413.4396   -13541.064    21914.265    1.0025057 
     680    335.35657   -8450.8495     -8413.44   -13120.509    21914.265    1.0157598 
     690    342.86707   -8451.6878   -8413.4405   -12807.122    21914.265    1.0306556 
     700    350.61517   -8452.5527    -8413.441   -12613.893    21914.265    1.0481195 
     710    351.61871   -8452.6647   -8413.4411    -12558.63    21914.265     1.067876 
     720    346.37378   -8452.0785     -8413.44   -12478.274    21914.265    1.0873947 
     730    347.79156   -8452.2373   -8413.4406   -12593.955    21914.265    1.1041491 
     740    351.02442    -8452.599   -8413.4417   -12781.856    21914.265    1.1188548 
     750    344.89782   -8451.9145   -8413.4406   -12888.282    21914.265     1.133643 
     760      340.342   -8451.4064   -8413.4407   -13050.736    21914.265    1.1491825 
     770    340.04955   -8451.3737   -8413.4407   -13326.749    21914.265    1.1643304 
     780      345.357   -8451.9656   -8413.4405   -13558.373    21914.265    1.1777023 
     790    357.12317   -8453.2788   -8413.4411   -13831.043    21914.265    1.1886997 
     800    366.64045   -8454.3407   -8413.4414   -14129.874    21914.265    1.1976392 
     810    368.68447   -8454.5688   -8413.4415   -14063.484    21914.265    1.2056605 
     820    366.60174   -8454.3361   -8413.4411   -13908.726    21914.265    1.2141717 
     830    365.85586   -8454.2531   -8413.4413   -13853.131    21914.265    1.2243585 
     840     368.4524   -8454.5423   -8413.4409   -13972.673    21914.265    1.2365636 
     850    371.87492   -8454.9262    -8413.443    -14131.16    21914.265    1.2503596 
     860     358.1746   -8453.3954   -8413.4405     -13818.7    21914.265    1.2649975 
     870    354.45705   -8452.9806   -8413.4404   -13465.958    21914.265     1.278191 
     880    366.65296   -8454.3425   -8413.4418   -13399.092    21914.265    1.2880847 
     890    376.93995   -8455.4909   -8413.4426    -13274.53    21914.265    1.2959326 
     900    375.96913   -8455.3817   -8413.4418   -13062.805    21914.265    1.3041818 
     910    374.01489   -8455.1632   -8413.4413   -12824.206    21914.265    1.3130528 
     920    378.94842   -8455.7136   -8413.4414   -12747.174    21914.265    1.3222121 
     930    388.54983   -8456.7859   -8413.4426   -12880.601    21914.265    1.3329508 
     940    389.80019   -8456.9258    -8413.443   -12981.003    21914.265    1.3457299 
     950    382.52604   -8456.1127   -8413.4413   -12918.004    21914.265    1.3587946 
     960    381.75271   -8456.0275   -8413.4424   -13120.356    21914.265    1.3710856 
     970    380.20365    -8455.854   -8413.4417   -13297.868    21914.265    1.3835601 
     980    384.06597   -8456.2848   -8413.4416    -13360.21    21914.265    1.3967998 
     990    391.39252    -8457.104   -8413.4436    -13319.56    21914.265    1.4114384 
    1000    385.55287   -8456.4508   -8413.4418   -13032.957    21914.265    1.4285977 
    1010    381.98963   -8456.0536   -8413.4421   -12900.345    21914.265    1.4480597 
    1020    382.08452   -8456.0644   -8413.4423   -12891.786    21914.265    1.4678099 
    1030    380.66666   -8455.9065   -8413.4425   -12820.478    21914.265    1.4859085 
    1040    378.02017   -8455.6107    -8413.442   -12814.774    21914.265    1.5012686 
    1050    381.70997   -8456.0224   -8413.4421   -12925.622    21914.265    1.5119118 
    1060    391.42566   -8457.1073   -8413.4432    -13146.33    21914.265    1.5173209 
    1070    396.24192   -8457.6441   -8413.4428   -13102.084    21914.265    1.5196151 
    1080    397.63032   -8457.7993    -8413.443   -12889.784    21914.265    1.5211703 
    1090    396.12759   -8457.6308   -8413.4422   -12537.537    21914.265    1.5231683 
    1100    400.33119   -8458.1002   -8413.4426   -12299.668    21914.265    1.5256834 
    1110    407.17314   -8458.8635   -8413.4428   -12099.612    21914.265    1.5296348 
    1120    413.19804   -8459.5369    -8413.444   -11926.861    21914.265    1.5369315 
    1130    409.94165   -8459.1721   -8413.4425   -11927.354    21914.265    1.5487344 
    1140    411.69689   -8459.3679   -8413.4425   -12274.932    21914.265    1.5644715 
    1150    417.92932   -8460.0654   -8413.4448   -12599.199    21914.265    1.5822789 
    1160    409.45399   -8459.1175   -8413.4423   -12608.558    21914.265    1.6004412 
    1170    405.75202   -8458.7057   -8413.4435   -12496.116    21914.265    1.6169469 
    1180    399.97271   -8458.0606    -8413.443   -12466.412    21914.265    1.6317671 
    1190    393.04741   -8457.2883   -8413.4433   -12618.331    21914.265    1.6460138 
    1200    381.93867   -8456.0489   -8413.4431   -12576.103    21914.265    1.6602667 
    1210    376.72969   -8455.4667   -8413.4419   -12745.258    21914.265    1.6726433 
    1220     387.4652   -8456.6661   -8413.4437   -13270.317    21914.265    1.6819979 
    1230    392.11995   -8457.1848   -8413.4433   -13698.725    21914.265    1.6894908 
    1240    392.35374   -8457.2109   -8413.4432   -14054.078    21914.265    1.6958816 
    1250    387.63167   -8456.6848   -8413.4439   -14383.659    21914.265    1.7022745 
    1260    377.01437   -8455.4984   -8413.4419   -14780.957    21914.265    1.7098627 
    1270    380.16106   -8455.8505   -8413.4429    -15291.91    21914.265    1.7186286 
    1280    386.65141    -8456.575   -8413.4435   -15684.863    21914.265    1.7280931 
    1290    386.45138   -8456.5524   -8413.4431   -15669.118    21914.265    1.7377267 
    1300    384.49318   -8456.3333   -8413.4425   -15192.167    21914.265    1.7465203 
    1310    389.16883   -8456.8559   -8413.4435   -14748.802    21914.265    1.7543822 
    1320    395.91985   -8457.6092   -8413.4437   -14540.669    21914.265    1.7626209 
    1330    402.24128   -8458.3144   -8413.4438   -14482.176    21914.265    1.7719127 
    1340    406.72312   -8458.8138   -8413.4433   -14593.779    21914.265    1.7822942 
    1350    413.88937   -8459.6138   -8413.4438   -14633.206    21914.265    1.7929881 
    1360    418.26368   -8460.1021   -8413.4441   -14272.723    21914.265    1.8043383 
    1370    412.53709   -8459.4628   -8413.4437   -13640.472    21914.265    1.8173742 
    1380    404.03017    -8458.513   -8413.4428   -13053.663    21914.265    1.8314414 
    1390    402.11865   -8458.3013   -8413.4444   -12796.252    21914.265    1.8446224 
    1400    396.75786   -8457.7017   -8413.4428   -12890.081    21914.265    1.8555613 
    1410     401.1626   -8458.1945   -8413.4442   -13251.623    21914.265    1.8625402 
    1420    405.53922    -8458.683   -8413.4445   -13540.901    21914.265    1.8651673 
    1430    404.12534   -8458.5245   -8413.4437   -13662.885    21914.265    1.8648977 
    1440    405.72045   -8458.7027    -8413.444   -13771.634    21914.265    1.8643414 
    1450    406.67484   -8458.8092    -8413.444   -13873.149    21914.265    1.8661066 
    1460    406.94702   -8458.8395   -8413.4439   -13898.845    21914.265    1.8707341 
    1470    405.99802   -8458.7335   -8413.4438    -13583.81    21914.265    1.8783175 
    1480    405.25435   -8458.6503   -8413.4436   -13097.342    21914.265    1.8881067 
    1490    408.19865    -8458.979   -8413.4439   -12662.726    21914.265    1.8977467 
    1500    414.56579   -8459.6887   -8413.4433   -12296.863    21914.265    1.9065246 
    1510    429.03716   -8461.3044   -8413.4447   -11735.577    21914.265    1.9156573 
    1520    435.43303   -8462.0188   -8413.4456   -11140.275    21914.265    1.9269758 
    1530    420.46896   -8460.3486   -8413.4446     -10759.3    21914.265    1.9420002 
    1540    404.55727   -8458.5707   -8413.4417   -10562.297    21914.265    1.9594173 
    1550     414.5371   -8459.6878   -8413.4456   -10873.945    21914.265    1.9756145 
    1560    415.64167   -8459.8093   -8413.4438    -11180.84    21914.265    1.9896674 
    1570    417.51903   -8460.0192   -8413.4444   -11574.862    21914.265      2.00287 
    1580    420.71133   -8460.3754   -8413.4444   -12084.028    21914.265    2.0173903 
    1590    422.23753   -8460.5459   -8413.4446   -12650.323    21914.265    2.0354221 
    1600    420.26548   -8460.3254   -8413.4441   -13157.964    21914.265    2.0567995 
    1610    418.97614   -8460.1816   -8413.4442   -13379.664    21914.265    2.0784503 
    1620    422.99101    -8460.629   -8413.4437   -13476.483    21914.265    2.0978277 
    1630    431.41255   -8461.5707    -8413.446   -13473.665    21914.265     2.115193 
    1640    426.28653   -8460.9963   -8413.4434   -13430.412    21914.265    2.1338075 
    1650    431.13487   -8461.5387    -8413.445   -13658.596    21914.265       2.1559 
    1660    436.17822   -8462.1019   -8413.4456   -13638.641    21914.265    2.1797337 
    1670    428.12023   -8461.2022   -8413.4447   -13252.346    21914.265    2.2035441 
    1680    422.66155   -8460.5919   -8413.4434   -13022.696    21914.265    2.2262152 
    1690    430.34848   -8461.4521    -8413.446   -12966.155    21914.265    2.2464937 
    1700    426.21611   -8460.9896   -8413.4446   -12849.343    21914.265    2.2649593 
    1710    421.63281   -8460.4781   -8413.4443    -12902.06    21914.265    2.2822078 
    1720    425.52952   -8460.9136   -8413.4451   -13254.993    21914.265    2.2992296 
    1730    433.21398   -8461.7705   -8413.4448   -13760.925    21914.265    2.3170264 
    1740    441.86781   -8462.7372   -8413.4461   -14050.542    21914.265    2.3352522 
    1750    438.27813    -8462.336   -8413.4454   -13921.401    21914.265    2.3528289 
    1760    429.17186   -8461.3192   -8413.4444   -13408.002    21914.265    2.3694072 
    1770    428.81898   -8461.2807   -8413.4453    -12917.73    21914.265    2.3858611 
    1780    433.34916   -8461.7857    -8413.445   -12638.931    21914.265    2.4026666 
    1790     441.0669   -8462.6474   -8413.4457   -12705.172    21914.265     2.419074 
    1800    447.24535   -8463.3359    -8413.445   -12842.309    21914.265    2.4345236 
    1810    451.04914   -8463.7611   -8413.4459   -13058.485    21914.265    2.4502124 
    1820    445.08252   -8463.0941   -8413.4445   -13035.825    21914.265    2.4671851 
    1830    441.70858   -8462.7187   -8413.4454   -12922.342    21914.265    2.4853863 
    1840    432.65555   -8461.7082   -8413.4449   -13058.866    21914.265    2.5046773 
    1850    428.24526   -8461.2146   -8413.4432   -13494.155    21914.265    2.5239509 
    1860    442.70809   -8462.8312   -8413.4464     -14052.9    21914.265    2.5417036 
    1870    445.34398   -8463.1238   -8413.4451   -14177.248    21914.265    2.5577578 
    1880    449.56383   -8463.5931   -8413.4436   -14088.107    21914.265    2.5732932 
    1890    469.70151   -8465.8424   -8413.4465   -13965.821    21914.265    2.5900107 
    1900    475.61979   -8466.5029   -8413.4468   -13338.709    21914.265    2.6092547 
    1910    460.77113   -8464.8444   -8413.4447   -12266.897    21914.265    2.6300063 
    1920    453.29076   -8464.0097   -8413.4444   -11600.031    21914.265    2.6488623 
    1930    455.01355   -8464.2038   -8413.4464   -11532.276    21914.265     2.664581 
    1940    446.57627   -8463.2611   -8413.4448   -11610.068    21914.265    2.6787843 
    1950    442.24787   -8462.7779   -8413.4445    -12067.88    21914.265     2.691974 
    1960    445.34565   -8463.1243   -8413.4453   -12574.104    21914.265    2.7033659 
    1970     445.3849   -8463.1293   -8413.4459   -12683.518    21914.265    2.7130116 
    1980    438.45896   -8462.3558    -8413.445   -12521.804    21914.265    2.7223802 
    1990    435.82997    -8462.062   -8413.4445   -12590.151    21914.265    2.7312795 
    2000    445.20858   -8463.1089   -8413.4452   -13039.215    21914.265    2.7384799 
Loop time of 1327.31 on 16 procs for 2000 steps with 864 atoms

Performance: 0.130 ns/day, 184.348 hours/ns, 1.507 timesteps/s
97.2% CPU use with 16 MPI tasks x 1 OpenMP threads

MPI task timing breakdown:
Section |  min time  |  avg time  |  max time  |%varavg| %total
---------------------------------------------------------------
Pair    | 498.69     | 837.42     | 1308.3     | 801.7 | 63.09
Bond    | 0.00014257 | 0.00036205 | 0.0007112  |   0.0 |  0.00
Neigh   | 0.017773   | 0.030425   | 0.055573   |   6.5 |  0.00
Comm    | 18.528     | 436.69     | 735.91     |1021.6 | 32.90
Output  | 0.3461     | 35.192     | 74.284     | 491.2 |  2.65
Modify  | 0.010014   | 0.011316   | 0.013341   |   1.1 |  0.00
Other   |            | 17.97      |            |       |  1.35

Nlocal:        54.0000 ave          84 max          36 min
Histogram: 3 3 4 0 0 2 1 0 1 2
Nghost:        477.750 ave         592 max         348 min
Histogram: 2 0 2 1 3 3 1 0 0 4
Neighs:         0.00000 ave           0 max           0 min
Histogram: 16 0 0 0 0 0 0 0 0 0
FullNghs:      2234.12 ave        4892 max        1038 min
Histogram: 5 5 0 0 2 0 2 0 0 2

Total # of neighbors = 35746
Ave neighs/atom = 41.372685
Ave special neighs/atom = 0.0000000
Neighbor list builds = 199
Dangerous builds = 198
unfix   1

velocity    all create 412.5 1312343 dist gaussian
fix     2 all npt temp 412.5 412.5 $(100.0*dt) aniso 0.0 1.01325 $(1000.0*dt)
fix     2 all npt temp 412.5 412.5 0.10000000000000000555 aniso 0.0 1.01325 $(1000.0*dt)
fix     2 all npt temp 412.5 412.5 0.10000000000000000555 aniso 0.0 1.01325 1
run     3000
Per MPI rank memory allocation (min/avg/max) = 8.894 | 8.907 | 8.916 Mbytes
Step Temp PotEng TotEng Press Volume c_msd[4] 
    2000        412.5   -8463.1089   -8417.0939   -13217.055    21914.265    2.7384799 
    2010    415.66828   -8463.7259   -8417.3575   -13172.725    21894.866    2.7356892 
    2020    421.17601   -8465.0758    -8418.093   -12286.594    21837.361    2.7287962 
    2030    434.86653   -8467.6761    -8419.166   -10728.598    21744.916    2.7190342 
    2040    441.17209   -8469.5918   -8420.3784   -8276.6642    21623.678    2.7081782 
    2050    446.86866   -8471.3855   -8421.5367   -5608.2025     21483.16    2.6984019 
    2060    451.78736   -8472.9135   -8422.5159   -2750.9466    21334.448    2.6920042 
    2070    442.35886   -8472.5687   -8423.2229    11.405116    21188.902    2.6888489 
    2080    448.41235   -8473.7184   -8423.6973    2070.2189    21056.338    2.6861722 
    2090    459.65131   -8475.3635   -8424.0887    2931.7594    20942.782     2.683044 
    2100    466.50662   -8476.5716   -8424.5321    2665.0831    20849.475    2.6803188 
    2110    473.68205   -8477.9096   -8425.0697    1818.8098    20773.909     2.678301 
    2120    475.63342   -8478.7169   -8425.6593    848.31285    20711.951    2.6773954 
    2130    481.03918   -8479.9205   -8426.2599    -324.7682    20659.345    2.6797263 
    2140    481.72176   -8480.6078    -8426.871   -1639.5919    20611.844    2.6870154 
    2150    477.26494   -8480.7399   -8427.5003   -2317.4454    20565.538    2.6982934 
    2160    476.36283   -8481.2796   -8428.1406   -2238.8134    20518.338    2.7109667 
    2170    475.40584   -8481.8286   -8428.7963   -1759.3942    20470.107    2.7234718 
    2180    468.51985   -8481.7194   -8429.4553   -978.96906    20421.765    2.7356066 
    2190    470.58421   -8482.6051   -8430.1107   -282.97556    20374.853    2.7480172 
    2200     478.1431   -8484.1386   -8430.8011    352.16173    20330.687    2.7617434 
    2210    476.82157   -8484.7268   -8431.5367    1094.9298    20290.431    2.7765521 
    2220    475.39376   -8485.3404   -8432.3095    1539.3159    20255.303     2.790376 
    2230     468.2829   -8485.3222   -8433.0845     1882.275    20225.966    2.8012174 
    2240    471.13941   -8486.4007   -8433.8444    2248.9107    20202.816    2.8090521 
    2250     476.0966   -8487.7174   -8434.6081     2619.107    20186.334    2.8164993 
    2260    467.48932   -8487.5196   -8435.3705    2807.9698    20176.982    2.8261464 
    2270    469.98965   -8488.5583   -8436.1302    2320.4347    20174.717    2.8379194 
    2280     486.1103   -8491.1606   -8436.9343    1250.4339    20178.037    2.8501838 
    2290    478.64563   -8491.1841   -8437.7905    530.54885    20184.325    2.8619368 
    2300    456.21561   -8489.5225   -8438.6309    286.24985    20191.753    2.8738896 
    2310    451.92215   -8489.8271   -8439.4145   -162.23446     20199.53    2.8878233 
    2320     460.4618   -8491.5353   -8440.1701   -527.32975    20206.621    2.9067246 
    2330    454.13738   -8491.5739   -8440.9142   -611.50758    20212.219      2.93091 
    2340    452.32789   -8492.1052   -8441.6473   -725.99755    20216.103    2.9556779 
    2350    456.13604   -8493.2656   -8442.3829   -886.10701    20218.067     2.977238 
    2360    451.35588   -8493.4628   -8443.1133   -852.08829    20217.859    2.9955137 
    2370    445.77573   -8493.5501   -8443.8232   -602.06378    20215.632    3.0118228 
    2380    443.71733   -8494.0084    -8444.511    -279.1391    20212.045     3.028839 
    2390    443.90056   -8494.7031   -8445.1853    103.42655     20207.93    3.0488084 
    2400    438.82539   -8494.7963   -8445.8447    669.84588    20204.275    3.0727053 
    2410    434.20984   -8494.9203   -8446.4836    1171.1648    20202.396    3.0992288 
    2420    438.52072   -8496.0366    -8447.119    1083.2363    20203.303    3.1240854 
    2430    436.24304   -8496.4214   -8447.7578     799.6169    20206.784    3.1436482 
    2440    427.83536   -8496.0991   -8448.3735    233.32737    20212.013    3.1578605 
    2450    439.91861   -8498.0464   -8448.9728   -665.10328    20217.553    3.1692077 
    2460     453.8451   -8500.2324   -8449.6053   -1323.3487    20221.357    3.1802917 
    2470    454.82107    -8501.033    -8450.297   -1593.2176    20221.875    3.1936081 
    2480    444.76351   -8500.6326   -8451.0186   -1294.0562    20218.634    3.2108092 
    2490    430.66536   -8499.7519   -8451.7106    -786.7375    20212.406    3.2305719 
    2500    420.83734   -8499.2928   -8452.3478   -560.75083    20204.426    3.2512301 
    2510    416.63108   -8499.4094   -8452.9336   -750.10763    20195.304     3.271685 
    2520    410.14816   -8499.2145   -8453.4618   -767.47062    20184.781     3.289484 
    2530     406.9107   -8499.3112   -8453.9197   -694.93477     20172.83    3.3039669 
    2540    417.31469   -8500.8842   -8454.3321   -649.00415    20159.668    3.3175263 
    2550    423.09686   -8501.9351    -8454.738   -359.73663    20145.514    3.3318121 
    2560     413.2626   -8501.2309   -8455.1308    411.82797    20131.176     3.345807 
    2570    413.23721   -8501.6002    -8455.503    1074.3499    20118.393    3.3585213 
    2580    417.59043   -8502.4494   -8455.8666    1506.3129    20108.672    3.3713451 
    2590     418.0305   -8502.8629    -8456.231    1859.5487    20102.945    3.3859679 
    2600    425.81854   -8504.1072   -8456.6065    1929.9526     20101.87     3.403391 
    2610    434.15584   -8505.4486   -8457.0179    1714.2979    20105.436    3.4244234 
    2620    427.91846   -8505.1996   -8457.4646    1378.9216    20112.975    3.4492087 
    2630    424.02673   -8505.2257   -8457.9248    929.37923    20123.551    3.4767685 
    2640    427.09236   -8506.0312   -8458.3884    444.45164    20136.002    3.5053544 
    2650    431.46094   -8506.9948   -8458.8646     65.12063    20149.102    3.5328136 
    2660    422.46934   -8506.4761    -8459.349   -143.31364    20161.928    3.5574482 
    2670    412.04182   -8505.7724   -8459.8085   -639.60024    20173.905    3.5795149 
    2680    420.30879   -8507.1291    -8460.243   -1468.8244     20183.84    3.6010015 
    2690    425.08176   -8508.0934   -8460.6749   -1919.5763    20189.941     3.622739 
    2700    420.51327   -8508.0187   -8461.1099   -1728.1081    20191.307    3.6450038 
    2710    417.75532   -8508.1447   -8461.5435   -1225.8141    20188.474    3.6679945 
    2720    411.28171   -8507.8375   -8461.9584   -380.12437    20182.849    3.6910743 
    2730    419.96236   -8509.2058   -8462.3583    189.35854    20176.429    3.7140377 
    2740    427.21576   -8510.4314   -8462.7748    326.69121    20170.588    3.7373007 
    2750    409.68308   -8508.8983   -8463.1975    424.66264    20165.749    3.7599731 
    2760    395.56412   -8507.7135   -8463.5877    511.53911    20162.114    3.7800653 
    2770    396.80451   -8508.1906   -8463.9265    624.81628     20159.86    3.7967995 
    2780    402.23936   -8509.0908   -8464.2204    707.90255    20159.199     3.811471 
    2790    408.94341   -8510.1067   -8464.4885    664.88454    20160.277     3.825299 
    2800    416.57436   -8511.2136   -8464.7441    306.51095    20162.869    3.8401515 
    2810    418.52757   -8511.6782   -8464.9908   -84.839575    20166.097    3.8584436 
    2820    423.32962   -8512.4605   -8465.2374    -293.7411    20169.044    3.8803616 
    2830    425.84349   -8513.0084   -8465.5049   -126.65489    20171.257    3.9044512 
    2840    415.44172   -8512.1385   -8465.7953    212.79883    20173.132    3.9309727 
    2850    404.66293   -8511.2241   -8466.0833    271.94891      20175.4     3.960455 
    2860    407.55167   -8511.8179   -8466.3549    120.26272    20178.225    3.9912888 
    2870    414.68267   -8512.8759   -8466.6174   -281.10454    20181.187    4.0219333 
    2880    407.14898   -8512.2894   -8466.8713   -406.20782    20183.429    4.0520573 
    2890    395.18404   -8511.1759   -8467.0925   -332.16166    20184.657     4.080968 
    2900    401.98581    -8512.116   -8467.2739   -457.48472    20184.983    4.1077756 
    2910    407.48578   -8512.8863   -8467.4306   -265.68823    20184.276    4.1321686 
    2920    406.83122   -8512.9608   -8467.5782    47.091649    20182.993    4.1540943 
    2930    402.05496    -8512.566   -8467.7162    168.45573    20181.853    4.1731663 
    2940      403.377   -8512.8396   -8467.8423   -167.73207    20181.058    4.1886875 
    2950    406.58804   -8513.3131   -8467.9576     -476.288    20179.887    4.1997651 
    2960    399.23908   -8512.5904   -8468.0547   -248.71347    20177.721    4.2055262 
    2970    405.64983    -8513.377   -8468.1262   -302.42327    20174.971      4.20707 
    2980    424.74247   -8515.5755   -8468.1948   -739.62438    20171.481    4.2077739 
    2990    417.50618   -8514.8545    -8468.281   -619.30112    20166.434    4.2116899 
    3000    413.29221   -8514.4833   -8468.3799   -524.18568    20160.039    4.2191047 
    3010    418.49092   -8515.1677   -8468.4845   -689.26371    20152.512    4.2268958 
    3020    415.34604   -8514.9265    -8468.594   -369.37068    20143.676    4.2327561 
    3030    415.43468    -8515.052   -8468.7096    250.37421    20134.296    4.2387453 
    3040    409.40616   -8514.4954   -8468.8255    788.06141    20125.796    4.2490636 
    3050    404.43032   -8514.0448     -8468.93    1127.0707    20119.448    4.2640411 
    3060    416.94167   -8515.5381   -8469.0276     1182.506    20115.985    4.2807156 
    3070    428.63442   -8516.9618    -8469.147    1285.5217    20115.538    4.2980758 
    3080    428.97574   -8517.1625   -8469.3096    1502.3289    20118.272    4.3171545 
    3090     426.6267   -8517.1073   -8469.5164     1588.088    20124.564    4.3370509 
    3100    420.96044   -8516.7145   -8469.7557    1519.9935    20134.531    4.3536722 
    3110    418.15466   -8516.6613   -8470.0155    1125.5731    20147.829    4.3632665 
    3120    415.44514   -8516.6315    -8470.288    974.42525     20163.56    4.3657523 
    3130    397.94176   -8514.9446   -8470.5536    1099.0278    20181.292    4.3635119 
    3140    385.78868   -8513.8128   -8470.7775    1000.6477    20201.166    4.3588849 
    3150    395.42722   -8515.0526   -8470.9421    381.86836    20222.854    4.3543279 
    3160    412.23392   -8517.0415   -8471.0562   -656.92623    20244.825    4.3515257 
    3170    428.23799   -8518.9316    -8471.161   -1686.6143     20264.56    4.3509512 
    3180    421.67437   -8518.3281   -8471.2897   -2018.8812    20279.749    4.3530335 
    3190    417.50199   -8518.0196   -8471.4467   -2062.3344    20289.601    4.3564992 
    3200    419.69439   -8518.4458   -8471.6282   -2127.3489    20294.075    4.3582147 
    3210    414.58517   -8518.0756    -8471.828   -2013.1267    20293.205    4.3559876 
    3220    420.00891   -8518.8983   -8472.0457   -1727.2742    20287.433    4.3503058 
    3230    422.19124   -8519.3826   -8472.2865   -1564.7361    20277.535    4.3431891 
    3240    415.89537   -8518.9389   -8472.5452   -1341.5135    20264.095    4.3371623 
    3250    422.09624   -8519.9026   -8472.8172   -1041.0759     20247.72    4.3349061 
    3260    425.98754   -8520.6247   -8473.1051   -286.98851    20229.327    4.3381796 
    3270    418.20995   -8520.0487   -8473.3968    763.97913    20210.816    4.3459803 
    3280    418.70741   -8520.3881   -8473.6807    1331.5976    20194.603    4.3567905 
    3290    431.28211    -8522.093   -8473.9828    1385.0693    20182.007    4.3716845 
    3300    425.04852   -8521.7316   -8474.3168    1260.9128    20173.096    4.3914724 
    3310    418.14234   -8521.3021   -8474.6577    1071.1521      20167.5    4.4156549 
    3320    430.31301   -8523.0044   -8475.0023     594.4022    20164.607    4.4435009 
    3330    436.91684   -8524.1045   -8475.3658    22.026569    20163.233    4.4742831 
    3340    438.38304    -8524.664   -8475.7617   -537.80475     20161.97    4.5068254 
    3350    421.33426   -8523.1664   -8476.1659   -871.22766    20159.461    4.5388546 
    3360    405.37417   -8521.7508   -8476.5307   -912.77676    20154.948    4.5675589 
    3370    410.17678   -8522.6094   -8476.8535   -986.25277    20148.309    4.5919185 
    3380    409.95265   -8522.8745   -8477.1436   -871.82617    20139.456    4.6134726 
    3390    414.34407   -8523.6289   -8477.4082    -419.4712    20128.789    4.6351648 
    3400    419.44896   -8524.4458   -8477.6556    57.290781    20117.383    4.6595056 
    3410    414.10568   -8524.0749   -8477.8808    502.02658    20106.394    4.6846245 
    3420    410.67582   -8523.8931   -8478.0816    976.06584    20096.901    4.7070069 
    3430    406.76707    -8523.636   -8478.2605    1194.6273    20089.966    4.7268671 
    3440    413.37107   -8524.5405   -8478.4283    1065.2813    20086.037    4.7451171 
    3450    421.03117   -8525.5698   -8478.6031    1099.0162    20084.844    4.7631933 
    3460    419.35409   -8525.5742   -8478.7946     1046.859    20086.332    4.7843416 
    3470    418.96508   -8525.7369   -8479.0007    680.76902    20090.266    4.8094717 
    3480    425.46225   -8526.6853   -8479.2243   -55.450418    20095.683    4.8367787 
    3490    423.74982    -8526.744   -8479.4741   -524.24769    20100.908    4.8660241 
    3500    410.14562   -8525.4875   -8479.7352   -566.66985     20104.84    4.8977365 
    3510     402.8294   -8524.9167   -8479.9804   -585.25358    20107.304    4.9307489 
    3520    399.65057   -8524.7694   -8480.1877   -257.17333    20108.389    4.9638874 
    3530    404.56406   -8525.4857    -8480.356    160.94078    20108.864    4.9970826 
    3540    417.32652   -8527.0636   -8480.5102    210.98208      20109.6    5.0319081 
    3550    416.05819   -8527.0801   -8480.6681    467.06043    20110.897    5.0688607 
    3560    412.04982   -8526.7925   -8480.8277    798.43708     20113.32     5.106741 
    3570    416.41857    -8527.437   -8480.9849    1247.5556    20117.687    5.1450438 
    3580    427.55383   -8528.8495   -8481.1552    1353.1759    20124.944    5.1836644 
    3590    441.53206   -8530.6248   -8481.3712    947.12868    20135.237    5.2237843 
    3600    433.40812   -8529.9977   -8481.6503    805.19583    20147.716    5.2661423 
    3610     419.7741   -8528.7952   -8481.9687    669.77285    20161.896    5.3088957 
    3620    415.41712   -8528.6391   -8482.2986    301.96793    20177.359    5.3507223 
    3630    407.85679   -8528.1053   -8482.6083    -526.7012    20193.125    5.3911461 
    3640    416.63934   -8529.3627    -8482.886   -1777.5321    20207.168     5.428844 
    3650    422.92383   -8530.3275   -8483.1497   -2747.8438    20216.609    5.4657426 
    3660    408.15605   -8528.9404     -8483.41   -2840.5204    20219.286    5.5050702 
    3670    400.71408   -8528.3452   -8483.6449   -2532.2093    20214.998    5.5459848 
    3680    417.55696    -8530.435   -8483.8559   -2004.2591    20204.625    5.5854636 
    3690    427.15279   -8531.7125    -8484.063   -1082.4345    20189.651    5.6228606 
    3700    428.62634    -8532.092   -8484.2781   -107.17753    20172.402    5.6611235 
    3710    428.00405    -8532.243   -8484.4985    600.85428     20155.28    5.7041547 
    3720    424.68049   -8532.0973   -8484.7236    939.44221    20139.998    5.7531342 
    3730    423.66763   -8532.2152   -8484.9544    1096.0856    20127.359     5.806314 
    3740    417.13884   -8531.7167   -8485.1842    1398.2235    20117.768    5.8615291 
    3750    411.24222   -8531.2772   -8485.4025    1369.9108    20111.753    5.9185102 
    3760    414.46892   -8531.8389   -8485.6043    1017.5219    20109.172    5.9781005 
    3770    425.52684    -8533.262   -8485.7938    529.43671     20109.11    6.0412868 
    3780    431.42424   -8534.1101   -8485.9841    173.72307    20110.355    6.1061194 
    3790    424.58381   -8533.5361   -8486.1731    127.11176    20112.087    6.1675614 
    3800    423.14986   -8533.5684   -8486.3654   -71.124685    20114.043    6.2221318 
    3810    422.57466   -8533.7074   -8486.5686   -55.279462    20115.851     6.270366 
    3820    419.35882   -8533.5621    -8486.782    59.644474    20117.489    6.3157945 
    3830     415.1549   -8533.3071   -8486.9959    103.01651    20119.206    6.3618351 
    3840    404.17019   -8532.2744   -8487.1886    71.999186    20121.099    6.4077372 
    3850    406.71411   -8532.7134   -8487.3438   -19.910187    20123.104     6.448767 
    3860    428.78016   -8535.3111     -8487.48   -506.25935    20124.903    6.4829746 
    3870    438.38581   -8536.5392   -8487.6366   -844.99642    20125.458    6.5123421 
    3880     444.9144   -8537.4737   -8487.8428   -938.46723    20123.997    6.5392351 
    3890     446.5946   -8537.9313    -8488.113   -834.43002    20120.322    6.5664635 
    3900    429.59802   -8536.3433    -8488.421   -703.38943     20114.73     6.596796 
    3910    426.44404   -8536.3068   -8488.7364   -941.69369    20107.518    6.6290807 
    3920    423.23043    -8536.261    -8489.049    -1344.616    20098.183    6.6594117 
    3930    415.23246   -8535.6676   -8489.3478   -1543.1016    20085.916     6.686235 
    3940    416.48329   -8536.0905   -8489.6312   -1533.3137    20070.311    6.7112503 
    3950    412.19668   -8535.8773   -8489.8961   -1283.1588     20051.52    6.7380795 
    3960    403.50619   -8535.1285   -8490.1168   -819.85063    20030.273    6.7698213 
    3970    411.17844   -8536.1426    -8490.275   -456.58712    20007.698    6.8045398 
    3980    427.65425   -8538.1074   -8490.4019   -187.54222    19984.732    6.8372919 
    3990    420.05772   -8537.3883   -8490.5303    100.95695    19962.077    6.8653669 
    4000    412.15042   -8536.6361   -8490.6601    126.05344    19940.331    6.8898411 
    4010    422.10464    -8537.881   -8490.7946   -150.90725    19919.499    6.9123448 
    4020     419.8879   -8537.7787   -8490.9395    130.88021    19899.115    6.9305397 
    4030    415.07597   -8537.3856   -8491.0833    1030.8065    19879.833     6.942645 
    4040    418.53715    -8537.907   -8491.2185    1833.1031    19863.582    6.9511901 
    4050    426.69005   -8538.9624   -8491.3644    2204.6557    19852.089    6.9582385 
    4060    432.80824   -8539.8285   -8491.5481    2059.1864    19846.053    6.9637656 
    4070    438.91757   -8540.7478   -8491.7859    1485.8817    19844.999    6.9662874 
    4080    445.13366   -8541.7447   -8492.0894    507.11827    19847.381    6.9633322 
    4090    431.13514   -8540.5346   -8492.4408   -84.127042    19850.976    6.9534688 
    4100    421.81564   -8539.8572    -8492.803   -294.42601    19854.345    6.9380849 
    4110    422.49591   -8540.2857   -8493.1557   -274.55612     19856.97    6.9192538 
    4120    425.63124   -8540.9752   -8493.4953   -228.10436     19858.87    6.8968189 
    4130    429.77641    -8541.762   -8493.8198   -442.99248    19860.116    6.8712883 
    4140    424.12601   -8541.4317   -8494.1198    -843.2525    19860.252    6.8444404 
    4150    419.93112   -8541.2241   -8494.3802    -1259.033    19858.387    6.8171998 
    4160    428.29994    -8542.391   -8494.6135   -1593.7941    19853.593    6.7906003 
    4170    433.69782   -8543.2378   -8494.8581   -1307.5128    19845.286    6.7673567 
    4180    427.85861   -8542.8454   -8495.1172    -615.8328    19834.221    6.7508507 
    4190    435.21645   -8543.9353   -8495.3863   -402.20846    19821.927    6.7445176 
    4200    447.35084    -8545.587   -8495.6843    -588.4577     19808.96    6.7507743 
    4210    444.25119   -8545.5862   -8496.0293   -632.34221    19795.006    6.7686549 
    4220    427.77484   -8544.1092   -8496.3903   -806.71977    19779.942    6.7929116 
    4230    429.09395   -8544.6127   -8496.7467   -1648.0231    19763.255    6.8175909 
    4240     430.3716   -8545.1164   -8497.1078   -2437.7936    19743.189    6.8375478 
    4250    427.25171   -8545.1314   -8497.4708   -2861.5416    19718.066     6.850328 
    4260    441.12356   -8547.0645   -8497.8565   -2947.6366    19687.049    6.8573256 
    4270    437.80905   -8547.1005   -8498.2623   -1997.3969    19650.333    6.8600656 
    4280    436.76634   -8547.3763   -8498.6543   -678.50463    19610.178    6.8595112 
    4290       448.69     -8549.09   -8499.0379    528.33685    19569.708    6.8556797 
    4300     443.8693   -8548.9443     -8499.43     1708.678    19531.767    6.8490104 
    4310    426.75978   -8547.4055   -8499.7998    2625.2107    19498.938    6.8436523 
    4320    434.38785    -8548.606   -8500.1494    2985.8048    19473.059     6.844852 
    4330    444.28299   -8550.0793   -8500.5189    3087.7854    19454.757    6.8551617 
    4340    443.87841   -8550.4402   -8500.9249    3183.7942    19444.054    6.8735931 
    4350    445.08869   -8551.0142   -8501.3639    2903.4231    19440.829    6.8986648 
    4360    447.61388   -8551.7627   -8501.8307    2334.1249    19444.243    6.9290197 
    4370    458.38601   -8553.4678   -8502.3341    1310.3776     19452.74     6.963216 
    4380    449.15101   -8552.9732   -8502.8697    425.42956    19463.975     7.000541 
    4390    428.90054   -8551.2179   -8503.3734   -355.09361    19475.847    7.0408987 
    4400    441.89287   -8553.1265   -8503.8327   -1796.2306    19486.389    7.0843981 
    4410    446.33927   -8554.0767   -8504.2869   -2955.3911    19492.549    7.1303701 
    4420    431.13709    -8552.832    -8504.738   -3210.6455    19491.974    7.1763933 
    4430    443.77251    -8554.699   -8505.1955   -3351.6073    19484.128    7.2182702 
    4440    456.61954   -8556.6447   -8505.7081   -2982.5619    19469.015    7.2515524 
    4450    435.91336   -8554.8686   -8506.2418   -1351.0557    19447.943    7.2740149 
    4460    426.83619   -8554.3455   -8506.7312   -11.932522    19424.475    7.2900004 
    4470    431.99455   -8555.3662   -8507.1766    741.38108    19401.701    7.3096769 
    4480    435.04978   -8556.1332   -8507.6028    1214.4918    19381.341    7.3392788 
    4490    432.86897   -8556.3116   -8508.0244    1570.5188     19364.38    7.3741658 
    4500    433.40904   -8556.7873   -8508.4399    1853.5672    19351.511     7.408188 
    4510    439.34558    -8557.875   -8508.8653    1681.7502    19343.135    7.4401762 
    4520    435.05303   -8557.8344   -8509.3036    1474.4545    19338.825     7.469544 
    4530    436.35325   -8558.4247   -8509.7489    1169.5593    19337.946    7.4962023 
    4540    440.83535   -8559.3824   -8510.2065    767.21603    19339.717    7.5216808 
    4550    444.28428   -8560.2437   -8510.6831    109.73308    19343.109    7.5462489 
    4560    455.24669   -8561.9774    -8511.194   -1036.2985    19346.526    7.5676753 
    4570    454.69031   -8562.4737   -8511.7523   -1780.7027    19347.588    7.5826107 
    4580    438.64881   -8561.2549    -8512.323   -1670.4705    19344.809    7.5879434 
    4590    434.01903   -8561.2876   -8512.8721   -1780.0884    19338.316    7.5850356 
    4600    438.74502   -8562.3493   -8513.4066   -2172.5381    19327.965    7.5792468 
    4610    435.64654   -8562.5285   -8513.9315   -2025.9483    19313.179    7.5749501 
    4620    436.94796   -8563.1851   -8514.4429    -1744.993    19294.324    7.5733742 
    4630    441.18791   -8564.1716   -8514.9565   -1515.8114    19272.132    7.5727833 
    4640    434.79398   -8563.9697   -8515.4678   -909.11698     19247.35    7.5705962 
    4650    426.03584   -8563.4805   -8515.9556   -184.36714    19221.361    7.5672444 
    4660    424.77231   -8563.7971   -8516.4131    221.63716    19195.711    7.5666221 
    4670    433.79877   -8565.2551   -8516.8642    384.20619    19171.298    7.5728284 
    4680    436.30051   -8565.9978   -8517.3278    799.81003    19148.584    7.5869085 
    4690    432.81549   -8566.0738   -8517.7926    849.78314     19128.28    7.6050294 
    4700    439.46393   -8567.2906   -8518.2677    438.45703    19110.407    7.6215197 
    4710     431.0471   -8566.8327   -8518.7487    170.74607    19094.074    7.6353744 
    4720     422.4897   -8566.3411   -8519.2118    54.374755    19078.643    7.6483886 
    4730    430.76244   -8567.7132    -8519.661    -175.8627    19063.776    7.6606861 
    4740    444.07548   -8569.6646   -8520.1273   -44.008826    19049.069    7.6713609 
    4750    452.46299   -8571.1123   -8520.6394     320.2737    19034.772     7.681956 
    4760    448.79318   -8571.2584   -8521.1948    666.48733    19021.616    7.6940722 
    4770    449.00866   -8571.8614   -8521.7738    840.10271    19010.287       7.7073 
    4780    451.96106   -8572.7854   -8522.3684    771.53445     19001.08    7.7218847 
    4790    450.57149   -8573.2237   -8522.9617     205.6032    18993.741    7.7403028 
    4800    458.72546   -8574.7332   -8523.5617   -784.42514    18986.999    7.7635158 
    4810    456.18229   -8575.0729   -8524.1851   -1377.3772    18978.869    7.7886665 
    4820    436.94712   -8573.5415   -8524.7994    -1547.815     18968.11    7.8134084 
    4830    439.58084   -8574.4217   -8525.3858   -1814.5191    18954.333    7.8381868 
    4840     447.1648   -8575.8617   -8525.9798   -2102.2355    18937.062    7.8610376 
    4850    443.56945   -8576.0585   -8526.5776    -1565.788    18916.021    7.8782982 
    4860    448.78434   -8577.2466    -8527.184   -828.58695    18892.315    7.8912268 
    4870    443.70496   -8577.2887   -8527.7927   -68.964196      18867.6    7.9056668 
    4880    443.20191   -8577.8435   -8528.4037    407.94955    18843.467    7.9269281 
    4890    444.66002   -8578.6088   -8529.0063    898.52039     18821.01    7.9592991 
    4900    456.96551   -8580.5934   -8529.6183    886.75097    18801.102    8.0025492 
    4910    459.66168   -8581.5435   -8530.2675    697.33438    18783.687    8.0507424 
    4920    447.92237   -8580.8892   -8530.9227    792.47401     18768.37    8.1002179 
    4930    447.96964   -8581.5212   -8531.5495    1176.7214    18755.314    8.1503789 
    4940    452.08362   -8582.5878   -8532.1572    1704.0145    18745.222    8.1990087 
    4950     451.1663   -8583.1037   -8532.7755    1936.5916    18738.991    8.2438906 
    4960    447.05651   -8583.2695   -8533.3997    1985.5694    18737.049    8.2865283 
    4970     456.7121   -8584.9908   -8534.0438    1431.6632    18739.229    8.3291774 
    4980    452.54189   -8585.2003   -8534.7186    741.23256    18744.304    8.3708047 
    4990    445.52137   -8585.0898   -8535.3912    113.93902    18750.776    8.4095545 
    5000    458.14881   -8587.1776   -8536.0704   -736.12193    18757.196    8.4474142 
Loop time of 2122.86 on 16 procs for 3000 steps with 864 atoms

Performance: 0.122 ns/day, 196.561 hours/ns, 1.413 timesteps/s
96.0% CPU use with 16 MPI tasks x 1 OpenMP threads

MPI task timing breakdown:
Section |  min time  |  avg time  |  max time  |%varavg| %total
---------------------------------------------------------------
Pair    | 692.66     | 1428.7     | 2104.1     |1071.8 | 67.30
Bond    | 0.00022483 | 0.00048406 | 0.0011289  |   0.0 |  0.00
Neigh   | 0.028506   | 0.04792    | 0.083225   |   8.4 |  0.00
Comm    | 1.9901     | 496.84     | 1144.3     |1447.3 | 23.40
Output  | 0.21013    | 0.21451    | 0.27894    |   3.6 |  0.01
Modify  | 1.1862     | 197.01     | 724.26     |1581.6 |  9.28
Other   |            | 0.01712    |            |       |  0.00

Nlocal:        54.0000 ave          80 max          35 min
Histogram: 5 1 2 1 1 0 1 1 2 2
Nghost:        521.312 ave         663 max         360 min
Histogram: 2 0 2 2 2 2 0 2 2 2
Neighs:         0.00000 ave           0 max           0 min
Histogram: 16 0 0 0 0 0 0 0 0 0
FullNghs:      2658.88 ave        5144 max        1129 min
Histogram: 5 3 1 1 0 0 1 3 0 2

Total # of neighbors = 42542
Ave neighs/atom = 49.238426
Ave special neighs/atom = 0.0000000
Neighbor list builds = 300
Dangerous builds = 300
unfix   2

fix     3 all npt temp 412.5 412.5 $(100.0*dt) aniso 1.01325 1.01325 $(1000.0*dt)
fix     3 all npt temp 412.5 412.5 0.10000000000000000555 aniso 1.01325 1.01325 $(1000.0*dt)
fix     3 all npt temp 412.5 412.5 0.10000000000000000555 aniso 1.01325 1.01325 1
run     20000
Per MPI rank memory allocation (min/avg/max) = 8.895 | 8.909 | 8.924 Mbytes
Step Temp PotEng TotEng Press Volume c_msd[4] 
    5000    458.14881   -8587.1776   -8536.0704   -736.12193    18757.196    8.4474142 
    5010    456.36466   -8587.0361    -8536.128   -621.34175    18756.396      8.46314 
    5020    450.15858     -8586.51   -8536.2941   -168.31698    18754.335    8.4836501 
    5030    453.99174   -8587.2022   -8536.5588    187.29199    18751.896    8.5099866 
    5040    452.17003   -8587.3625   -8536.9222    159.93995    18749.777      8.53914 
    5050    451.51339   -8587.7411   -8537.3741   -207.27211    18747.941    8.5676122 
    5060    448.78793   -8587.9516   -8537.8886    -588.6101    18745.668    8.5943327 
    5070    441.88751   -8587.7092   -8538.4159   -908.79174    18742.153    8.6178097 
    5080    438.34268   -8587.8113   -8538.9136    -1064.842    18736.727    8.6352295 
    5090    432.94941   -8587.6444   -8539.3483     -677.464    18729.119    8.6462087 
    5100    444.27227   -8589.2877   -8539.7284   -258.29994    18720.049    8.6572031 
    5110    460.16953   -8591.4441   -8540.1115   -205.51878    18710.333    8.6736721 
    5120    449.66849   -8590.6713   -8540.5101     391.8576    18700.287    8.6934457 
    5130    449.93093    -8591.103   -8540.9125    841.52019     18690.99    8.7118538 
    5140    453.98747   -8591.9726   -8541.3296    1124.5756    18683.437    8.7283311 
    5150    450.59904   -8592.0326   -8541.7676    1227.0134    18678.237    8.7470277 
    5160    457.15937   -8593.2305   -8542.2337    1177.9787    18675.619    8.7708282 
    5170    452.37307   -8593.1942   -8542.7313    1257.2514    18675.535    8.7995108 
    5180    441.41528   -8592.4725    -8543.232    1112.4541     18678.09    8.8316913 
    5190    451.14919   -8594.0627   -8543.7363    490.30785    18682.952    8.8660648 
    5200    453.47162   -8594.8456   -8544.2602    -257.3219    18688.861    8.9014786 
    5210    447.32632   -8594.6956   -8544.7957   -977.32888    18694.236    8.9359368 
    5220    439.87729   -8594.3855   -8545.3166   -1613.0937    18697.549    8.9671364 
    5230    432.87494    -8594.102   -8545.8141   -2077.9546    18697.464    8.9938149 
    5240    434.42149   -8594.7565   -8546.2961   -2545.1661     18692.96     9.015786 
    5250    443.03775   -8596.2087   -8546.7872   -2551.7756    18683.136    9.0318378 
    5260    457.00328   -8598.2957   -8547.3163   -1982.3208    18667.978    9.0438628 
    5270    459.03631   -8599.1038   -8547.8976   -1188.5274    18648.677    9.0612826 
    5280    447.65646   -8598.4357   -8548.4989   -384.45452    18626.919    9.0922863 
    5290    448.14596   -8599.0802   -8549.0889    326.14712    18604.393    9.1356809 
    5300    457.02262   -8600.6617   -8549.6801    848.42985    18582.602    9.1865792 
    5310     456.0039   -8601.1584   -8550.2905    1542.6734    18562.756    9.2413233 
    5320     456.1394   -8601.8047   -8550.9216    1697.6405    18546.132    9.2985762 
    5330    451.45253   -8601.9115   -8551.5513    1429.7212    18533.104    9.3578639 
    5340    454.28137   -8602.8381   -8552.1623    995.35639    18523.111    9.4168741 
    5350    460.63333   -8604.1589   -8552.7746    861.59231    18515.327    9.4732208 
    5360    458.10058    -8604.509   -8553.4072    1131.2638     18509.45    9.5286551 
    5370    451.26862   -8604.3934   -8554.0537    1805.1801    18506.047    9.5882268 
    5380    450.64314   -8604.9734   -8554.7034    2306.4699    18506.376     9.656891 
    5390    450.89981   -8605.6504   -8555.3518    2410.3961    18511.431    9.7366216 
    5400    447.94274     -8605.97   -8556.0013    2298.3934    18521.409    9.8262917 
    5410    443.45984   -8606.1133   -8556.6447    2095.3701    18536.037    9.9218611 
    5420    446.98769   -8607.1487   -8557.2866    1722.8668    18554.838     10.02172 
    5430     448.8329   -8607.9972   -8557.9292    1330.6609    18576.987    10.126582 
    5440    439.25337   -8607.5525   -8558.5531    972.29625    18601.623    10.236022 
    5450    433.50789   -8607.4962   -8559.1378    399.18925    18627.881    10.348192 
    5460    416.77131   -8606.1536   -8559.6622    119.58799    18654.618    10.457677 
    5470    412.53478   -8606.1372   -8560.1183   -247.56575    18681.115    10.560045 
    5480    414.24573   -8606.7344   -8560.5247    -675.6838    18706.619    10.656451 
    5490    429.36346   -8608.8026   -8560.9065   -1528.9719    18730.134    10.747207 
    5500    450.43608    -8611.568   -8561.3212   -2381.5469    18749.946    10.830262 
    5510    439.76702    -8610.843   -8561.7864   -2583.1628    18764.448    10.903799 
    5520    437.44255   -8611.0802   -8562.2828   -3375.5173    18773.009    10.967047 
    5530    442.83451   -8612.2236   -8562.8247   -4124.5744    18774.214    11.018752 
    5540    423.62179   -8610.6442   -8563.3886   -3562.0878    18766.941    11.057178 
    5550    428.69215   -8611.7672    -8563.946   -2833.5623    18752.303    11.083471 
    5560    434.07568   -8612.9287   -8564.5069   -1840.8646    18732.082     11.10343 
    5570    427.74918   -8612.7777   -8565.0616   -831.42828    18708.434    11.125464 
    5580    421.81757   -8612.6436   -8565.5892    8.6872255    18683.539    11.155306 
    5590    424.86201    -8613.474     -8566.08     582.2467    18659.197    11.196208 
    5600    439.55267   -8615.5917   -8566.5589    991.02344    18636.651    11.247919 
    5610    431.96741   -8615.2189   -8567.0322    1613.1662    18616.795    11.308048 
    5620    427.39276   -8615.1664   -8567.4901    2056.3367    18600.777    11.372846 
    5630    430.44808   -8615.9667   -8567.9496    2076.7819    18589.391    11.438623 
    5640    423.71022    -8615.676   -8568.4105    1852.2033    18582.564    11.503329 
    5650     416.9684   -8615.3679   -8568.8545    1434.0786    18579.737    11.567618 
    5660    419.14036   -8616.0368   -8569.2811    748.04373    18579.903    11.632003 
    5670    416.68427   -8616.1692   -8569.6875     141.4476    18581.628    11.693056 
    5680    425.83496   -8617.5874   -8570.0849   -187.69566    18583.675    11.746265 
    5690    436.42209   -8619.1815   -8570.4979   -617.51563    18585.236    11.790311 
    5700    439.07168   -8619.9186   -8570.9395   -1135.0544    18585.448    11.825942 
    5710     442.3402   -8620.7641   -8571.4203   -1561.4801    18583.312    11.854041 
    5720    434.38414   -8620.3914   -8571.9352   -1510.6824     18578.08     11.87571 
    5730    427.52861   -8620.1477   -8572.4563   -1285.6389     18569.89    11.893014 
    5740    431.39082   -8621.0979   -8572.9756   -1601.6029     18559.13     11.90703 
    5750    434.53803   -8621.9681   -8573.4948   -2110.8183    18545.271    11.917627 
    5760    445.76292   -8623.7603   -8574.0347   -2376.1595    18527.415    11.924572 
    5770    449.87332   -8624.7977   -8574.6137    -1982.522    18505.212     11.92685 
    5780    447.78327   -8625.1732   -8575.2223   -1402.1456    18479.492    11.923873 
    5790    439.45054   -8624.8623    -8575.841   -920.18369    18451.504    11.917133 
    5800    430.84156   -8624.4955   -8576.4344   -538.47715    18422.331    11.909203 
    5810    436.71973   -8625.7084   -8576.9916   -375.31021    18392.784    11.902971 
    5820    452.86824    -8628.076   -8577.5578   -363.66377    18363.211    11.900088 
    5830    443.49106   -8627.6129   -8578.1408     583.7772    18333.861    11.897641 
    5840    438.86222   -8627.6721   -8578.7164    1950.5256    18306.539    11.891222 
    5850    434.97459   -8627.8042   -8579.2821    2975.4332    18283.836    11.881266 
    5860    436.43812   -8628.5273    -8579.842     2978.083     18267.51    11.872684 
    5870    434.87397   -8628.9069    -8580.396    2454.6657    18257.523    11.869251 
    5880    435.64305   -8629.5326   -8580.9359    1683.5675    18252.691    11.872446 
    5890    440.32334   -8630.5893   -8581.4705    956.76051    18251.342    11.881757 
    5900    436.76583   -8630.7142   -8581.9923    901.15806    18252.077    11.895957 
    5910    438.30918   -8631.3922   -8582.4981    906.30252    18254.619    11.913365 
    5920    447.12832   -8632.8951   -8583.0172    718.69695    18258.887    11.929013 
    5930    450.88558   -8633.8803   -8583.5833    205.37593    18264.445    11.941157 
    5940    439.77844   -8633.2383   -8584.1803   -593.98043     18270.26    11.954198 
    5950    438.05794   -8633.6475   -8584.7815   -1863.5137    18274.659    11.971374 
    5960    432.88998   -8633.6753   -8585.3857   -2827.7873    18275.262    11.990996 
    5970    421.59667   -8632.9924   -8585.9626   -2551.8253     18270.41    12.009795 
    5980    426.57408   -8634.0925   -8586.5075   -1765.3181    18260.617    12.026815 
    5990    420.97568   -8633.9803   -8587.0198   -699.67044    18247.556    12.040652 
    6000    432.31459   -8635.7423   -8587.5169   -334.99508    18233.261    12.050717 
    6010    444.52747   -8637.6234   -8588.0357   -145.61122    18218.571    12.056549 
    6020    436.75681   -8637.2807   -8588.5598    1127.2635    18204.115     12.05894 
    6030    439.08821   -8638.0502   -8589.0692    2190.5912     18192.19    12.063762 
    6040    440.11007   -8638.6739    -8589.579    2227.9418    18184.701    12.076382 
    6050     439.3048   -8639.1036   -8590.0985    1881.0111    18181.751       12.097 
    6060    448.52211   -8640.6738   -8590.6405    923.30632     18182.47    12.122336 
    6070    462.55697   -8642.8381   -8591.2392    131.99309    18185.038    12.148219 
    6080    455.87113   -8642.7518   -8591.8987    122.72992    18187.963    12.172647 
    6090    440.29465   -8641.6766    -8592.561      339.431    18191.134    12.197596 
    6100    445.86776   -8642.9456   -8593.2084    88.757895     18194.84    12.225954 
    6110    454.63832   -8644.5767   -8593.8611   -380.52317    18198.626    12.255691 
    6120    456.23529   -8645.4338     -8594.54   -642.22234    18201.625     12.28037 
    6130    440.53603   -8644.3602   -8595.2178   -249.09318    18203.423    12.297852 
    6140    439.30239    -8644.866   -8595.8611   -16.497669    18204.658    12.310838 
    6150    452.77898   -8647.0023   -8596.4941   -291.98521     18205.76    12.324319 
    6160    451.50581   -8647.5055   -8597.1394   -477.53186    18206.279    12.343046 
    6170    436.41445   -8646.4459   -8597.7632    53.911659    18205.985     12.37096 
    6180    431.86449   -8646.5238   -8598.3487    553.29559    18205.819    12.410677 
    6190    439.23009   -8647.9096   -8598.9128     392.8741    18206.624     12.46283 
    6200    450.86738   -8649.7916   -8599.4966    374.02772    18208.241     12.52464 
    6210    447.96976   -8650.0898   -8600.1181    516.97207    18210.628    12.590097 
    6220    434.11809   -8649.1745    -8600.748    321.09201    18213.947    12.653655 
    6230    433.14972   -8649.6807   -8601.3622   -436.69524    18217.767     12.71401 
    6240    444.82823   -8651.5958   -8601.9746   -1620.8802    18220.571    12.772037 
    6250    451.09624   -8652.9216   -8602.6012   -2212.2838    18220.188    12.826736 
    6260     456.0984   -8654.1466   -8603.2681   -1982.8296    18215.526    12.877474 
    6270    456.92406     -8654.96   -8603.9895   -1373.3022    18207.019    12.925323 
    6280    449.04087   -8654.8232    -8604.732    -75.19136    18196.045    12.972792 
    6290    446.75293   -8655.2882   -8605.4522    1204.1019     18185.07     13.02414 
    6300    435.56682   -8654.7049   -8606.1167    2387.4204    18176.659    13.081836 
    6310    419.73747    -8653.521   -8606.6987      3344.91    18173.121       13.145 
    6320    420.56297   -8654.1287   -8607.2143    3190.6679    18176.111    13.212262 
    6330    435.56961   -8656.3026   -8607.7142    2218.0631    18185.264    13.279639 
    6340    435.85575   -8656.8411   -8608.2208    1536.3415    18198.743    13.345053 
    6350    435.37056   -8657.3109   -8608.7447    1217.9182    18215.119       13.409 
    6360    435.67713   -8657.8885   -8609.2881      924.021    18233.675    13.471343 
    6370      431.652   -8657.9923   -8609.8408    362.46617    18253.705    13.533819 
    6380    422.13956   -8657.4617   -8610.3714   -244.02664    18274.148    13.599627 
    6390    425.37265   -8658.3261   -8610.8751   -1273.5541    18293.678    13.670302 
    6400    426.01021   -8658.8868   -8611.3647   -1948.2339    18310.419      13.7433 
    6410    415.47745   -8658.1884   -8611.8412   -2220.8297     18323.03    13.814674 
    6420    405.37487   -8657.5033   -8612.2831   -2444.1985    18330.948    13.883441 
    6430    406.77482   -8658.0689   -8612.6926    -2809.025    18333.769    13.947605 
    6440      397.722   -8657.4274   -8613.0609    -2749.029    18330.936    13.999101 
    6450    400.73466   -8658.0868   -8613.3843   -2241.8936    18322.624    14.030933 
    6460    415.97887   -8660.0867   -8613.6836   -1343.6367     18309.96    14.045409 
    6470    431.37992   -8662.1164   -8613.9953   -103.71104    18294.839    14.054543 
    6480    426.19992   -8661.8787   -8614.3355    1164.3519    18279.753    14.070615 
    6490    412.42787   -8660.6845   -8614.6776    1885.8665    18267.175    14.099248 
    6500    423.10896   -8662.2183   -8615.0199    1590.2998    18258.427     14.14161 
    6510    424.09796    -8662.686   -8615.3772    976.72055    18252.975    14.196324 
    6520    413.14736   -8661.8289   -8615.7417    744.98345    18249.645    14.261738 
    6530    414.43262   -8662.3332   -8616.1026    869.00842    18247.929    14.334518 
    6540    417.54772   -8663.0328   -8616.4547    1255.5951    18248.054    14.409156 
    6550    418.83042   -8663.5069   -8616.7858    1484.8285    18250.695    14.480748 
    6560    429.50297   -8665.0256   -8617.1139    868.68222    18256.115    14.545372 
    6570    421.70719   -8664.4967   -8617.4546   -73.855392    18263.161    14.599163 
    6580    403.21224    -8662.767    -8617.788   -983.81334    18269.949    14.639311 
    6590    402.26224   -8662.9683   -8618.0953   -1313.4023    18274.755    14.667963 
    6600     412.1691   -8664.3626   -8618.3845    -1250.312    18276.889    14.691702 
    6610    419.46345   -8665.4669   -8618.6751   -1140.0651    18276.468    14.715201 
    6620    420.38081   -8665.8694   -8618.9753   -1224.5176    18273.695    14.735826 
    6630    415.23081   -8665.6055   -8619.2859   -1335.1892    18268.488    14.748693 
    6640    415.02395   -8665.8933   -8619.5967   -1709.2668    18260.619    14.754121 
    6650    430.87613   -8667.9999    -8619.935   -1927.4108    18249.412    14.758702 
    6660    423.47021   -8667.5463   -8620.3076   -679.76233    18234.755    14.770976 
    6670    407.75643   -8666.1562   -8620.6703    818.91163    18218.955      14.7959 
    6680    412.69222   -8667.0371   -8621.0006    1475.8608    18204.864     14.83034 
    6690    427.05995   -8668.9654   -8621.3263    1084.9067    18193.743    14.863603 
    6700    419.82961   -8668.4929   -8621.6603    706.68283    18184.992    14.888137 
    6710    416.78193   -8668.4854   -8621.9927    270.12246    18177.759    14.906463 
    6720    421.87974    -8669.379   -8622.3177    -188.5597    18171.163    14.925345 
    6730    419.37039   -8669.4239   -8622.6425   -322.11338    18164.324    14.946746 
    6740    414.32026   -8669.1769   -8622.9588    -14.63956    18157.003    14.968168 
    6750    420.05754   -8670.1318   -8623.2737    428.40014    18149.778    14.985947 
    6760    425.11921   -8671.0256   -8623.6029    502.57196     18143.44    15.001275 
    6770      429.811   -8671.9051   -8623.9591    211.92096    18138.135     15.02127 
    6780    433.48015   -8672.7051   -8624.3497   -21.436789    18133.354    15.052053 
    6790    428.94952    -8672.617    -8624.767   -340.50479    18128.584    15.091595 
    6800    437.20401   -8673.9826   -8625.2119    -1136.338    18123.085    15.133988 
    6810    441.42085   -8674.9455   -8625.7043   -1548.4099    18115.453    15.173925 
    6820    417.41333   -8672.7624   -8626.1993   -1469.7289    18104.913    15.208408 
    6830    426.12003   -8674.2035   -8626.6691     -1376.97    18091.594    15.238931 
    6840    435.88529   -8675.7786    -8627.155   -1135.7223    18075.729    15.271469 
    6850    423.57459   -8674.8923   -8627.6419   -637.84106    18057.896    15.312957 
    6860    433.71424   -8676.4986   -8628.1172   -461.32217    18038.981    15.364042 
    6870    433.39443   -8676.9212   -8628.5753     85.03231    18019.495    15.419444 
    6880    433.60335   -8677.3784   -8629.0093    898.83275    18000.515    15.476844 
    6890     437.5318   -8678.2346   -8629.4273    1739.9221    17983.621    15.536074 
    6900    436.11381   -8678.4933   -8629.8441    1971.5316    17970.326    15.597362 
    6910    436.87225   -8679.0038   -8630.2701    1392.7632    17960.989    15.659679 
    6920    445.95871   -8680.4722   -8630.7249    714.21731    17954.501    15.716441 
    6930    446.26959   -8681.0078   -8631.2258    781.39675    17949.638    15.763141 
    6940     439.9463   -8680.8253   -8631.7486    1033.5192    17946.413     15.80351 
    6950    433.67768   -8680.6507   -8632.2733    926.22535    17945.189    15.842263 
    6960    427.64455   -8680.4774    -8632.773    716.12793    17945.778    15.879667 
    6970    430.32012    -8681.253   -8633.2501    440.53397    17947.742    15.916386 
    6980    426.88735   -8681.3322   -8633.7122    496.64446      17950.6    15.955702 
    6990    421.58593   -8681.1777   -8634.1492    326.63344    17954.343    16.003015 
    7000    429.12096   -8682.4361    -8634.567   -564.17395    17958.533    16.060899 
    7010    443.64326   -8684.4849   -8634.9958   -1666.6453     17961.53    16.123353 
    7020    447.32945   -8685.3713    -8635.471   -2010.2409    17961.384    16.182303 
    7030    437.65971   -8684.8025   -8635.9809   -1701.1796     17957.44    16.235837 
    7040    431.08843    -8684.584   -8636.4954    -992.0867    17950.324    16.288885 
    7050    429.12771   -8684.8656   -8636.9958   -356.62354    17941.371    16.348574 
    7060     426.2299   -8685.0267   -8637.4801    106.80771    17931.819    16.416559 
    7070     429.3864   -8685.8497    -8637.951    621.80872    17922.611    16.490379 
    7080    444.95994   -8688.0726   -8638.4366    1087.4261    17914.725    16.568311 
    7090    441.98833   -8688.2452   -8638.9407     1587.879    17909.064    16.650284 
    7100    426.23082   -8686.9809   -8639.4342    1603.5612     17906.47    16.740035 
    7110    411.20766   -8685.7546   -8639.8838    1126.4103    17906.939    16.838422 
    7120    406.99884   -8685.6744    -8640.273    764.21966     17909.61    16.941491 
    7130    422.24327   -8687.7342   -8640.6323     537.8027    17913.727    17.046204 
    7140    425.48204   -8688.4558   -8640.9926    509.49578    17918.875    17.149524 
    7150    413.20363   -8687.4367   -8641.3432    326.82532    17924.915    17.246586 
    7160    408.34621   -8687.2129   -8641.6613   -93.183036    17931.487    17.332489 
    7170    413.75067   -8688.1096   -8641.9551   -524.61292    17937.787    17.404791 
    7180    417.47956   -8688.8107   -8642.2402   -495.32916    17943.065    17.466043 
    7190    425.53019   -8690.0094   -8642.5409   -67.966279    17947.384    17.522936 
    7200     424.2702   -8690.1895   -8642.8615    463.65547     17951.54    17.581225 
    7210    426.62475   -8690.7925   -8643.2019    716.25263    17956.537    17.641554 
    7220    431.12835   -8691.6593   -8643.5663    390.99678     17962.77    17.700603 
    7230     430.7545   -8692.0024   -8643.9511    308.02425    17969.757    17.756923 
    7240    429.40438   -8692.2536   -8644.3529    225.72445    17977.253    17.812764 
    7250    422.09247   -8691.8436   -8644.7586    218.46272    17985.136    17.871273 
    7260    409.89005   -8690.8587   -8645.1349   -109.35648    17993.325    17.932752 
    7270    413.24586   -8691.5796   -8645.4814   -634.77186    18001.184    17.995464 
    7280    411.45946   -8691.7089     -8645.81   -569.20186    18007.852     18.06413 
    7290    408.31679   -8691.6701   -8646.1217   -712.95659    18013.276    18.146527 
    7300    421.46859   -8693.4347   -8646.4193   -1122.5883     18017.19    18.239735 
    7310    423.77181   -8693.9915   -8646.7191   -1361.3415    18018.897    18.333272 
    7320    425.28357   -8694.4724   -8647.0314   -1426.4647    18017.935    18.420546 
    7330    435.84478    -8695.986   -8647.3669   -952.07167    18014.266    18.500292 
    7340    431.79347   -8695.8978   -8647.7306    596.58407    18008.946     18.57574 
    7350    418.63498   -8694.7937   -8648.0943    2324.2622    18004.909     18.65448 
    7360     416.4675    -8694.906   -8648.4485     2876.324    18005.308    18.743048 
    7370    418.11798   -8695.4376   -8648.7959    1893.4186    18011.094    18.843287 
    7380    428.51188   -8696.9443   -8649.1431    212.49985    18020.442    18.952584 
    7390    431.94185   -8697.6878    -8649.504   -1024.5889    18030.185    19.065762 
    7400    412.66088   -8695.8961   -8649.8632   -1396.9603    18037.971    19.174838 
    7410    404.75158    -8695.339   -8650.1884   -1546.7793    18042.991    19.272324 
    7420    425.19063   -8697.9254   -8650.4947   -1642.4965    18044.921    19.355241 
    7430     433.1844   -8699.1364    -8650.814   -1204.7796    18043.705    19.424846 
    7440    441.01855   -8700.3622   -8651.1659   -1031.0762    18040.063    19.483851 
    7450    451.69073   -8701.9608   -8651.5741   -719.30034    18034.462    19.534328 
    7460    439.41479   -8701.0439   -8652.0265   -85.074019    18027.578    19.577096 
    7470    449.36536   -8702.6392   -8652.5118   -156.64385    18020.466    19.617247 
    7480    464.69735   -8704.8997    -8653.062   -456.60778    18013.077    19.660504 
    7490    455.20462   -8704.4389   -8653.6601   -475.82056    18004.931    19.709766 
    7500    455.19315    -8705.047   -8654.2696   -804.88948    17995.875    19.765033 
    7510    458.65639   -8706.0453   -8654.8815   -941.08797    17985.348    19.822083 
    7520    454.54274   -8706.1732   -8655.4683   -258.46161    17973.238    19.873227 
    7530    463.62035   -8707.7468   -8656.0292    246.93017    17960.689    19.911215 
    7540     463.2026   -8708.2746   -8656.6037     1093.568    17948.878      19.9352 
    7550    450.37264   -8707.4166   -8657.1768    1831.4269    17939.325    19.950505 
    7560    448.60741   -8707.7836   -8657.7408    2200.5264    17933.382    19.966367 
    7570    442.21298   -8707.6228   -8658.2933    2256.4976    17931.792    19.995656 
    7580    452.44649   -8709.3198   -8658.8487    1183.4745    17934.421    20.047484 
    7590    462.21056   -8711.0058   -8659.4455   -199.03249    17939.269    20.123604 
    7600    453.70718   -8710.6974   -8660.0857   -593.16048    17943.894    20.220682 
    7610    452.94922   -8711.2839   -8660.7567   -1135.2224    17947.227    20.337437 
    7620    443.37054   -8710.8881   -8661.4295   -1087.0934      17948.4    20.468399 
    7630    432.26864    -8710.269   -8662.0488    -433.5047    17947.551    20.602921 
    7640    436.97933   -8711.3562   -8662.6105     225.0231    17945.886    20.734447 
    7650    444.12741   -8712.6916   -8663.1485    332.80126    17944.567     20.86459 
    7660    436.15824   -8712.3315   -8663.6774    601.13447    17943.955    20.998689 
    7670     417.0493   -8710.6771   -8664.1547    1143.3649     17944.59    21.137997 
    7680    427.66904   -8712.2923   -8664.5852    537.14799    17947.225    21.275108 
    7690    442.42002   -8714.3791   -8665.0265   -656.50485    17950.788    21.397194 
    7700    443.41128   -8714.9663   -8665.5031   -1663.8113    17953.055    21.492942 
    7710    443.79686   -8715.5285   -8666.0223     -2258.24    17952.112    21.560285 
    7720    430.53353   -8714.5822   -8666.5555   -2206.4331    17946.897    21.604232 
    7730    429.82708   -8715.0299    -8667.082    -1740.241    17937.529    21.629161 
    7740    433.60087   -8715.9673   -8667.5985   -611.87928    17925.059    21.639544 
    7750    443.96186    -8717.638   -8668.1134    599.77339    17911.581    21.644177 
    7760    457.97988    -8719.749   -8668.6607     1659.876    17899.436    21.655706 
    7770    458.73773   -8720.4408   -8669.2679    2196.4279    17890.567    21.684193 
    7780    440.33314   -8719.0204   -8669.9006    2517.3571    17886.044    21.735326 
    7790    441.27778   -8719.7554   -8670.5302    2291.4159    17886.393    21.815097 
    7800    442.57143   -8720.5322   -8671.1627    1931.2373    17891.167    21.928749 
    7810    433.32263   -8720.1027   -8671.7649    1532.6126    17899.613    22.073503 
    7820    444.22992   -8721.8892   -8672.3347    787.92249    17910.894    22.233147 
    7830    450.35385   -8723.1385   -8672.9009    -524.6017     17923.45    22.386451 
    7840    445.83989   -8723.2086   -8673.4745   -1826.5947    17934.832    22.520029 
    7850    450.58565   -8724.3351   -8674.0716    -3170.896    17942.483    22.631125 
    7860    447.49379   -8724.6221   -8674.7035   -3775.2818    17944.022    22.718022 
    7870    435.07942    -8723.869   -8675.3352   -3432.5289    17938.348    22.778808 
    7880    435.43713   -8724.5201   -8675.9464   -2185.9887    17926.209    22.821045 
    7890    434.42526   -8724.9948    -8676.534   -192.45747    17910.145    22.862514 
    7900    430.28368   -8725.0965   -8677.0977     1353.139    17893.854     22.92299 
    7910    440.31387   -8726.7809   -8677.6632    1640.2904     17880.22    23.016621 
    7920    448.25055   -8728.2643   -8678.2613    1251.0834    17869.847    23.141911 
    7930     445.3609     -8728.56   -8678.8793    1211.4314    17862.133    23.289099 
    7940    429.62776   -8727.4161   -8679.4904     1596.887    17856.976    23.456111 
    7950    438.18222   -8728.9689   -8680.0891    1443.2335    17854.893    23.647381 
    7960    443.71155   -8730.1805   -8680.6838    1095.3881    17855.621    23.864548 
    7970    443.25241   -8730.7108   -8681.2653    676.68861    17858.435    24.100537 
    7980    454.19254    -8732.517   -8681.8512   -47.262528     17862.46    24.342369 
    7990    441.92063   -8731.7435   -8682.4466   -113.76538    17866.427    24.576896 
    8000    414.17395   -8729.1914   -8682.9897    166.72443    17870.161    24.792984 
    8010    413.45313   -8729.5853    -8683.464   -308.96303    17874.019    24.984783 
    8020    425.66084   -8731.3903   -8683.9072   -1074.7604    17877.133    25.146577 
    8030    427.89541   -8732.0669   -8684.3345   -1164.7502     17878.24    25.273548 
    8040    435.50479   -8733.3627   -8684.7815   -662.26937    17877.182    25.362212 
    8050    427.45087   -8732.9292   -8685.2464    552.38878    17875.021    25.414387 
    8060    436.10059   -8734.3864   -8685.7387    1423.2806    17873.879    25.445627 
    8070     433.8884   -8734.6562   -8686.2553     2306.658    17875.551    25.481554 
    8080    431.40993   -8734.9072   -8686.7828    2282.4259    17881.485    25.542151 
    8090     429.1009   -8735.1748   -8687.3079    1858.6374    17891.617    25.627962 
    8100    424.66867   -8735.1933   -8687.8208    1918.1885    17905.221     25.73119 
    8110    426.38784   -8735.8859   -8688.3217    2079.5931    17922.277    25.850009 
    8120    437.08869    -8737.589   -8688.8311    1824.7049    17942.944    25.986291 
    8130     440.7511   -8738.5254    -8689.359    1194.2285    17966.674    26.138805 
    8140    437.77158   -8738.7346   -8689.9005    261.33182    17992.189    26.305767 
    8150    433.98855   -8738.8472   -8690.4351   -1271.5521    18017.564    26.484116 
    8160    435.76056   -8739.5628   -8690.9531   -2840.7057    18039.926    26.665244 
    8170    447.51626   -8741.4197   -8691.4986   -4017.9707    18056.289    26.840407 
    8180    434.03156   -8740.4958   -8692.0789   -3775.3173    18064.664    27.005275 
    8190     421.7589    -8739.703   -8692.6552   -2788.7497    18065.546    27.163253 
    8200    409.85262   -8738.9032   -8693.1835   -1860.7258    18060.912    27.319213 
    8210    419.71161   -8740.4897   -8693.6703   -1344.2115    18052.651    27.476599 
    8220    432.89142    -8742.439   -8694.1493    -571.0629    18042.004    27.634931 
    8230    430.51813   -8742.6513   -8694.6264    367.56517    18030.517    27.793003 
    8240    419.43183   -8741.8565   -8695.0682    1218.9692    18020.016    27.951699 
    8250    427.10782   -8743.1241   -8695.4795    1948.1331    18012.139    28.112227 
    8260    431.91463   -8744.0843   -8695.9036    2797.6148    18008.306    28.280396 
    8270    413.53682   -8742.4639   -8696.3332    3694.9698    18010.064     28.46339 
    8280    414.42286    -8742.985   -8696.7555    3570.8575    18018.836    28.660866 
    8290    423.82412   -8744.4476   -8697.1694    2156.8672    18034.156    28.866853 
    8300    421.65804     -8744.61   -8697.5734     611.5811     18053.31    29.064448 
    8310    420.46135   -8744.8604   -8697.9573   -645.12971    18073.209    29.230767 
    8320    427.60756   -8746.0447   -8698.3444   -872.82488    18091.527    29.354421 
    8330    417.18654   -8745.2704   -8698.7327   -351.05139    18107.825    29.450201 
    8340    412.56609   -8745.1299   -8699.1076   -433.38673    18122.884    29.538564 
    8350    410.11111    -8745.204   -8699.4555   -276.22869    18136.767    29.626309 
    8360    415.22987   -8746.1095     -8699.79    482.55237    18149.903    29.715079 
    8370    421.67514   -8747.1703   -8700.1318    991.01128    18163.655    29.809785 
    8380    417.17004   -8747.0183   -8700.4824    880.00218    18178.959    29.921449 
    8390    411.44939   -8746.7244   -8700.8266   -224.29749    18195.483    30.057525 
    8400    407.69489   -8746.6199   -8701.1409   -1858.0107    18211.101    30.207723 
    8410    413.37217   -8747.5406   -8701.4283   -3341.9041    18222.674    30.353628 
    8420    424.55896   -8749.0844   -8701.7242    -4148.752    18227.408    30.484372 
    8430    414.99067   -8748.3394   -8702.0466    -3988.374    18223.901    30.599673 
    8440    408.05322   -8747.8881   -8702.3692   -3484.3762     18212.52    30.703626 
    8450    429.27141   -8750.5818   -8702.6959   -3039.4153    18194.411    30.793466 
    8460    440.61911   -8752.2144   -8703.0626   -2151.7006     18170.74    30.862834 
    8470    427.52364   -8751.1424   -8703.4515   -765.29188    18143.429    30.906838 
[...]
   22890    409.77909   -8839.2025   -8793.4911   -648.48249    18209.673    52.385762 
   22900    391.65351   -8837.3418   -8793.6523   -966.71576    18205.371    52.353067 
   22910    396.23133    -8837.965   -8793.7648   -1679.3619    18199.016       52.315 
   22920    407.04333   -8839.2535   -8793.8472    -2147.571    18189.318    52.261637 
   22930    395.44814   -8838.0206   -8793.9078   -1348.4575    18175.549    52.198107 
   22940    393.84722   -8837.8585   -8793.9242     43.46463    18159.168     52.13885 
   22950    405.17449   -8839.0878     -8793.89    1302.7787    18142.872    52.093094 
   22960    404.23396   -8838.9181   -8793.8252    2123.9452    18129.147    52.058598 
   22970    402.30779   -8838.6234   -8793.7454    2345.6698    18119.575    52.019653 
   22980    419.69646   -8840.4829   -8793.6651     2276.171     18114.66    51.962636 
   22990    420.22076   -8840.4802    -8793.604    2523.8759    18114.346    51.885815 
   23000    412.86431   -8839.6268   -8793.5711    2890.4428    18119.124    51.791318 
   23010    421.61419   -8840.5873   -8793.5556    2280.5913    18129.489    51.691635 
   23020    411.88711   -8839.4865   -8793.5399    1326.7529    18144.425    51.605533 
   23030    413.59594   -8839.6539   -8793.5166   -415.49773    18161.917    51.540587 
   23040    404.61488    -8838.609   -8793.4736   -1617.9391    18178.706    51.481308 
   23050    387.08719   -8836.5849   -8793.4048   -1989.9084    18192.402    51.408954 
   23060    407.65248   -8838.7619   -8793.2877   -2659.8525    18202.038    51.319621 
   23070    411.47159   -8839.0209   -8793.1206   -2640.8921    18206.481    51.216745 
   23080    403.19587   -8837.9057   -8792.9286   -2148.2304    18205.683    51.115047 
   23090    412.77482   -8838.7495   -8792.7039    -1698.354    18200.514    51.039294 
   23100    413.76985   -8838.6162   -8792.4596   -334.68653     18192.08    51.007068 
   23110    398.72009   -8836.6819    -8792.204    1233.3483    18183.019     51.02493 
   23120    411.11608   -8837.7902   -8791.9296    1263.8454    18176.136    51.095588 
   23130    418.49274    -8838.309   -8791.6255    863.53559    18171.775    51.210553 
   23140    421.62224   -8838.3441   -8791.3115    483.70005    18169.207    51.356863 
   23150    428.34633    -8838.778   -8790.9953    179.89204    18167.621    51.517215 
   23160    411.27001   -8836.5583   -8790.6805    581.54795    18166.534    51.671901 
   23170    423.51718   -8837.6182   -8790.3743     1076.465    18166.628    51.809488 
   23180    442.50588   -8839.4507   -8790.0885    1504.2081    18168.895    51.923007 
   23190    436.08139   -8838.5235    -8789.878    2116.4854    18174.238    52.006799 
   23200    438.91203   -8838.7205   -8789.7592    2268.4399    18183.771     52.07069 
   23210     437.8168   -8838.5555   -8789.7163    1471.0018    18197.715    52.128733 
   23220    426.21902   -8837.2687   -8789.7233    129.71196    18214.545    52.177618 
   23230    425.96315   -8837.2647   -8789.7478   -1808.5917    18231.518     52.21441 
   23240    413.54727   -8835.9096   -8789.7778   -3025.6574    18244.952    52.242085 
   23250    410.45212   -8835.6105   -8789.8239   -3195.9187    18252.422     52.26001 
   23260    420.39325   -8836.7921   -8789.8966   -2807.2073    18253.487      52.2648 
   23270    417.33403   -8836.5514   -8789.9972   -1906.0745    18248.927     52.25928 
   23280    419.50329   -8836.9032   -8790.1069   -603.88161    18240.596    52.257463 
   23290    423.05337   -8837.4026   -8790.2104    499.86826    18231.025     52.27025 
   23300    417.37706   -8836.8879   -8790.3289    1459.0736    18222.436    52.302786 
   23310    402.73369   -8835.3832   -8790.4577    2399.7064    18216.817     52.36373 
   23320        418.7   -8837.3085   -8790.6019    2532.5285    18215.885    52.453959 
   23330    426.18987   -8838.3354   -8790.7933    2454.0347    18220.058    52.564772 
   23340    407.70806   -8836.5125   -8791.0321    2079.0019    18229.188    52.694403 
   23350    423.75686    -8838.579   -8791.3083    670.49651     18242.33    52.839325 
   23360    427.89989   -8839.3805   -8791.6476   -506.21048    18256.884    52.981778 
   23370    403.41667   -8837.0483   -8792.0466   -1194.3065    18270.554    53.112129 
   23380    413.50402   -8838.6143   -8792.4874   -2431.8073    18281.699    53.227413 
   23390    420.64716   -8839.9203   -8792.9965   -2944.4896    18288.038    53.316596 
   23400    400.70069   -8838.2288   -8793.5301    -2068.172    18288.646    53.373348 
   23410    408.80561   -8839.6331   -8794.0303   -1055.6291    18285.034    53.401616 
   23420    410.18977   -8840.2349   -8794.4776    274.95833    18279.354    53.412478 
   23430    396.65781   -8839.0672   -8794.8194    1109.0633    18274.142    53.422811 
   23440    415.97653   -8841.4794   -8795.0766    895.84956    18271.001    53.438566 
   23450    404.34318   -8840.3716   -8795.2665    710.34657    18269.724    53.459059 
   23460    387.20301   -8838.5809   -8795.3879    350.72892    18269.852    53.489921 
   23470    394.07263   -8839.4043   -8795.4449   -184.20418    18270.675    53.529795 
   23480    397.97429   -8839.8456    -8795.451   -285.29507    18271.196      53.5622 
   23490    399.88706   -8840.0356   -8795.4276     619.7006    18271.345    53.574232 
   23500    396.02266   -8839.5582   -8795.3813    1967.9782    18272.837    53.580444 
   23510     398.7697   -8839.8036   -8795.3203      2940.21    18278.285    53.614254 
   23520    400.78199    -8839.959   -8795.2511    2876.0233    18289.573    53.705943 
   23530    405.66223   -8840.4247   -8795.1725    1961.4848    18306.662    53.867793 
   23540     413.9653   -8841.2466   -8795.0682    542.77179    18327.768    54.085513 
   23550    412.86222   -8840.9916   -8794.9362   -890.87505    18350.066    54.318581 
   23560     400.8983   -8839.5069   -8794.7861   -1998.5123    18370.659    54.520774 
   23570    389.25719   -8838.0371   -8794.6149   -2779.9577    18387.264    54.659012 
   23580    395.06458   -8838.4846   -8794.4145   -3690.7701    18398.162    54.719598 
   23590     406.0605   -8839.4943   -8794.1976   -4154.8813    18401.565    54.700219 
   23600    399.77093   -8838.5783   -8793.9833   -3649.4543    18396.582    54.608533 
   23610     400.9871   -8838.4885   -8793.7578   -3149.9787    18384.033    54.467812 
   23620    418.15547   -8840.1614   -8793.5155   -2421.5752    18365.014     54.30174 
   23630    412.43599   -8839.2751   -8793.2673   -552.74222    18341.189    54.129788 
   23640    407.86332   -8838.5044   -8793.0066    1949.2412    18316.271    53.976589 
   23650    408.88249   -8838.3306   -8792.7191     4265.392    18295.264    53.870141 
   23660    419.39053   -8839.2296   -8792.4459    5731.8748     18282.78    53.838316 
   23670    423.03668   -8839.4255   -8792.2351    6101.3716    18281.775     53.89587 
   23680    408.67266   -8837.6912   -8792.1032    5214.8267     18292.99    54.036811 
   23690    399.76817   -8836.5855   -8791.9908    3134.3588    18314.706    54.242505 
   23700    405.38746   -8837.0514   -8791.8298     434.9232    18342.807    54.475817 
   23710    404.30761   -8836.7087   -8791.6076   -1670.2515    18372.007    54.692795 
   23720    414.02532   -8837.5404   -8791.3553   -3093.6951    18397.972    54.865945 
   23730    422.57771   -8838.2458   -8791.1066   -4280.0291    18417.659    54.979996 
   23740    434.51261   -8839.3825    -8790.912   -5929.0122    18428.434    55.022775 
   23750    427.03329   -8838.4557   -8790.8195   -6735.8134    18427.113    54.970019 
   23760    408.23527   -8836.3575   -8790.8182   -5794.8515    18412.192    54.802204 
   23770    423.65368   -8838.1071   -8790.8478   -4017.7151    18385.429    54.531452 
   23780     428.2224    -8838.631   -8790.8622    -1001.763    18350.643    54.191209 
   23790    419.90518   -8837.6666   -8790.8256     2778.113    18314.011    53.828241 
   23800    425.14838   -8838.1722   -8790.7463    5769.6189    18283.007    53.500086 
   23810    432.17558   -8838.9076   -8790.6978    7635.6492    18263.661    53.251693 
   23820    422.62008   -8837.8929    -8790.749    8471.6237    18259.704    53.103148 
   23830    405.40458   -8836.1229   -8790.8994    7885.0347    18272.731    53.059024 
   23840    412.98288   -8837.1649    -8791.096     5135.055    18301.375    53.110994 
   23850    418.33124   -8837.9234   -8791.2579     1513.679    18340.294     53.23353 
   23860    418.13328   -8837.9976   -8791.3542   -2033.5121    18382.233    53.394356 
   23870    408.16496   -8836.9218   -8791.3904    -5151.188    18419.917    53.556574 
   23880    408.09148   -8836.9291   -8791.4058   -7403.0079     18446.96    53.682552 
   23890    425.21363   -8838.9216   -8791.4884   -8210.6823    18458.784    53.746466 
   23900    416.48717   -8838.1441   -8791.6843   -6976.7872    18453.929     53.72988 
   23910    428.05772   -8839.7325    -8791.982   -4781.7578    18434.843    53.636657 
   23920     419.7203   -8839.1535   -8792.3331    -1503.117    18406.311    53.510225 
   23930    399.88715   -8837.2726   -8792.6646    1720.6207    18374.997    53.407647 
   23940    414.96826   -8839.2753   -8792.9849     3565.218    18347.301    53.366555 
   23950    419.30681   -8840.1164   -8793.3421    4300.1693    18327.006    53.392665 
   23960     411.3355   -8839.6186   -8793.7335    4093.2029    18315.542    53.468603 
   23970    412.74772   -8840.1932   -8794.1505    2884.0137    18312.325    53.561916 
   23980    393.63038   -8838.4569   -8794.5468    1698.8963    18314.997    53.631488 
   23990    390.61734   -8838.4623   -8794.8883    764.37283    18321.113    53.655738 
   24000    390.76215   -8838.7452   -8795.1551    152.13482    18328.772    53.637441 
   24010     390.9754   -8838.9628   -8795.3489   -161.68479     18336.69     53.58307 
   24020     400.4823   -8840.1656   -8795.4912   -405.52959    18344.201    53.486874 
   24030    413.24619     -8841.71   -8795.6118   -999.67349    18350.717    53.343324 
   24040    407.35849    -8841.169   -8795.7275   -1518.8436    18355.121    53.150787 
   24050    383.83475   -8838.6241   -8795.8068   -1819.7223    18356.422    52.911551 
   24060    394.04894   -8839.7831   -8795.8264   -2284.0693    18353.964    52.640441 
   24070    407.96448   -8841.3098   -8795.8008   -2130.3286     18347.04    52.361044 
   24080    404.54608   -8840.8828   -8795.7551   -1633.6615    18335.983    52.091707 
   24090    392.22828   -8839.4381   -8795.6845   -993.09642    18321.868    51.838011 
   24100    389.77364   -8839.0524   -8795.5726   -177.21856    18306.057    51.603972 
   24110    399.74798   -8840.0132   -8795.4207    718.20699    18290.219    51.408724 
   24120     401.6474   -8840.0562   -8795.2518    2118.6265    18276.268    51.276543 
   24130    397.17648   -8839.3912   -8795.0856    3149.9962    18266.822    51.224862 
   24140    403.96618   -8839.9996   -8794.9366    2756.7962    18263.647    51.259109 
   24150    400.74923   -8839.5091    -8794.805    1938.6341    18266.035    51.373935 
   24160    404.96448   -8839.8613   -8794.6869     957.2121    18272.231    51.557662 
   24170    393.44933   -8838.4395   -8794.5497   -52.153759    18280.217    51.791698 
   24180     391.6737   -8838.0595   -8794.3677   -1054.7024    18287.925    52.047369 
   24190    405.98463   -8839.4218   -8794.1336   -1883.6657    18293.355    52.288522 
   24200    403.85377    -8838.932   -8793.8815   -1933.7312    18295.036    52.474915 
   24210    412.40555   -8839.6484    -8793.644   -1664.5594     18292.83    52.576933 
   24220    416.39759   -8839.8769   -8793.4271   -980.06561    18287.416    52.594927 
   24230    421.49392   -8840.2656   -8793.2473   -106.47584    18280.186    52.542395 
   24240    423.81958   -8840.3879   -8793.1102    901.56486    18272.935    52.441491 
   24250    415.19952   -8839.3337   -8793.0176    1199.5104     18267.52    52.319235 
   24260    401.11587   -8837.6899   -8792.9449    748.40307    18264.556    52.196165 
   24270    402.51209   -8837.7602   -8792.8594    -234.9746    18263.079    52.076541 
   24280    415.51091   -8839.1002   -8792.7493   -850.64062    18261.219    51.949036 
   24290    412.09861   -8838.6003     -8792.63   -552.30724    18257.882    51.811068 
   24300    412.24603   -8838.5023   -8792.5156   -399.07098    18253.475     51.67303 
   24310    416.79749    -8838.904   -8792.4096   -361.80115    18248.335    51.543473 
   24320    421.56857   -8839.3437   -8792.3171    134.31125    18242.665    51.427342 
   24330    423.59731   -8839.4982   -8792.2453    714.43143    18237.381    51.330585 
   24340    402.16996    -8837.052   -8792.1893    1630.8021    18233.721    51.258829 
   24350    396.12664   -8836.3137   -8792.1252    2032.4345    18233.308    51.215264 
   24360    413.78528   -8838.1971   -8792.0387      1506.14    18236.835     51.20104 
   24370    421.38364   -8838.9528   -8791.9468    216.56454    18243.158    51.212489 
   24380    418.33954   -8838.5315   -8791.8651   -1198.1762    18249.744    51.239988 
   24390    421.32294   -8838.7963   -8791.7971   -2079.7463    18253.852    51.267978 
   24400     416.8672   -8838.2486   -8791.7464   -2042.7045     18253.85    51.279339 
   24410    413.31705   -8837.8164   -8791.7103   -1039.1037    18249.936    51.264964 
   24420    414.29645   -8837.8895   -8791.6741     132.8038     18244.05    51.232328 
   24430    408.22327    -8837.169   -8791.6311    755.19305    18238.433    51.186565 
   24440    402.27971    -8836.446   -8791.5711    1252.3459    18234.447    51.124648 
   24450    407.03676   -8836.8898   -8791.4843    1603.9324    18233.027     51.05957 
   24460    417.30308   -8837.9273   -8791.3765    2032.6752    18234.874    51.014948 
   24470    418.56377   -8837.9501   -8791.2587    2145.3921     18240.74    51.005865 
   24480    428.63654   -8838.9571    -8791.142    1333.6638    18250.665    51.029474 
   24490    426.58788   -8838.6089   -8791.0224     374.3175     18263.09    51.071504 
   24500    423.32924   -8838.1328   -8790.9098   -489.60133    18276.087    51.114341 
   24510    422.38985    -8837.913   -8790.7948   -1348.8224     18287.88     51.14305 
   24520    418.27604   -8837.3339   -8790.6746   -1411.7987    18296.916    51.158402 
   24530    432.36053   -8838.7811   -8790.5506   -935.66497    18303.043    51.170681 
   24540    422.35927   -8837.5479   -8790.4331   -159.29351    18307.233    51.191393 
   24550    407.60011   -8835.7912   -8790.3228     -140.889    18310.887    51.235209 
   24560    424.77803   -8837.5877    -8790.203   -921.75785    18314.036    51.309076 
   24570    422.67123   -8837.2353   -8790.0857   -676.75521    18315.471    51.405728 
   24580    418.18647    -8836.637   -8789.9877    150.22362    18315.598    51.522147 
   24590    425.13727   -8837.3184   -8789.8937    232.06731    18315.895     51.65426 
   24600    433.18784   -8838.1364   -8789.8136   -371.29945    18316.537    51.783129 
   24610    428.63394   -8837.5834   -8789.7686   -558.70468     18316.51    51.895632 
   24620    423.23132   -8836.9681    -8789.756   -526.90315    18315.392    51.995783 
   24630     423.7387   -8837.0331   -8789.7644   -425.44791    18313.249     52.08913 
   24640    415.92305    -8836.187   -8789.7901   -265.58903    18310.287     52.17013 
   24650    417.84215   -8836.4373   -8789.8264    87.374713    18306.869    52.224184 
   24660    426.29976   -8837.4335   -8789.8791    778.39646    18303.721    52.243452 
   24670    411.13402   -8835.8196    -8789.957    2090.6993    18302.361    52.232085 
   24680    414.29971   -8836.2771   -8790.0613     2672.684    18305.114    52.208577 
   24690    425.20686   -8837.6385    -8790.206    2881.6785    18313.202    52.204549 
   24700    411.95346   -8836.3504   -8790.3964    2822.0697    18326.983    52.247301 
   24710    408.71379   -8836.1996    -8790.607    1850.2201    18346.141     52.33787 
   24720    408.64834   -8836.3876   -8790.8023    260.76733    18368.716    52.456349 
   24730    408.75052   -8836.5636   -8790.9669   -1646.6897     18391.46    52.569696 
   24740    414.01731   -8837.2894   -8791.1052   -3414.6213    18410.541    52.633809 
   24750    419.83284   -8838.0693   -8791.2363   -4641.0158    18422.457      52.6181 
   24760    424.53083   -8838.7594   -8791.4023   -5034.1636    18424.843    52.516282 
   24770    414.48583   -8837.8599   -8791.6234   -4448.8122    18417.064    52.343324 
   24780    418.32117   -8838.5485   -8791.8841   -3424.2818    18400.403    52.132721 
   24790    432.79609    -8840.464    -8792.185   -2114.8062    18377.098    51.919571 
   24800    426.52515   -8840.0976   -8792.5181   -209.72962    18350.012    51.723296 
   24810    416.20157   -8839.2707   -8792.8428    1462.6852     18322.93    51.552192 
   24820    414.28693   -8839.3583    -8793.144    2915.6026    18299.282    51.409602 
   24830    409.62624   -8839.1132   -8793.4188    4128.8066     18281.91    51.302271 
   24840    413.36166   -8839.7947   -8793.6836    4350.8727    18272.994    51.233911 
   24850    405.48418   -8839.1763   -8793.9439     3879.335    18272.901    51.200429 
   24860    398.74505   -8838.6538   -8794.1732    2753.4666    18280.533    51.199454 
   24870    416.95754   -8840.8788   -8794.3665    584.46896    18293.408    51.224992 
   24880    417.88027   -8841.1491   -8794.5339   -1101.9617    18307.347    51.260029 
   24890    403.36741   -8839.6797   -8794.6835   -1457.3174    18319.097    51.290099 
   24900    405.00253   -8839.9847   -8794.8061   -1618.9389    18327.759    51.311468 
   24910    405.27717   -8840.1146   -8794.9053   -1476.4351    18333.073    51.319542 
   24920    392.74605   -8838.7881   -8794.9767   -1185.8264    18335.344    51.304496 
   24930    401.44086   -8839.7949   -8795.0135   -1434.4179    18335.075      51.2574 
   24940    414.77338   -8841.2974   -8795.0288   -1768.2253    18331.874    51.177946 
   24950     411.8895   -8840.9909    -8795.044   -1654.5245    18325.223    51.081494 
   24960    400.74561   -8839.7632   -8795.0595   -1477.4193    18315.331    50.987864 
   24970    381.95544   -8837.6532   -8795.0455   -812.20759    18302.704    50.909538 
   24980    391.16409   -8838.6138   -8794.9789   -175.21105    18288.563    50.858307 
   24990    409.56026     -8840.55    -8794.863    477.48884    18274.217    50.835405 
   25000    406.15217   -8840.0262   -8794.7193    1582.7407    18261.153    50.832691 
Loop time of 14145.2 on 16 procs for 20000 steps with 864 atoms

Performance: 0.122 ns/day, 196.462 hours/ns, 1.414 timesteps/s
95.5% CPU use with 16 MPI tasks x 1 OpenMP threads

MPI task timing breakdown:
Section |  min time  |  avg time  |  max time  |%varavg| %total
---------------------------------------------------------------
Pair    | 3403.9     | 7814.1     | 14049      |4095.2 | 55.24
Bond    | 0.0014048  | 0.0026377  | 0.0045812  |   1.7 |  0.00
Neigh   | 0.17447    | 0.35481    | 0.66419    |  29.9 |  0.00
Comm    | 72.298     | 4452.1     | 8489.3     |4946.8 | 31.47
Output  | 1.5971     | 1.6307     | 2.1213     |   9.9 |  0.01
Modify  | 17.655     | 1876.9     | 7522.5     |5369.0 | 13.27
Other   |            | 0.1086     |            |       |  0.00

Nlocal:        54.0000 ave          93 max          28 min
Histogram: 3 4 2 1 0 0 2 1 1 2
Nghost:        534.750 ave         688 max         331 min
Histogram: 2 0 3 1 0 3 1 0 0 6
Neighs:         0.00000 ave           0 max           0 min
Histogram: 16 0 0 0 0 0 0 0 0 0
FullNghs:      2842.25 ave        6159 max         836 min
Histogram: 6 3 1 0 0 0 1 2 1 2

Total # of neighbors = 45476
Ave neighs/atom = 52.634259
Ave special neighs/atom = 0.0000000
Neighbor list builds = 2000
Dangerous builds = 2000
unfix   3
                
Total wall time: 4:53:20
