LAMMPS (29 Sep 2021 - Update 3)
OMP_NUM_THREADS environment is not set. Defaulting to 1 thread. (src/comm.cpp:98)
  using 1 OpenMP thread(s) per MPI task
Reading data file ...
  orthogonal box = (0.0000000 0.0000000 0.0000000) to (15.866041 15.852264 77.123517)
  2 by 1 by 8 MPI processor grid
  reading atoms ...
  864 atoms
Finding 1-2 1-3 1-4 neighbors ...
  special bond factors lj:    0        0        0       
  special bond factors coul:  0        0        0       
     0 = max # of 1-2 neighbors
     0 = max # of 1-3 neighbors
     0 = max # of 1-4 neighbors
     1 = max # of special neighbors
  special bonds CPU = 0.001 seconds
  read_data CPU = 0.024 seconds
Neighbor list info ...
  update every 1 steps, delay 10 steps, check yes
  max neighbors/atom: 2000, page size: 100000
  master list distance cutoff = 6.22
  ghost atom cutoff = 6.22
  binsize = 3.11, bins = 6 6 25
  1 neighbor lists, perpetual/occasional/extra = 1 0 0
  (1) pair quip, perpetual
      attributes: full, newton on
      pair build: full/bin
      stencil: full/bin/3d
      bin: standard
Setting up Verlet run ...
  Unit style    : metal
  Current step  : 0
  Time step     : 0.001
Per MPI rank memory allocation (min/avg/max) = 8.889 | 8.906 | 8.916 Mbytes
Step Temp PotEng TotEng Press Volume c_msd[4] 
       0            0   -8878.9247   -8878.9247   -11708.833    19397.542            0 
      10    108.80145    -8891.078    -8878.941   -13519.947    19397.542 0.00037756483 
      20    255.99871   -8907.5101   -8878.9531   -15433.074    19397.542  0.004636157 
      30    288.56988   -8911.1358   -8878.9454   -14361.122    19397.542  0.015943357 
      40    289.10053   -8911.1934   -8878.9438   -12512.136    19397.542  0.032214776 
      50    304.26419   -8912.8839   -8878.9428   -12190.839    19397.542  0.050010352 
      60    330.67215   -8915.8353   -8878.9484    -12512.07    19397.542  0.067008738 
      70    319.75479    -8914.613   -8878.9439   -12021.554    19397.542  0.084636553 
      80     311.7171   -8913.7131   -8878.9406   -11242.174    19397.542   0.10335882 
      90    344.97025   -8917.4272   -8878.9452   -11377.847    19397.542   0.12285636 
     100    369.47631   -8920.1625   -8878.9469   -11460.202    19397.542   0.14373353 
     110    369.44402   -8920.1551   -8878.9431   -10737.559    19397.542   0.16547428 
     120    381.04496   -8921.4513   -8878.9452   -10101.733    19397.542   0.18697263 
     130    387.01967   -8922.1174   -8878.9447    -9853.945    19397.542   0.20927079 
     140    390.46305   -8922.5002   -8878.9434   -10154.629    19397.542   0.23274757 
     150    401.17379   -8923.6966   -8878.9451   -10935.233    19397.542   0.25686229 
     160    405.60936   -8924.1923    -8878.946   -11533.497    19397.542   0.28181117 
     170    403.00983   -8923.9035   -8878.9472   -11313.905    19397.542   0.30705714 
     180    385.93942   -8921.9971   -8878.9449   -10395.352    19397.542   0.33328028 
     190    384.55592   -8921.8429   -8878.9451   -9702.4152    19397.542    0.3615061 
     200    397.89654   -8923.3338   -8878.9478   -9508.3306    19397.542   0.39138176 
     210    403.74057   -8923.9838    -8878.946   -9854.3562    19397.542   0.41959204 
     220    419.25516   -8925.7147   -8878.9462   -11120.155    19397.542   0.44190424 
     230    437.64496   -8927.7678   -8878.9478   -12741.979    19397.542   0.46059951 
     240    436.22365   -8927.6096   -8878.9482   -13773.271    19397.542   0.48016288 
     250     417.4692   -8925.5154   -8878.9461   -14188.084    19397.542   0.50051511 
     260    403.07006   -8923.9093   -8878.9463   -14452.366    19397.542   0.51954432 
     270    390.78955   -8922.5388   -8878.9456   -14869.677    19397.542   0.53842732 
     280    390.91941   -8922.5534   -8878.9458   -15753.944    19397.542   0.55789535 
     290    394.53071   -8922.9579   -8878.9474   -16866.473    19397.542   0.57907365 
     300    385.46639   -8921.9447   -8878.9454   -17556.881    19397.542   0.60332818 
     310    388.07639   -8922.2367   -8878.9462   -18102.563    19397.542   0.62988844 
     320    395.22438   -8923.0346   -8878.9467   -18476.923    19397.542   0.65693198 
     330     392.7193   -8922.7554    -8878.947   -18634.964    19397.542   0.68294096 
     340    387.36548    -8922.158   -8878.9468   -18928.114    19397.542    0.7064488 
     350    383.70376     -8921.75   -8878.9472   -19255.038    19397.542   0.72809194 
     360    380.16279   -8921.3526   -8878.9449   -19764.905    19397.542   0.74756432 
     370    391.53302   -8922.6238   -8878.9477   -20433.416    19397.542   0.76345228 
     380    397.18733   -8923.2529   -8878.9461   -20848.612    19397.542   0.77799013 
     390    399.66038   -8923.5327     -8878.95   -20962.623    19397.542    0.7926845 
     400    376.74168   -8920.9703   -8878.9442   -20594.318    19397.542   0.80792627 
     410    384.01385   -8921.7861   -8878.9488   -20827.442    19397.542   0.82090067 
     420    385.42711   -8921.9432   -8878.9482    -21282.02    19397.542   0.83289421 
     430    375.82197   -8920.8694   -8878.9459   -21749.833    19397.542   0.84474346 
     440    377.40301   -8921.0478   -8878.9479   -22280.425    19397.542   0.85654263 
     450    373.39276   -8920.5987   -8878.9462   -22358.315    19397.542   0.87121917 
     460    380.55104   -8921.3982   -8878.9472   -22127.174    19397.542   0.88923864 
     470    389.08947   -8922.3531   -8878.9496   -21563.629    19397.542   0.90990069 
     480    377.88025   -8921.0989   -8878.9458   -20903.426    19397.542   0.93174236 
     490    381.74982   -8921.5319   -8878.9472   -20620.986    19397.542   0.94962563 
     500    394.14575   -8922.9156   -8878.9481   -20486.731    19397.542   0.96309083 
     510    397.04898   -8923.2389   -8878.9475   -19997.235    19397.542   0.97658553 
     520    399.82595   -8923.5491    -8878.948   -19535.484    19397.542   0.99241283 
     530    404.27704   -8924.0446   -8878.9469    -19115.46    19397.542    1.0084992 
     540     411.3451   -8924.8362     -8878.95   -18661.849    19397.542    1.0226069 
     550    394.09812   -8922.9082    -8878.946   -17821.103    19397.542    1.0374953 
     560    386.81962   -8922.0987   -8878.9484   -17144.624    19397.542    1.0531551 
     570    383.04436   -8921.6747   -8878.9456   -16711.306    19397.542    1.0690946 
     580    397.22268   -8923.2587   -8878.9479   -16702.646    19397.542    1.0866029 
     590    408.28446   -8924.4929   -8878.9481   -16623.668    19397.542    1.1074158 
     600    405.74477   -8924.2095   -8878.9481   -16314.107    19397.542    1.1302748 
     610    396.02325   -8923.1251   -8878.9481    -15628.66    19397.542    1.1519665 
     620     395.3341   -8923.0495   -8878.9494   -15051.831    19397.542    1.1694303 
     630    394.27036   -8922.9318   -8878.9503   -14512.907    19397.542    1.1828305 
     640    383.62649   -8921.7417   -8878.9476   -14067.198    19397.542    1.1945401 
     650    385.14193   -8921.9112    -8878.948   -13839.463    19397.542    1.2068311 
     660     395.4713   -8923.0651   -8878.9497   -13755.797    19397.542    1.2218962 
     670     396.9724   -8923.2312   -8878.9483   -13681.042    19397.542    1.2411479 
     680    400.76426   -8923.6562   -8878.9504   -13529.754    19397.542    1.2649597 
     690    395.59922   -8923.0782   -8878.9485   -13202.541    19397.542    1.2892968 
     700    393.08673   -8922.7984    -8878.949    -12863.36    19397.542    1.3108518 
     710    392.46287   -8922.7295   -8878.9497   -12776.215    19397.542    1.3306314 
     720    392.69983   -8922.7538   -8878.9476   -12960.731    19397.542    1.3493343 
     730    407.70626    -8924.431   -8878.9507   -13617.908    19397.542    1.3652761 
     740    418.60831   -8925.6458   -8878.9494   -14182.857    19397.542    1.3758719 
     750    427.35697   -8926.6222   -8878.9499   -14411.802    19397.542    1.3817369 
     760    426.23067   -8926.4956    -8878.949   -14240.457    19397.542    1.3874968 
     770    425.68986   -8926.4355   -8878.9492   -14121.142    19397.542    1.3956033 
     780    424.34662   -8926.2861   -8878.9496   -14199.692    19397.542    1.4059418 
     790    416.51178   -8925.4118   -8878.9493   -14348.579    19397.542    1.4172819 
     800    406.85203   -8924.3329   -8878.9479   -14603.708    19397.542    1.4293586 
     810     409.3926   -8924.6176   -8878.9492   -14954.594    19397.542    1.4437899 
     820    411.52943   -8924.8561   -8878.9494   -15227.004    19397.542     1.461671 
     830    414.76526   -8925.2161   -8878.9484   -15348.177    19397.542    1.4822988 
     840    425.47297   -8926.4126   -8878.9505   -15497.059    19397.542    1.5061095 
     850    424.10961   -8926.2589   -8878.9489    -15461.05    19397.542    1.5339208 
     860    425.84903   -8926.4531    -8878.949   -15668.017    19397.542    1.5638872 
     870    428.28778   -8926.7265   -8878.9503   -15975.954    19397.542    1.5941429 
     880    422.32484   -8926.0597   -8878.9487   -16050.391    19397.542    1.6254163 
     890    420.59441   -8925.8681   -8878.9502   -16210.368    19397.542    1.6579317 
     900    412.78354   -8924.9958   -8878.9492   -16186.118    19397.542    1.6917804 
     910    408.88335   -8924.5603   -8878.9488   -16398.021    19397.542    1.7253326 
     920    415.25495   -8925.2723     -8878.95   -16866.947    19397.542    1.7566903 
     930    417.79568   -8925.5555   -8878.9498    -17314.63    19397.542    1.7866576 
     940    414.15774   -8925.1502   -8878.9503   -17816.895    19397.542    1.8175362 
     950    410.14766   -8924.7024   -8878.9498   -18397.528    19397.542     1.850555 
     960    412.13206   -8924.9218   -8878.9478   -18864.984    19397.542    1.8837942 
     970    427.90234   -8926.6835   -8878.9503   -19165.223    19397.542    1.9147148 
     980    431.11936    -8927.043    -8878.951    -19021.79    19397.542    1.9457246 
     990    415.64991   -8925.3145   -8878.9482   -18606.767    19397.542    1.9812421 
    1000    413.92707   -8925.1233   -8878.9491   -18513.829    19397.542    2.0201072 
    1010    417.45395   -8925.5177     -8878.95   -18558.895    19397.542    2.0574524 
    1020    414.66605   -8925.2045   -8878.9479    -18540.13    19397.542    2.0909232 
    1030    425.32279   -8926.3944    -8878.949   -18804.281    19397.542    2.1200334 
    1040    437.39791    -8927.743   -8878.9506    -19174.44    19397.542    2.1461906 
    1050    432.04437    -8927.144   -8878.9488   -19430.964    19397.542    2.1724444 
    1060    423.10855   -8926.1471   -8878.9487    -19670.97    19397.542     2.200914 
    1070    416.30819    -8925.389   -8878.9492   -19752.208    19397.542     2.232564 
    1080    410.19009   -8924.7058   -8878.9485   -19471.789    19397.542    2.2656179 
    1090    411.43188   -8924.8454   -8878.9496   -18927.842    19397.542    2.2963807 
    1100    413.58688   -8925.0849   -8878.9486   -18540.027    19397.542    2.3238349 
    1110    425.71996   -8926.4384   -8878.9486   -18620.545    19397.542    2.3474636 
    1120    443.01807   -8928.3709   -8878.9516   -18883.908    19397.542    2.3679172 
    1130    437.42575   -8927.7454   -8878.9499   -18767.479    19397.542    2.3882255 
    1140    422.48256   -8926.0773   -8878.9487   -18476.767    19397.542    2.4089666 
    1150    414.07643   -8925.1393   -8878.9485   -18282.798    19397.542    2.4284943 
    1160    416.01416   -8925.3558   -8878.9488   -18291.885    19397.542     2.446853 
    1170    419.66714   -8925.7642   -8878.9497   -18446.717    19397.542    2.4644412 
    1180    424.21945   -8926.2706   -8878.9483    -18449.36    19397.542    2.4806419 
    1190    440.19598   -8928.0557   -8878.9512   -18343.062    19397.542    2.4945267 
    1200    440.38662   -8928.0752   -8878.9494   -17908.359    19397.542     2.507228 
    1210    440.40752   -8928.0774   -8878.9493   -17509.071    19397.542    2.5196997 
    1220    445.29341   -8928.6232   -8878.9501   -17433.008    19397.542    2.5321836 
    1230    444.31811   -8928.5138   -8878.9494   -17404.254    19397.542    2.5456285 
    1240    444.21916   -8928.5028   -8878.9495   -17567.287    19397.542    2.5617678 
    1250    447.95301   -8928.9197   -8878.9499   -17998.888    19397.542    2.5810013 
    1260    447.05056     -8928.82   -8878.9509   -18113.089    19397.542    2.6027835 
    1270    433.76409   -8927.3363   -8878.9493   -17647.746    19397.542    2.6267411 
    1280    426.49744   -8926.5249   -8878.9485   -17215.404    19397.542    2.6522665 
    1290    438.76938   -8927.8949   -8878.9495   -17215.004    19397.542     2.679609 
    1300     454.8554   -8929.6913   -8878.9515   -17412.029    19397.542    2.7096074 
    1310    451.74789   -8929.3435   -8878.9504   -17515.094    19397.542    2.7419599 
    1320    440.03726   -8928.0361   -8878.9493    -17582.78    19397.542    2.7732724 
    1330    433.51813    -8927.309   -8878.9494   -17627.787    19397.542    2.7991894 
    1340    430.66307   -8926.9918   -8878.9507   -17406.648    19397.542    2.8192899 
    1350    422.06307   -8926.0311   -8878.9493    -17030.68    19397.542    2.8369839 
    1360    423.68793   -8926.2128   -8878.9498   -16872.793    19397.542    2.8564726 
    1370    432.23825   -8927.1671   -8878.9502   -16941.721    19397.542    2.8798412 
    1380    440.61409   -8928.1014   -8878.9502   -17160.411    19397.542     2.904214 
    1390    442.38617   -8928.3005   -8878.9516   -17288.698    19397.542    2.9262872 
    1400    432.82497   -8927.2303    -8878.948   -17111.965    19397.542    2.9462931 
    1410    443.20721   -8928.3906   -8878.9502   -17379.272    19397.542    2.9656964 
    1420     452.8574   -8929.4692   -8878.9523   -17581.285    19397.542    2.9866189 
    1430    440.33742   -8928.0699   -8878.9496    -17078.18    19397.542    3.0107644 
    1440    434.09539   -8927.3728   -8878.9488   -16559.852    19397.542    3.0372306 
    1450    446.59797     -8928.77   -8878.9513   -16458.202    19397.542    3.0634597 
    1460    455.16552   -8929.7248   -8878.9504   -16509.198    19397.542    3.0883146 
    1470     460.5176    -8930.323   -8878.9516   -16639.411    19397.542    3.1117695 
    1480    455.78137    -8929.792   -8878.9489   -16643.605    19397.542    3.1332037 
    1490    461.66937   -8930.4506   -8878.9507   -16632.215    19397.542     3.152331 
    1500    464.06114   -8930.7172   -8878.9504   -16316.323    19397.542    3.1724877 
    1510    464.69685   -8930.7871   -8878.9495    -16148.36    19397.542    3.1960897 
    1520    471.22077   -8931.5167   -8878.9514   -16208.841    19397.542    3.2225013 
    1530    471.47122   -8931.5429   -8878.9496   -16597.639    19397.542    3.2496574 
    1540    479.04999   -8932.3903   -8878.9516   -17340.131    19397.542    3.2743864 
    1550    475.60674   -8932.0055   -8878.9508   -17872.304    19397.542    3.2971604 
    1560    465.76065   -8930.9064   -8878.9501   -17822.552    19397.542    3.3221892 
    1570    460.06152    -8930.271   -8878.9505    -17442.47    19397.542    3.3512444 
    1580    459.40082   -8930.1971   -8878.9502   -16941.542    19397.542    3.3813068 
    1590    460.93829   -8930.3707   -8878.9523   -16350.345    19397.542    3.4083736 
    1600     448.2201   -8928.9504   -8878.9508   -15603.607    19397.542    3.4316634 
    1610     443.9941   -8928.4772    -8878.949    -15275.86    19397.542    3.4534934 
    1620    463.51034   -8930.6582    -8878.953   -15593.563    19397.542    3.4766509 
    1630    474.66564   -8931.9011   -8878.9514   -16126.405    19397.542    3.5034224 
    1640    481.75389   -8932.6918   -8878.9514   -16542.721    19397.542    3.5333548 
    1650    479.37897   -8932.4264    -8878.951   -16541.998    19397.542    3.5648125 
    1660    474.97776   -8931.9337   -8878.9492   -16284.173    19397.542    3.5952514 
    1670    481.99089    -8932.719   -8878.9522   -15990.017    19397.542    3.6221631 
    1680      474.213   -8931.8498   -8878.9506   -15457.654    19397.542    3.6454728 
    1690    462.13083    -8930.502   -8878.9506   -14731.806    19397.542     3.665115 
    1700    458.63731   -8930.1109   -8878.9492   -14389.905    19397.542    3.6801149 
    1710    473.55465   -8931.7771   -8878.9513   -14547.389    19397.542    3.6915037 
    1720    483.59001    -8932.897   -8878.9518   -15013.331    19397.542    3.7021408 
    1730    481.36556   -8932.6472   -8878.9501   -15645.926    19397.542    3.7142289 
    1740    484.05437   -8932.9483   -8878.9513   -16474.749    19397.542    3.7288904 
    1750    482.16869   -8932.7383   -8878.9516   -16722.219    19397.542     3.747119 
    1760    470.26243   -8931.4082   -8878.9497   -16475.495    19397.542    3.7689551 
    1770    472.75321   -8931.6852   -8878.9489   -16480.419    19397.542    3.7930019 
    1780    495.80424   -8934.2609   -8878.9532   -16801.632    19397.542     3.817904 
    1790    498.29189   -8934.5359   -8878.9506   -17030.699    19397.542    3.8432118 
    1800    497.22115   -8934.4163   -8878.9505   -17233.599    19397.542    3.8677962 
    1810    498.13201   -8934.5195   -8878.9521   -17294.852    19397.542    3.8916583 
    1820    485.17576   -8933.0725   -8878.9504   -16971.976    19397.542    3.9157232 
    1830    479.44537   -8932.4337   -8878.9509   -16627.564    19397.542    3.9391486 
    1840    478.88134   -8932.3712   -8878.9513   -16398.764    19397.542    3.9621449 
    1850     478.6415   -8932.3435   -8878.9503   -16406.049    19397.542    3.9857213 
    1860     486.1211   -8933.1789   -8878.9514   -16705.544    19397.542    4.0086822 
    1870    492.79459   -8933.9238   -8878.9519   -17221.514    19397.542    4.0297149 
    1880    491.36379   -8933.7648   -8878.9525   -18037.772    19397.542    4.0499732 
    1890    475.70955   -8932.0166   -8878.9505   -18910.363    19397.542    4.0709101 
    1900    464.92588   -8930.8141   -8878.9509   -19819.272    19397.542    4.0929306 
    1910    455.59431   -8929.7727   -8878.9505   -20229.987    19397.542    4.1160109 
    1920    452.87672   -8929.4684   -8878.9493   -20242.611    19397.542    4.1384657 
    1930    467.97161   -8931.1539   -8878.9509   -20369.825    19397.542    4.1581839 
    1940    485.34862   -8933.0926   -8878.9512   -20514.477    19397.542    4.1756159 
    1950    495.78252   -8934.2578   -8878.9525   -20428.878    19397.542    4.1936772 
    1960    500.11778   -8934.7389     -8878.95   -20591.437    19397.542    4.2145461 
    1970    511.99695   -8936.0681    -8878.954   -21344.221    19397.542    4.2363696 
    1980    499.23942   -8934.6421   -8878.9512   -21654.428    19397.542    4.2540635 
    1990    487.56603   -8933.3391   -8878.9504    -21588.86    19397.542    4.2657075 
    2000    485.14508   -8933.0707    -8878.952   -21134.343    19397.542    4.2770463 
Loop time of 1453.54 on 16 procs for 2000 steps with 864 atoms

Performance: 0.119 ns/day, 201.881 hours/ns, 1.376 timesteps/s
96.4% CPU use with 16 MPI tasks x 1 OpenMP threads

MPI task timing breakdown:
Section |  min time  |  avg time  |  max time  |%varavg| %total
---------------------------------------------------------------
Pair    | 308.59     | 727.71     | 1442.8     |1196.1 | 50.06
Bond    | 0.00013447 | 0.00044343 | 0.0009706  |   0.0 |  0.00
Neigh   | 0.014443   | 0.030284   | 0.063498   |   7.8 |  0.00
Comm    | 10.023     | 631.43     | 1012.9     |1233.4 | 43.44
Output  | 0.34765    | 29.592     | 62.495     | 432.6 |  2.04
Modify  | 0.0081966  | 0.0098679  | 0.01188    |   0.9 |  0.00
Other   |            | 64.77      |            |       |  4.46

Nlocal:        54.0000 ave          90 max          29 min
Histogram: 3 3 0 2 3 1 0 2 0 2
Nghost:        493.750 ave         643 max         369 min
Histogram: 3 1 0 3 2 2 1 2 0 2
Neighs:         0.00000 ave           0 max           0 min
Histogram: 16 0 0 0 0 0 0 0 0 0
FullNghs:      2706.00 ave        5944 max         890 min
Histogram: 6 0 2 1 3 0 2 0 0 2

Total # of neighbors = 43296
Ave neighs/atom = 50.111111
Ave special neighs/atom = 0.0000000
Neighbor list builds = 200
Dangerous builds = 200
Setting up Verlet run ...
  Unit style    : metal
  Current step  : 2000
  Time step     : 0.001
Per MPI rank memory allocation (min/avg/max) = 8.894 | 8.909 | 8.920 Mbytes
Step Temp PotEng TotEng Press Volume c_msd[4] 
    2000        412.5   -8933.0707   -8887.0557   -21580.569    19397.542    4.2770463 
    2010    414.96808   -8933.7749   -8887.4846   -20308.733    19372.994    4.2954242 
    2020    411.82564    -8934.498   -8888.5583   -16533.407    19302.732    4.3164894 
    2030    442.93747    -8939.277   -8889.8666   -11989.812    19196.083    4.3337243 
    2040    468.04378   -8943.2903   -8891.0794    -6760.393    19065.561    4.3435305 
    2050    479.80837   -8945.4612   -8891.9379   -830.12479    18926.031    4.3448976 
    2060    487.16128    -8946.677   -8892.3334    4707.3213    18793.306      4.33788 
    2070    484.92299   -8946.5233   -8892.4294    9123.5717     18680.69    4.3256838 
    2080    470.83266   -8945.0061    -8892.484    12088.589    18596.725    4.3107989 
    2090    457.85992   -8943.7247   -8892.6498    13328.125    18544.945    4.2909172 
    2100    458.36295    -8944.101   -8892.9699    12892.906     18524.53     4.263358 
    2110    475.69411   -8946.5233   -8893.4589    11232.283    18531.527    4.2296337 
    2120     488.6045   -8948.6192   -8894.1146    8886.5742    18560.182    4.1949369 
    2130    473.66059   -8947.7153   -8894.8778    6473.4072    18604.216    4.1659968 
    2140    466.61302   -8947.7073   -8895.6559    3275.2365    18657.593    4.1477657 
    2150    472.49582   -8949.0849   -8896.3772   -401.23426    18713.375    4.1425334 
    2160    460.19586   -8948.3468   -8897.0113   -3331.8821    18764.287    4.1505703 
    2170    446.12398   -8947.3338    -8897.568   -5349.8805    18804.783    4.1700229 
    2180    437.29759   -8946.8622    -8898.081   -6504.2048    18831.533    4.1984149 
    2190     441.5936   -8947.8629   -8898.6024   -6961.8932    18843.082    4.2345482 
    2200    449.43883   -8949.3156     -8899.18   -6727.5454    18839.442     4.278579 
    2210    443.39447   -8949.2669   -8899.8055   -5512.6353    18822.088    4.3299806 
    2220    440.71208   -8949.5947   -8900.4326   -3751.7256    18794.229    4.3863317 
    2230     439.6084   -8950.0617   -8901.0227   -1794.2538     18760.03    4.4445564 
    2240    436.58092   -8950.2515   -8901.5502    283.22913    18723.869    4.5007714 
    2250     437.2861   -8950.8149    -8902.035    1934.3334    18689.967    4.5511111 
    2260    433.81074   -8950.8982   -8902.5059    3039.1737    18661.548    4.5919145 
    2270     439.7445   -8952.0436   -8902.9895    3511.3684    18640.545    4.6211012 
    2280    445.63838   -8953.2278   -8903.5162    3952.9367    18627.696    4.6373815 
    2290    438.75524   -8953.0334   -8904.0896    4113.4787    18623.489    4.6380605 
    2300    442.11928   -8954.0252   -8904.7061    3400.7763    18627.829    4.6209394 
    2310    439.42689   -8954.3602   -8905.3415    2224.7083    18639.019    4.5892217 
    2320    428.78579   -8953.7685   -8905.9368    1078.1591    18654.497    4.5499299 
    2330    428.76125   -8954.2921   -8906.4631   -124.80951    18671.733    4.5100755 
    2340    428.85364   -8954.7717   -8906.9324   -1121.7575    18688.223    4.4746049 
    2350    418.27813   -8954.0294   -8907.3698   -1552.6576    18701.973    4.4461415 
    2360    404.06919   -8952.8437   -8907.7692   -1814.5035    18712.088    4.4256999 
    2370    409.20689   -8953.7812   -8908.1335    -2398.395     18718.04    4.4136273 
    2380    420.44229   -8955.3939   -8908.4929   -3048.1649     18718.75    4.4101034 
    2390    419.02799   -8955.6077   -8908.8644   -3077.4208    18713.148    4.4150827 
    2400    415.70995   -8955.6195   -8909.2465   -2313.8884    18701.383    4.4286075 
    2410    406.67166   -8954.9706   -8909.6058   -1123.9639    18685.175     4.451771 
    2420    406.09114   -8955.2181   -8909.9181   -152.11675    18667.036    4.4834336 
    2430    410.97178   -8956.0309   -8910.1864    844.54924    18649.125    4.5179045 
    2440    417.05914   -8956.9626    -8910.439    2013.1927    18633.506    4.5486648 
    2450    412.50047   -8956.7046   -8910.6895    3349.8048    18622.558     4.572903 
    2460    404.84752   -8956.0953    -8910.934    4170.5776    18618.795     4.588933 
    2470    407.54922   -8956.6456   -8911.1829    4061.7722    18623.659    4.5962967 
    2480    406.08542   -8956.7349   -8911.4355    3144.8976    18636.742    4.5954332 
    2490    410.34407   -8957.4515    -8911.677    1439.7655    18655.914    4.5888463 
    2500    415.95972   -8958.2968   -8911.8959    -202.2086    18677.661    4.5810147 
    2510    415.98411   -8958.5035   -8912.0999   -1532.7031    18698.518    4.5735578 
    2520    412.05142   -8958.2626   -8912.2977   -2377.8024    18715.734    4.5665548 
    2530    410.15026   -8958.2509    -8912.498   -2732.9424    18727.604     4.560202 
    2540    403.98436   -8957.7613   -8912.6962   -2739.8965    18733.474    4.5545396 
    2550    400.46602   -8957.5558   -8912.8832   -2460.6899    18733.484    4.5489998 
    2560    398.26071   -8957.4694   -8913.0428   -2211.9185    18728.296    4.5439225 
    2570    403.44366    -8958.173   -8913.1683   -1894.6454    18718.585    4.5412576 
    2580    410.56371   -8959.0736   -8913.2746   -1077.5597     18705.22    4.5437087 
    2590    397.50124    -8957.704   -8913.3621    239.54891    18690.005     4.552143 
    2600    394.38978   -8957.4073   -8913.4125    1303.0044    18675.628    4.5637049 
    2610    411.64259   -8959.3543   -8913.4349    1694.7658    18664.212    4.5748405 
    2620    409.19694   -8959.1005   -8913.4539    2012.2716    18656.607    4.5840755 
    2630    400.66519   -8958.1692   -8913.4744     2080.285    18653.353     4.591776 
    2640    411.68864   -8959.4135    -8913.489    1577.8275    18654.437    4.5981642 
    2650    407.79812   -8958.9864   -8913.4959    1302.3012    18658.891    4.6023039 
    2660    385.09018   -8956.4334    -8913.476    1131.9697    18666.024    4.6021495 
    2670    392.91241   -8957.2298   -8913.3998    361.68274    18675.269    4.5953947 
    2680    412.62399   -8959.3045   -8913.2757   -304.75271    18685.102    4.5802979 
    2690    409.76968   -8958.8548   -8913.1444   -188.64851    18694.249    4.5576462 
    2700    403.16984   -8957.9876   -8913.0134    61.425837    18702.847    4.5321899 
    2710    403.93881   -8957.9207   -8912.8607   -155.53285    18711.321    4.5088929 
    2720    406.81352   -8958.0585   -8912.6779   -740.93286    18719.222    4.4902286 
    2730    402.19074   -8957.3361   -8912.4711   -1200.8316    18725.435    4.4778219 
    2740    409.44489   -8957.9218   -8912.2476   -1456.9882    18729.026    4.4716856 
    2750    419.86048   -8958.8519   -8912.0158   -1195.0482     18729.55    4.4700216 
    2760    417.05034   -8958.3207   -8911.7981   -23.800379    18727.726    4.4698829 
    2770    414.27257    -8957.808   -8911.5953    836.09862    18725.819    4.4673902 
    2780    420.91698   -8958.3559    -8911.402    709.33408    18725.521    4.4626501 
    2790    426.25052   -8958.7774   -8911.2286     212.2141    18726.669    4.4581172 
    2800    424.08128    -8958.395   -8911.0881   -277.58593    18728.256     4.453363 
    2810    408.83233   -8956.5745   -8910.9686   -593.01473    18729.251    4.4480632 
    2820    411.48051   -8956.7524   -8910.8511   -376.96233    18729.075    4.4424978 
    2830    419.48337   -8957.5164   -8910.7224    327.92212    18728.199    4.4375191 
    2840    426.54483   -8958.1887    -8910.607    930.47305    18728.045    4.4323755 
    2850     423.8268   -8957.8001   -8910.5215     896.2148    18729.756    4.4256972 
    2860     415.8131     -8956.85   -8910.4654    672.12826    18733.319    4.4151359 
    2870    408.55256   -8955.9907   -8910.4161    361.70392    18738.251    4.3987632 
    2880    410.73281   -8956.1748    -8910.357   -400.38583    18743.785    4.3770089 
    2890    408.42192   -8955.8388   -8910.2788   -1297.4858    18748.371    4.3543605 
    2900     414.5677   -8956.4353   -8910.1897   -2190.5385    18750.132    4.3361721 
    2910    424.48161    -8957.457   -8910.1055   -2905.0933    18747.231    4.3254322 
    2920    429.26627   -8957.9455   -8910.0602    -3005.828    18738.287    4.3226635 
    2930    419.04698   -8956.8026   -8910.0573   -2114.9287    18723.318    4.3296049 
    2940    420.51661   -8956.9882   -8910.0789   -734.62719    18704.217     4.347584 
    2950    430.06847   -8958.0891   -8910.1143    520.43466    18683.833    4.3756852 
    2960    419.56756    -8956.965   -8910.1616    1836.9186    18664.928    4.4091963 
    2970    411.37116   -8956.1051    -8910.216    2773.7143    18650.141    4.4423814 
    2980    409.91325   -8955.9999   -8910.2735    3031.4157    18641.296    4.4734292 
    2990    412.61677   -8956.3735   -8910.3455     2730.502    18638.866    4.5035744 
    3000     420.1322   -8957.3044   -8910.4381    1689.2974    18642.062     4.534044 
    3010    420.92099   -8957.5077   -8910.5534    575.30553    18648.758    4.5642429 
    3020    412.00378   -8956.6393   -8910.6797   -146.08285    18656.642    4.5927425 
    3030    418.63798   -8957.5078   -8910.8081   -752.72975    18664.121    4.6175142 
    3040    424.33824    -8958.289   -8910.9535   -1169.7649    18669.932    4.6357715 
    3050    422.81774   -8958.3018   -8911.1358   -1180.7264    18673.285    4.6463058 
    3060    435.64505   -8959.9752   -8911.3784   -1431.9832    18674.047    4.6504627 
    3070    441.91719   -8961.0054   -8911.7088   -1436.4021    18671.835    4.6522585 
    3080    425.53699   -8959.5849   -8912.1156   -706.68441    18666.777    4.6558061 
    3090    405.37338   -8957.7497   -8912.5297    179.61199    18660.356    4.6620744 
    3100    406.52888   -8958.2581   -8912.9091    302.03335    18654.272    4.6693529 
    3110    409.33189   -8958.9142   -8913.2526    63.625889    18648.879    4.6764417 
    3120    400.53709   -8958.2259   -8913.5454   -309.68561    18643.682    4.6828908 
    3130    405.29981   -8958.9989   -8913.7871   -606.18078    18637.945     4.689826 
    3140    409.10872   -8959.6268   -8913.9901   -756.51944    18631.044    4.7008748 
    3150    407.76353   -8959.6535   -8914.1668   -431.64661    18622.739    4.7181898 
    3160    405.88704   -8959.5923    -8914.315    411.87163    18613.749    4.7407756 
    3170    413.47828   -8960.5517   -8914.4276    1087.3621     18605.73    4.7650865 
    3180    433.18858   -8962.8625   -8914.5396    1472.4508     18600.04    4.7863602 
    3190    419.50911   -8961.4696   -8914.6727    2309.8854    18597.617    4.8006532 
    3200    402.59413   -8959.7179   -8914.8079    2642.7945    18599.998    4.8064499 
    3210    413.50967   -8961.0551   -8914.9274    1289.8062    18607.559    4.8081812 
    3220    418.11105   -8961.6768   -8915.0359   -447.20662     18617.67    4.8131134 
    3230    406.93166   -8960.5305   -8915.1366   -1862.0151    18626.767    4.8259186 
    3240    414.87268   -8961.5068   -8915.2271   -3230.3348    18631.827    4.8480714 
    3250    430.91959   -8963.4006   -8915.3308   -3904.8477    18630.168    4.8775149 
    3260    434.59656   -8963.9616   -8915.4817   -3281.0056    18620.571    4.9095251 
    3270    432.70972    -8963.951   -8915.6816   -1708.2041    18604.384    4.9399575 
    3280    422.85352   -8963.0703   -8915.9004    -4.174115    18584.849    4.9676594 
    3290     414.9432   -8962.4008   -8916.1132    1417.3718    18565.523    4.9937739 
    3300    410.99792   -8962.1584   -8916.3109     2071.815    18549.286    5.0195641 
    3310    409.84618   -8962.2188   -8916.4998    1660.7362    18537.371    5.0445807 
    3320    409.91037   -8962.4053   -8916.6792    960.38527     18529.02    5.0665637 
    3330    408.36942   -8962.4028   -8916.8486    373.10029    18522.773    5.0846081 
    3340    397.98914   -8961.3857   -8916.9894    248.83795    18517.474    5.1012428 
    3350    411.83713   -8963.0408   -8917.0998    -262.2976     18512.68    5.1176217 
    3360    427.13628   -8964.8565   -8917.2088   -776.50693    18507.392    5.1345964 
    3370    410.92503   -8963.1664   -8917.3271   -596.93302    18500.698    5.1530213 
    3380    405.67177   -8962.6873    -8917.434   -575.84055    18492.793     5.171358 
    3390    415.40205   -8963.8661   -8917.5273   -563.98786    18483.783    5.1882007 
    3400    412.30505   -8963.6099   -8917.6167   -118.79549    18473.814    5.2038723 
    3410    408.94544   -8963.3194   -8917.7009   -90.729658    18463.633    5.2197684 
    3420    416.87203   -8964.2842   -8917.7815   -435.35049    18453.309    5.2366622 
    3430    421.07234   -8964.8428   -8917.8716   -442.82521    18442.244    5.2546292 
    3440    408.63293    -8963.546   -8917.9624     377.4884    18430.539    5.2731446 
    3450     403.9871   -8963.0983   -8918.0329    1380.4832    18419.756    5.2919491 
    3460    412.01603   -8964.0469   -8918.0859    2041.7249    18411.862    5.3123788 
    3470    418.24638   -8964.7959   -8918.1399     2531.158     18408.22    5.3348421 
    3480    422.40297   -8965.3342   -8918.2145    2684.5431    18409.756    5.3579084 
    3490    419.96614    -8965.161   -8918.3132    2202.6193    18416.705    5.3787111 
    3500    413.86645   -8964.5887   -8918.4213    1155.9537     18428.04    5.3932617 
    3510    409.13348   -8964.1562   -8918.5167   -98.809903    18441.632    5.4007789 
    3520     410.8697   -8964.4227   -8918.5896   -1552.3184    18454.865    5.4053577 
    3530    414.65478   -8964.9046   -8918.6493   -2758.0748    18464.847     5.412871 
    3540    408.25409   -8964.2474    -8918.706   -3546.2372    18469.114    5.4270443 
    3550    408.92987   -8964.3851   -8918.7683   -4101.8548    18466.039    5.4485813 
    3560    413.14216   -8964.9357   -8918.8491   -4009.4786    18454.625    5.4746349 
    3570    406.65166   -8964.3082   -8918.9456   -2971.1995    18435.207    5.5006121 
    3580     400.6217   -8963.7152   -8919.0252   -1701.9794    18409.891    5.5246787 
    3590    411.96157   -8965.0289    -8919.074   -557.43283    18381.298    5.5449573 
    3600    419.76665    -8965.925   -8919.0994    1077.6222    18351.955    5.5577087 
    3610    403.38842   -8964.0845   -8919.0859    3189.3417    18325.256    5.5614541 
    3620    408.12564   -8964.5629   -8919.0359      4509.74     18305.21    5.5552576 
    3630    418.38336   -8965.6461   -8918.9748    5053.8079    18294.432    5.5416117 
    3640    420.35771   -8965.8355    -8918.944    4953.9826    18293.938    5.5263259 
    3650    423.81713   -8966.2427   -8918.9653    4093.6388    18303.367     5.514942 
    3660    421.85825   -8966.0916   -8919.0327    2857.8416     18320.96    5.5115933 
    3670    423.48051   -8966.3614   -8919.1215     1003.895    18344.091    5.5167831 
    3680    428.34588   -8966.9833   -8919.2007   -1121.0246    18369.006    5.5267955 
    3690    419.91505   -8966.1031    -8919.261   -3007.3281    18391.391    5.5392966 
    3700    400.79522   -8964.0083    -8919.299   -4155.6145    18407.494    5.5574669 
    3710    400.36816    -8963.986   -8919.3244   -4844.2396    18414.926    5.5833434 
    3720    406.40609   -8964.6868   -8919.3516   -4660.9597    18412.503    5.6178524 
    3730    411.14089   -8965.2461   -8919.3827   -4008.3557    18400.638     5.659773 
    3740    426.15187   -8966.9637   -8919.4258   -3435.1821    18380.692    5.7063455 
    3750    429.79098   -8967.4372   -8919.4934   -2529.2985    18354.063    5.7561229 
    3760    427.52255    -8967.274   -8919.5832   -1262.1429    18322.751    5.8080365 
    3770    425.34539   -8967.1271   -8919.6792    125.13871    18289.428     5.861618 
    3780    427.10315   -8967.4207   -8919.7767    1335.3584    18256.904    5.9153756 
    3790    435.00019   -8968.4111   -8919.8862    2191.9418    18227.597    5.9692838 
    3800    446.47838   -8969.8499   -8920.0445    2618.7277    18203.172    6.0239299 
    3810    442.67912   -8969.6617   -8920.2802    2937.7555    18184.431    6.0778665 
    3820    431.84707   -8968.7562    -8920.583    2972.5832    18171.858    6.1297206 
    3830    430.05081   -8968.8987   -8920.9259    1949.7874     18165.24    6.1797365 
    3840    439.48448   -8970.3244   -8921.2993    385.13773    18162.531    6.2271521 
    3850    441.12121   -8970.9107   -8921.7029   -554.76909    18160.774    6.2718892 
    3860    435.05859   -8970.6539   -8922.1225   -961.00243    18158.022    6.3153537 
    3870    439.09129   -8971.5231   -8922.5418   -961.20037    18153.474    6.3576184 
    3880    441.18686    -8972.173    -8922.958   -354.77418    18147.223    6.3957682 
    3890     434.5733   -8971.8295   -8923.3522    497.05269    18140.444    6.4269999 
    3900    437.75144   -8972.5485   -8923.7167    947.50877    18134.725    6.4486186 
    3910    453.10959   -8974.6322   -8924.0871     779.9388    18130.875    6.4606852 
    3920    450.56484    -8974.748   -8924.4869    1112.5755    18128.757     6.467854 
    3930    430.41431   -8972.9065   -8924.8932    1399.6768    18128.877    6.4718397 
    3940    423.99532   -8972.5672   -8925.2698    927.41784     18131.66    6.4717885 
    3950    436.49243   -8974.3178   -8925.6264   -39.889521    18136.168     6.469201 
    3960    442.73049   -8975.3739   -8925.9866   -907.19048    18140.545    6.4671828 
    3970    444.45436   -8975.9472   -8926.3676   -1502.5717    18143.105    6.4691806 
    3980    438.07619   -8975.6437   -8926.7756   -1711.1876    18142.711    6.4787974 
    3990    412.70817   -8973.2138   -8927.1755   -1411.9425    18139.014    6.4978533 
    4000    398.12777   -8971.9303   -8927.5185   -1127.1448    18132.581    6.5243783 
    4010    425.96182   -8975.3471   -8927.8304   -1554.6595    18123.875    6.5577714 
    4020    446.80119   -8978.0121   -8928.1708   -1716.0547    18112.288     6.600397 
    4030    438.93036    -8977.509   -8928.5456   -1087.5709    18097.601    6.6537084 
    4040    437.60955   -8977.7396   -8928.9236   -126.20795    18081.065    6.7148656 
    4050    433.50339   -8977.6643   -8929.3063    708.56277     18064.54    6.7770011 
    4060    424.43809   -8977.0364   -8929.6897    1401.7322    18049.677    6.8319384 
    4070    436.49116   -8978.7808   -8930.0896     1674.955    18037.739    6.8736167 
    4080    443.00547    -8979.939   -8930.5211    1689.6485    18029.237    6.9010436 
    4090    436.88689   -8979.7029   -8930.9675    1751.9896    18024.201    6.9150926 
    4100    442.51801   -8980.7839   -8931.4204    1856.9524    18022.707    6.9168171 
    4110    445.13512   -8981.5383   -8931.8828    1958.7764      18024.9    6.9102038 
    4120    442.53206   -8981.7192    -8932.354    1672.6128    18030.836    6.8990411 
    4130    439.46691   -8981.8448   -8932.8216    544.69636    18039.822    6.8875075 
    4140    448.47882   -8983.3209   -8933.2924   -1427.3695    18049.608    6.8827902 
    4150    457.87837   -8984.8667   -8933.7897   -3320.6131    18056.468    6.8903864 
    4160    458.91569   -8985.5273   -8934.3346   -4674.6111    18056.748    6.9129548 
    4170     462.6936   -8986.5543   -8934.9401   -4716.5429    18048.047    6.9515052 
    4180    461.38401   -8987.0694   -8935.6013   -3814.0148    18030.343    7.0040349 
    4190    456.53793   -8987.2035    -8936.276   -2774.0142    18005.455    7.0661514 
    4200    466.32448   -8988.9702    -8936.951    -1644.244    17975.539    7.1316311 
    4210    466.83214   -8989.6908    -8937.615    269.33299    17943.065    7.1923786 
    4220    467.97277    -8990.459   -8938.2559    2019.6927    17911.645    7.2421388 
    4230    473.42598   -8991.7031   -8938.8917    3252.9007     17884.64    7.2805872 
    4240    478.27311   -8992.9077   -8939.5556    3980.6522    17864.334    7.3079944 
    4250    468.10011   -8992.4633    -8940.246    4442.6756    17852.054    7.3230005 
    4260    450.58683   -8991.1951   -8940.9315    4336.5676    17848.463    7.3269831 
    4270    438.10891   -8990.4546   -8941.5829    3533.0322    17853.186    7.3229789 
    4280    450.77188   -8992.4928   -8942.2085    1691.9258    17864.442    7.3116442 
    4290    463.24052   -8994.5201   -8942.8449   -312.16028    17878.727    7.2958669 
    4300    448.13489   -8993.4726   -8943.4825   -1299.0312    17892.376    7.2815103 
    4310    448.47805   -8994.1374    -8944.109   -1973.0573    17903.325    7.2729007 
    4320     454.8954   -8995.4933   -8944.7491   -2431.2625    17910.328    7.2717231 
    4330    463.25018   -8997.0939   -8945.4177   -3159.3009    17912.457    7.2780755 
    4340    479.78944   -8999.6828   -8946.1616   -3889.3661    17908.451     7.292553 
    4350    473.30192   -8999.7781   -8946.9805   -3672.6022    17897.194    7.3167799 
    4360    468.64057   -9000.0981   -8947.8205    -3015.197    17879.119    7.3542105 
    4370    484.26569   -9002.7024   -8948.6818   -2462.6701    17855.566    7.4082784 
    4380     493.7753   -9004.6753   -8949.5939   -1273.5642    17827.928    7.4789191 
    4390    498.28276   -9006.1283   -8950.5441   -221.43236    17798.386      7.56298 
    4400    499.72941   -9007.2523   -8951.5068    670.22502    17769.066    7.6541176 
    4410    500.81874   -9008.3314   -8952.4644    1197.1207    17741.637     7.744227 
    4420    504.38908   -9009.7013   -8953.4359    1687.8661    17717.139    7.8280763 
    4430    502.71168   -9010.5045   -8954.4263    1735.1665    17696.323    7.9034993 
    4440    508.42077   -9012.1767   -8955.4616    1609.5564    17679.263    7.9700396 
    4450    516.91608   -9014.2223   -8956.5595     1809.391    17665.749     8.026469 
    4460    533.25749   -9017.2401   -8957.7545      1726.91    17655.861    8.0692054 
    4470    521.97818   -9017.2379   -8959.0104    2219.7666    17649.543    8.0989161 
    4480     503.2988   -9016.3713   -8960.2276    2882.4557     17647.56    8.1173364 
    4490    493.98419    -9016.481   -8961.3763    2753.2124    17650.893    8.1297942 
    4500    501.88147   -9018.4931   -8962.5075    1557.1786    17659.134    8.1431889 
    4510    504.86179   -9019.9807   -8963.6626    559.43064    17670.177    8.1633687 
    4520    502.62441   -9020.8985     -8964.83    37.876334    17682.123    8.1971101 
    4530    499.34292   -9021.6981   -8965.9956   -304.56374    17693.908    8.2409391 
    4540    493.11289   -9022.1262   -8967.1187   -1132.9428    17704.785    8.2826704 
    4550    510.52829   -9025.2065   -8968.2563   -2633.7408    17713.144    8.3171808 
    4560    505.89268   -9025.8834   -8969.4503   -3346.8611    17716.471    8.3487658 
    4570    494.47277   -9025.8137   -8970.6545   -3506.0306    17713.495    8.3803406 
    4580    481.86969   -9025.5918   -8971.8385   -3515.4481    17703.985    8.4138345 
    4590    483.05253   -9026.8708   -8972.9855    -3333.345    17688.072    8.4478992 
    4600    488.21005   -9028.6122   -8974.1516   -2586.4798    17666.352    8.4828017 
    4610    475.39287   -9028.3212   -8975.2904   -1070.6384    17640.462    8.5160108 
    4620    483.44092   -9030.3298   -8976.4012     109.2867    17613.152    8.5402081 
    4630    489.13633   -9032.0924   -8977.5285    1206.9386    17586.738    8.5528316 
    4640    484.52286   -9032.7019   -8978.6526    2054.0024    17563.213    8.5559902 
    4650    494.39514   -9034.9267   -8979.7762    2212.4532    17544.016     8.551908 
    4660    506.43604   -9037.4352   -8980.9415    1633.7823    17529.289    8.5453073 
    4670    503.91209   -9038.3592   -8982.1471    890.96385    17517.931    8.5439419 
    4680    500.30781   -9039.1689   -8983.3588   -149.47155    17508.462    8.5520665 
    4690    521.84753   -9042.8543   -8984.6414   -1743.0591    17498.857    8.5713612 
    4700    522.51252   -9044.3207   -8986.0336   -2369.3879    17486.481    8.6049386 
    4710    514.84058   -9044.9066   -8987.4753   -2160.9623    17470.216    8.6526904 
    4720    511.55103   -9045.9919   -8988.9276   -1845.7035     17450.42    8.7112716 
    4730    516.80612   -9048.0453   -8990.3948   -1453.9264    17427.787    8.7790889 
    4740    513.12895    -9049.105   -8991.8647    -479.5545    17403.248    8.8552993 
    4750    514.82177   -9050.7317   -8993.3026     460.9816    17378.556     8.936253 
    4760    527.26905   -9053.5768   -8994.7592    438.31316    17355.284    9.0179129 
    4770    526.06275   -9054.9295   -8996.2465   -469.33709    17333.412    9.0987067 
    4780    537.03094   -9057.6708   -8997.7642     -2162.57    17311.317    9.1772691 
    4790    547.00311   -9060.3879   -8999.3688   -3318.6184    17286.192    9.2556879 
    4800    523.06441   -9059.3388   -9000.9902   -2936.8481    17256.269    9.3369173 
    4810    504.37096   -9058.7578   -9002.4944   -1889.4762    17222.311    9.4209343 
    4820    524.89279   -9062.5185   -9003.9659    -1325.835    17186.185    9.5076556 
    4830    531.02936   -9064.7315   -9005.4943   -117.14813    17149.262    9.5981426 
    4840    522.45292   -9065.2928   -9007.0124    1609.0237    17113.707    9.6904448 
    4850    542.41108   -9069.0493   -9008.5425    2443.4522    17082.277    9.7787205 
    4860    582.30085   -9075.2074   -9010.2508    2311.0003    17056.258    9.8569469 
    4870      587.408    -9077.708   -9012.1817    2106.4395    17035.322    9.9168797 
    4880    559.97136   -9076.6001   -9014.1345    1809.3632    17018.854    9.9547307 
    4890    546.82723   -9076.9834    -9015.984    1190.0901      17006.1    9.9791221 
    4900    558.43482   -9080.0938   -9017.7995    511.11433    16995.851    9.9970653 
    4910    572.40765   -9083.5387   -9019.6858   -101.40039    16986.845    10.008149 
    4920    566.89254   -9084.8577     -9021.62   -298.36577     16978.07    10.012065 
    4930    558.97664   -9085.8985   -9023.5438   -351.63958     16969.14    10.016635 
    4940    555.38803   -9087.3977   -9025.4433   -600.39543      16959.9     10.03531 
    4950    555.61651   -9089.3234   -9027.3436   -1119.7229    16949.933    10.072002 
    4960    564.89222   -9092.2975   -9029.2829   -1640.9679    16938.401    10.121702 
    4970    569.01541   -9094.7388   -9031.2643   -1743.6766    16924.578    10.181095 
    4980     589.4458   -9099.0924   -9033.3388   -2624.2207    16908.164    10.247859 
    4990    593.11455   -9101.7104   -9035.5476   -3595.1883     16887.84    10.316901 
    5000    590.92187   -9103.7292    -9037.811   -4342.5469    16862.116    10.388348 
Loop time of 2156.3 on 16 procs for 3000 steps with 864 atoms

Performance: 0.120 ns/day, 199.657 hours/ns, 1.391 timesteps/s
95.7% CPU use with 16 MPI tasks x 1 OpenMP threads

MPI task timing breakdown:
Section |  min time  |  avg time  |  max time  |%varavg| %total
---------------------------------------------------------------
Pair    | 471.36     | 1197       | 2141.6     |1526.8 | 55.51
Bond    | 0.00022697 | 0.0005644  | 0.0014663  |   0.0 |  0.00
Neigh   | 0.022497   | 0.052643   | 0.097733   |  10.2 |  0.00
Comm    | 4.7484     | 642.21     | 1592.4     |1787.1 | 29.78
Output  | 0.18757    | 0.19135    | 0.24535    |   3.2 |  0.01
Modify  | 2.1459     | 316.85     | 751.92     |1539.3 | 14.69
Other   |            | 0.0145     |            |       |  0.00

Nlocal:        54.0000 ave          83 max          28 min
Histogram: 5 0 1 0 1 2 2 1 2 2
Nghost:        561.375 ave         775 max         365 min
Histogram: 4 0 1 1 0 4 2 2 0 2
Neighs:         0.00000 ave           0 max           0 min
Histogram: 16 0 0 0 0 0 0 0 0 0
FullNghs:      3051.75 ave        5967 max         767 min
Histogram: 5 1 0 0 3 2 1 1 1 2

Total # of neighbors = 48828
Ave neighs/atom = 56.513889
Ave special neighs/atom = 0.0000000
Neighbor list builds = 300
Dangerous builds = 300
Setting up Verlet run ...
  Unit style    : metal
  Current step  : 5000
  Time step     : 0.001
Per MPI rank memory allocation (min/avg/max) = 8.894 | 8.911 | 8.920 Mbytes
Step Temp PotEng TotEng Press Volume c_msd[4] 
    5000    590.92187   -9103.7292    -9037.811   -4342.5469    16862.116    10.388348 
    5010     606.9176   -9105.8367   -9038.1341   -5502.0495    16857.816    10.426497 
    5020    588.70979   -9104.7524    -9039.081   -4579.3417    16844.293    10.485487 
    5030    576.98148   -9104.7825   -9040.4193   -3349.1805    16822.887    10.554437 
    5040    588.58147   -9107.4601   -9041.8029   -2415.8973    16795.697    10.624348 
    5050    622.03821   -9112.5145   -9043.1252   -1188.4779    16764.484     10.69496 
    5060     626.7429   -9114.3945   -9044.4804    277.28644    16731.371     10.76664 
    5070    603.74837   -9113.2211   -9045.8721    1889.6707    16698.943    10.837336 
    5080    611.22497   -9115.5098   -9047.3267    2378.1267    16669.743     10.90669 
    5090    631.43305   -9119.3963    -9048.959    1786.1845    16644.555    10.976903 
    5100    633.82189   -9121.4855   -9050.7817    1867.8135    16622.609    11.050182 
    5110    613.73153   -9121.0913   -9052.6286    2720.8293    16604.108    11.126992 
    5120    624.90308   -9124.2032   -9054.4944    2488.8982    16590.141    11.203293 
    5130    629.15652   -9126.6284    -9056.445     1578.043     16580.38    11.275995 
    5140    663.99073   -9132.6338   -9058.5647   -117.87026    16573.163    11.344495 
    5150    654.25992   -9133.8534   -9060.8697   -1106.2035    16565.901    11.410361 
    5160     642.9555   -9134.8825   -9063.1599   -1337.2238    16556.998    11.473476 
    5170    657.71704   -9138.8697   -9065.5003   -1931.7558    16545.859    11.535883 
    5180    647.98889   -9140.2136   -9067.9294   -1795.4123    16531.674    11.600471 
    5190    611.05165   -9138.4243   -9070.2606    185.36044    16514.924    11.666772 
    5200    590.99942   -9138.3249    -9072.398    2253.5439    16498.615    11.730528 
    5210    601.50545   -9141.5766   -9074.4778    3458.4912    16486.025    11.784146 
    5220    610.91744   -9144.7866   -9076.6378    3863.5725    16479.086    11.819854 
    5230    611.42705   -9147.0821   -9078.8765    3259.0043     16478.41    11.836556 
    5240    605.62883   -9148.6988     -9081.14      1511.55     16482.94    11.840289 
    5250    615.54185   -9152.0713   -9083.4066   -609.17233    16489.876    11.835806 
    5260    655.05343   -9158.8947   -9085.8225   -2227.6278    16495.845    11.829316 
    5270    662.49635   -9162.3785   -9088.4761    -2288.092    16498.344    11.831995 
    5280    626.91586   -9161.0521   -9091.1187   -1200.2039    16497.222    11.846827 
    5290     585.7809   -9158.9165   -9093.5718     338.9642    16494.187    11.865268 
    5300    570.31616   -9159.4147   -9095.7951     1390.298    16491.608    11.873457 
    5310    568.63118   -9161.3906    -9097.959    2169.1857    16491.315    11.863822 
    5320    561.94418   -9162.7552   -9100.0694    2383.1017    16494.539    11.836601 
    5330    559.09721    -9164.526   -9102.1579    2023.1701    16501.623    11.794613 
    5340    539.28544   -9164.3336   -9104.1755    1844.5324    16512.108    11.744649 
    5350    531.48594   -9165.3747   -9106.0866    1097.3136    16525.541     11.69093 
    5360    532.87324   -9167.4118    -9107.969    447.18943    16540.793    11.636695 
    5370    516.66909    -9167.423   -9109.7878   -520.57105    16556.674    11.581799 
    5380    508.25571   -9168.2234   -9111.5267   -1701.4954    16571.612    11.522923 
    5390    491.14541   -9167.9515   -9113.1635    -2215.187    16583.762    11.464936 
    5400    493.91312   -9169.8137   -9114.7169   -1988.9502    16592.267    11.414497 
    5410    510.53216   -9173.2364   -9116.2858   -1404.1685    16597.438     11.37596 
    5420    508.91062   -9174.6724   -9117.9027   -196.79528     16600.33    11.348383 
    5430    505.96524   -9175.9694   -9119.5282     424.3708    16602.785    11.324276 
    5440    485.33411   -9175.2571   -9121.1173    667.35988    16605.877    11.298042 
    5450    475.43234   -9175.6379   -9122.6027    857.54769    16610.092    11.270603 
    5460    483.72816   -9178.0198   -9124.0592     483.9702    16615.619    11.244071 
    5470    471.55073   -9178.0937   -9125.4915    823.72094     16622.06    11.219662 
    5480    450.14691   -9177.0564   -9126.8418    619.11716    16629.778    11.193843 
    5490    436.35534   -9176.7521   -9128.0761   -656.55501    16638.347    11.164497 
    5500    440.59071   -9178.3695    -9129.221   -2200.8195    16645.751    11.134995 
    5510    444.38391    -9179.905   -9130.3333   -3199.7535    16649.506    11.110364 
    5520    436.83677   -9180.1366   -9131.4068   -2783.4039    16648.092    11.093227 
    5530    443.91993   -9181.9678   -9132.4479   -1799.4643    16642.077    11.085572 
    5540    449.08169   -9183.5921   -9133.4964     -287.447    16633.109    11.089531 
    5550    431.38044   -9182.6347   -9134.5136    2116.4434     16623.84    11.106247 
    5560    422.32336   -9182.5727   -9135.4619    3626.3055    16618.033     11.13071 
    5570    426.15922   -9183.9238   -9136.3851    3505.4515     16618.09    11.154157 
    5580    425.62325   -9184.7646   -9137.2857    2504.5405    16623.942    11.167683 
    5590    434.66328    -9186.669   -9138.1817    605.59441    16633.829    11.167267 
    5600    426.76366   -9186.6626   -9139.0565   -998.47719    16644.763    11.157418 
    5610    422.52824   -9187.0199   -9139.8862   -2150.7098    16654.041     11.14735 
    5620    419.55503   -9187.4874   -9140.6854   -2266.1592    16659.811    11.146453 
    5630    411.49699   -9187.3514   -9141.4483   -1271.1409    16661.894    11.157354 
    5640    412.60249   -9188.2021   -9142.1757   -259.33179    16661.858    11.174158 
    5650    405.68385   -9188.1259   -9142.8712   -523.07073    16661.174    11.189857 
    5660    391.50683   -9187.1757   -9143.5025   -1232.7192     16659.57    11.202187 
    5670    401.00172   -9188.8061   -9144.0737   -2252.3853    16655.835    11.210168 
    5680    409.98655   -9190.3629   -9144.6283   -2843.8432    16648.351    11.217784 
    5690    400.94242    -9189.884   -9145.1582    -1493.145    16636.365    11.233559 
    5700    399.85172   -9190.2362   -9145.6321    985.20708    16622.038    11.258117 
    5710    409.39673   -9191.7345   -9146.0657    3827.0967    16609.457    11.282556 
    5720    400.49599   -9191.1496   -9146.4736    6375.7753    16603.277    11.294597 
    5730    405.22636    -9192.091   -9146.8874    6825.3546    16607.506    11.284795 
    5740    417.06003   -9193.8576   -9147.3339    4611.9423    16622.824    11.254779 
    5750    403.75368   -9192.8099   -9147.7706     1270.172    16645.749    11.215388 
    5760    381.34343   -9190.6613   -9148.1219   -1825.7636    16670.888    11.180098 
    5770    390.37887   -9191.9203   -9148.3729    -4684.086    16692.967    11.156595 
    5780    399.85539   -9193.1759   -9148.5715   -6083.8213     16707.34    11.148018 
    5790    410.98213   -9194.6174   -9148.7717    -6623.986     16711.44    11.152405 
    5800    413.00011   -9195.0733   -9149.0025    -5913.641    16704.499     11.17274 
    5810    403.00048   -9194.2067   -9149.2514   -4197.9126    16687.691    11.214692 
    5820    406.70324   -9194.8493    -9149.481   -1740.0451    16663.965    11.276299 
    5830    402.46062   -9194.5461   -9149.6511    1116.5218    16637.512    11.348289 
    5840    405.02029   -9194.9424   -9149.7618    3279.6464    16612.951     11.41547 
    5850    402.72364   -9194.7677   -9149.8432    4692.6001    16593.894    11.466465 
    5860    406.13821   -9195.2317   -9149.9263    5309.1763    16582.649    11.495981 
    5870    413.21484   -9196.1267   -9150.0319    5182.0047    16580.249    11.501137 
    5880    411.48557   -9196.0633   -9150.1614    3816.5372     16586.36    11.480409 
    5890    407.66925   -9195.7568   -9150.2807    1300.9955     16598.66    11.437802 
    5900    410.16291   -9196.1144   -9150.3601   -1266.5922    16613.124    11.384317 
    5910    424.49102   -9197.7815   -9150.4289   -3693.6162    16625.426    11.336473 
    5920    406.87172   -9195.9089   -9150.5217   -4224.7347    16631.796    11.310716 
    5930    397.10724    -9194.935   -9150.6371   -3731.8343    16631.178    11.316462 
    5940    422.53288   -9197.8952    -9150.761   -3163.4023    16624.306    11.353797 
    5950    419.68088   -9197.7046   -9150.8885   -1585.5224    16612.316    11.414072 
    5960    388.33723   -9194.2958   -9150.9762    738.29934    16597.855    11.478982 
    5970    395.23075   -9195.0874   -9150.9988    1861.5519    16584.524    11.533541 
    5980    421.67021   -9198.0344   -9150.9964    2159.0266    16574.237    11.576375 
    5990    420.76036   -9197.9491   -9151.0127     3043.103    16567.692    11.607438 
    6000    398.84821   -9195.5361    -9151.044    3169.6889    16566.158    11.619256 
    6010    399.30931   -9195.6132   -9151.0697    1523.4817    16569.636    11.607105 
    6020    407.81893    -9196.559   -9151.0661   -656.06453    16575.559    11.583491 
    6030      414.118   -9197.2428   -9151.0473   -2048.6532    16580.491    11.561304 
    6040     408.9277   -9196.6488   -9151.0323   -2480.1042    16582.126    11.545335 
    6050    403.20056   -9195.9911   -9151.0135   -2402.2649    16579.674    11.532039 
    6060    403.55354   -9195.9973   -9150.9803   -1525.8014     16573.34    11.515564 
    6070    410.17277   -9196.6816   -9150.9262   -176.55318    16564.538    11.497165 
    6080    414.80425   -9197.1291   -9150.8571    1251.2417    16555.511    11.481792 
    6090    410.92016   -9196.6277   -9150.7889    1661.4432    16548.439    11.472272 
    6100    408.41668   -9196.2785    -9150.719    1487.5346    16544.108    11.464883 
    6110    414.91129   -9196.9321   -9150.6481    561.72718    16542.122    11.455185 
    6120    414.92486   -9196.8651   -9150.5796   -213.14797    16541.069    11.447629 
    6130    415.59605   -9196.8772   -9150.5168   -88.374644    16539.785    11.445049 
    6140    426.25792   -9198.0176   -9150.4679    176.16385    16538.354    11.447346 
    6150    430.90433   -9198.5034   -9150.4354    271.02968    16537.193    11.456143 
    6160    429.52716   -9198.3606   -9150.4462    535.36703    16536.515    11.472101 
    6170    398.39176   -9194.9225   -9150.4813    775.92502    16536.747    11.490419 
    6180    400.12783   -9195.1442   -9150.5093   -129.71693    16538.077    11.503194 
    6190     421.2762   -9197.5163   -9150.5223    -1241.011    16539.149    11.509954 
    6200    420.76957   -9197.4799   -9150.5425    -1305.589    16538.302    11.518292 
    6210    411.86469    -9196.516   -9150.5719   -1005.8129    16535.356    11.530186 
    6220    414.36645   -9196.8251   -9150.6019   -1357.5713    16530.629     11.54271 
    6230    418.50706   -9197.3238   -9150.6387   -1730.1383    16523.611    11.556155 
    6240    426.34511   -9198.2502   -9150.6908   -1474.8431    16513.804    11.573924 
    6250    442.53445   -9200.1498   -9150.7844   -514.69793    16501.647    11.597645 
    6260    423.40751   -9198.1471   -9150.9154    1308.8764    16488.791    11.625454 
    6270    422.94446   -9198.2571    -9151.077    2602.3101    16478.021    11.648462 
    6280    424.18664   -9198.5878   -9151.2691    3170.9168    16471.472     11.66265 
    6290    410.43846    -9197.274    -9151.489    3114.3629      16470.1    11.670837 
    6300    410.70458   -9197.5336   -9151.7188     2120.138    16473.738    11.676805 
    6310    416.17258   -9198.3796   -9151.9549    1311.7668    16480.933    11.682458 
    6320    407.91049   -9197.6887   -9152.1857     805.0753    16490.389    11.687225 
    6330    409.60869   -9198.0847   -9152.3922   -332.81765    16501.125    11.687098 
    6340    406.42523   -9197.9073   -9152.5699   -1566.8888     16511.33    11.684705 
    6350    410.52802   -9198.5351   -9152.7401   -2612.3834    16519.003    11.690463 
    6360    422.38149   -9200.0488   -9152.9315   -3224.8005    16522.368     11.71082 
    6370    416.18145   -9199.5853   -9153.1597    -2315.026    16520.603    11.743817 
    6380    400.90538   -9198.1015   -9153.3799   -1411.3944    16514.959    11.780336 
    6390    411.51768   -9199.4869   -9153.5815   -681.10812     16506.93    11.815346 
    6400    411.44413   -9199.6653   -9153.7681    138.37384    16497.791    11.851555 
    6410     412.6029   -9199.9605    -9153.934    35.344715    16488.754     11.88722 
    6420    438.18145   -9202.9959   -9154.1161   -814.50979    16479.632    11.914455 
    6430    429.04137   -9202.2079   -9154.3477     328.0691    16469.476    11.928481 
    6440    411.87914   -9200.5496   -9154.6038    2144.9209    16459.946    11.929186 
    6450    410.05484   -9200.6061   -9154.8638    3064.9813    16453.813    11.920544 
    6460    397.00305   -9199.4063     -9155.12      3221.06    16452.633    11.907361 
    6470    402.27716   -9200.2456   -9155.3709    2108.7427    16456.591    11.890288 
    6480    409.62049   -9201.3035   -9155.6097    421.38397    16464.024    11.874894 
    6490    402.04237   -9200.6691   -9155.8207   -1343.6757    16472.162    11.869627 
    6500      397.663   -9200.3451   -9155.9852   -2458.5835    16478.205    11.877123 
    6510    397.37782   -9200.4305   -9156.1024   -2834.8869    16480.313    11.890941 
    6520    400.74782   -9200.8882   -9156.1842   -2773.9339    16477.809    11.903135 
    6530    415.73598   -9202.6404   -9156.2644   -2814.1232    16470.658    11.911052 
    6540    412.27713   -9202.3543   -9156.3642   -1597.2625     16459.05    11.922324 
    6550    394.69188   -9200.4822   -9156.4537   -305.40119    16444.782    11.942713 
    6560    401.91675   -9201.3441   -9156.5097    181.70535    16429.853     11.96877 
    6570    411.72222   -9202.4654   -9156.5371    558.79358    16415.212    11.994196 
    6580    412.98798   -9202.6232   -9156.5538    1505.1056    16401.572    12.016295 
    6590    418.64357   -9203.2722   -9156.5719    2095.8694    16390.307    12.034362 
    6600    409.46584   -9202.2776   -9156.6011    2467.3638    16382.397    12.049811 
    6610    391.25024   -9200.2684   -9156.6238    3097.9069    16378.549    12.065295 
    6620    392.49361      -9200.4   -9156.6168    2909.4393    16379.685    12.077352 
    6630    408.55829   -9202.1562   -9156.5809    1638.9511    16385.428    12.084444 
    6640    407.66666    -9202.008   -9156.5322    902.78229    16393.985    12.092709 
    6650    395.59641   -9200.5992   -9156.4698    359.44814    16404.096    12.103137 
    6660    403.99922   -9201.4381   -9156.3714   -833.82235    16414.767    12.117018 
    6670    420.55547   -9203.1514   -9156.2378   -2673.1775    16424.024     12.13831 
    6680    416.86498   -9202.6098   -9156.1078   -3327.7424    16429.096    12.174086 
    6690    411.57137   -9201.9073   -9155.9959   -2835.9668    16428.846    12.225591 
    6700    410.30159   -9201.6574   -9155.8877   -1866.4139    16423.986    12.285671 
    6710    402.51369   -9200.6714   -9155.7704   -821.99165    16416.041    12.345126 
    6720    409.88406   -9201.3589   -9155.6357   -247.61712    16406.635     12.39847 
    6730    423.64275   -9202.7449   -9155.4869   -79.921433    16396.716    12.442904 
    6740    424.95997   -9202.7608   -9155.3559    587.18423    16386.695    12.475913 
    6750    405.41285   -9200.4653   -9155.2408    1952.2233    16377.705    12.498759 
    6760    413.68827   -9201.2784   -9155.1309    1851.8149    16371.599    12.512817 
    6770    429.67771   -9202.9601   -9155.0289    1164.4937    16368.417    12.517717 
    6780    424.75921   -9202.3466   -9154.9641    1028.7098    16367.212    12.513812 
    6790    411.98405   -9200.8826   -9154.9251    604.28698    16367.621    12.499493 
    6800    424.39153   -9202.2335    -9154.892   -475.52987    16368.933    12.476587 
    6810    423.53691    -9202.121   -9154.8748   -1097.6361    16369.548    12.453365 
    6820    414.00336   -9201.0601   -9154.8774   -1167.6852    16368.487    12.431673 
    6830     438.9431   -9203.8674   -9154.9027   -1814.4638    16365.418    12.409665 
    6840    435.62453   -9203.5776    -9154.983   -1065.5726    16359.573    12.392736 
    6850    392.72076   -9198.8924   -9155.0838    1083.8404    16352.143    12.387911 
    6860    399.93973   -9199.7731   -9155.1592    2095.8994    16346.246    12.394327 
    6870    418.86175   -9201.9383   -9155.2136    2123.1498     16343.59    12.400601 
    6880    416.31943   -9201.7165   -9155.2755    1957.3261    16344.356    12.396769 
    6890     434.4767   -9203.8365   -9155.3699       899.29    16348.175    12.379801 
    6900    419.00415   -9202.2432   -9155.5026    79.551346    16353.555    12.356352 
    6910    384.22329   -9198.4876   -9155.6269    -244.8775    16359.211    12.333404 
    6920    406.14702   -9201.0187   -9155.7124   -881.19735    16364.462    12.311192 
    6930    423.21688   -9202.9909   -9155.7805   -1022.0292    16368.391    12.290201 
    6940    412.32916   -9201.8581   -9155.8622    152.58331    16370.928    12.270154 
    6950    410.73105   -9201.7669   -9155.9492    862.90826    16373.651    12.248944 
    6960    409.85407   -9201.7465   -9156.0266    1025.4761    16377.742    12.229108 
    6970     428.9595   -9203.9632   -9156.1121    497.70827    16383.469    12.216727 
    6980     437.8779   -9205.0808   -9156.2349    -226.0893    16390.096    12.212518 
    6990    424.29694    -9203.738   -9156.4071   -439.95369    16396.534    12.211656 
    7000    416.87237   -9203.1162   -9156.6135    300.49005    16402.522    12.210473 
    7010    397.17536   -9201.1185    -9156.813    550.30091    16409.007    12.207036 
    7020    402.68961   -9201.9018   -9156.9812    -224.1091    16416.341    12.199545 
    7030    415.44812   -9203.4826   -9157.1388   -1116.2408    16423.455    12.187959 
    7040    402.86906   -9202.2378   -9157.2971   -1753.2635    16428.909    12.175366 
    7050    409.24011   -9203.1023   -9157.4509   -2159.5812    16431.607    12.167137 
    7060    411.38374   -9203.4971   -9157.6066   -1883.4835     16430.85    12.167412 
    7070    387.20823   -9200.9294   -9157.7358   -620.55779    16427.076    12.175132 
    7080    406.41761   -9203.1456   -9157.8091    158.48074    16422.131    12.185291 
    7090    426.82789   -9205.4694   -9157.8562    557.88044    16417.257    12.195934 
    7100    406.63829   -9203.2684   -9157.9073    1778.4406    16413.363    12.208125 
    7110    402.91084   -9202.9085   -9157.9632    2175.0672    16412.207    12.219315 
    7120    404.60883   -9203.1513   -9158.0166    2163.6588    16414.576    12.224397 
    7130    418.24674   -9204.7306   -9158.0746    1998.2404    16420.584    12.221428 
    7140    430.42371   -9206.1696   -9158.1552    760.32995    16429.842      12.2126 
    7150    412.85778   -9204.3048   -9158.2499   -581.12715    16440.613    12.202029 
    7160    405.00016   -9203.5055   -9158.3271   -2270.6736    16450.598    12.192124 
    7170    403.34978   -9203.3825   -9158.3883   -3109.4389     16457.15    12.184347 
    7180    391.10103   -9202.0581   -9158.4302   -2727.8739    16458.835    12.183177 
    7190    399.94902   -9203.0594   -9158.4445   -1590.9085    16456.113    12.192846 
    7200    406.59397   -9203.7819   -9158.4257   -440.85089    16450.645    12.211309 
    7210    421.39353   -9205.4014   -9158.3944    551.37439    16444.314    12.233901 
    7220    436.30338   -9207.0597   -9158.3894    997.47272     16438.65     12.25584 
    7230    407.13484   -9203.8382   -9158.4217    2089.4236    16434.615    12.270601 
    7240    389.24301   -9201.8751   -9158.4545    2730.3947    16433.918    12.270292 
    7250     409.6594   -9204.1573   -9158.4592    1872.4125     16437.53     12.25304 
    7260    418.02981   -9205.0732   -9158.4414    826.33316    16444.334    12.223878 
    7270    412.98573   -9204.4892     -9158.42   -239.70506    16452.702    12.191694 
    7280    395.42246   -9202.4921   -9158.3821   -1162.9718    16460.915    12.168151 
    7290    394.42548   -9202.3208    -9158.322   -2229.6638     16467.37    12.156382 
    7300    398.68948   -9202.7091   -9158.2347   -3182.8526    16470.288    12.151283 
    7310    405.88548   -9203.4163   -9158.1392   -3190.0824    16468.145    12.148452 
    7320     406.0126   -9203.3228   -9158.0315   -2512.0182    16460.698    12.149995 
    7330    397.42281   -9202.2267   -9157.8936   -707.17345    16449.063    12.163346 
    7340    413.17816   -9203.7977   -9157.7071    600.50137    16435.862    12.188214 
    7350    420.40127   -9204.3837   -9157.4873    1348.5282    16423.225    12.214178 
    7360    417.02966      -9203.8   -9157.2798     2067.359    16412.523     12.23461 
    7370    424.09578   -9204.4091   -9157.1005    1880.2488    16404.853    12.253839 
    7380    429.44775   -9204.8737   -9156.9681    1189.3873    16400.063    12.280223 
    7390     424.3413   -9204.2282   -9156.8923    921.82501    16397.194     12.31879 
    7400    419.86549   -9203.6986   -9156.8619    1198.1003    16395.848    12.365468 
    7410    399.19828   -9201.3669   -9156.8358    2063.3627    16396.577     12.41393 
    7420    401.22639   -9201.5362   -9156.7788    1861.8098    16400.574     12.46293 
    7430    417.94631   -9203.2982   -9156.6756    692.57312    16407.619    12.508938 
    7440    419.97834   -9203.3909   -9156.5417     346.5025    16416.138     12.54293 
    7450    429.85419   -9204.3653   -9156.4145    252.22496    16425.449    12.555274 
    7460    418.94364    -9203.054   -9156.3202    350.15047     16435.46      12.5461 
    7470    400.34291   -9200.9227   -9156.2638   -268.47918    16446.194    12.522862 
    7480    408.00175   -9201.7251   -9156.2119   -2350.3289    16456.501    12.493809 
    7490    417.31635    -9202.708   -9156.1557   -4588.7993    16463.091    12.465531 
    7500    427.63412   -9203.8416   -9156.1384   -5383.4721    16462.377     12.44092 
    7510    415.78974   -9202.5503   -9156.1683   -4197.1706    16452.957    12.423331 
    7520     401.7695   -9201.0229   -9156.2049   -1922.5171    16436.481    12.415812 
    7530    416.71274   -9202.6847   -9156.1997    542.53174    16416.487     12.41629 
    7540    425.64151   -9203.6294   -9156.1484    3371.0753    16397.088    12.420351 
    7550    414.79695   -9202.3613     -9156.09    5207.5674    16382.758    12.422812 
    7560    408.79978   -9201.6539   -9156.0516    5369.3932    16376.571    12.419363 
    7570    422.85829   -9203.2009   -9156.0304     4115.465    16378.958    12.409766 
    7580    419.63268   -9202.8321   -9156.0215     2456.245    16388.102    12.400011 
    7590    402.80214   -9200.9615   -9156.0284    1506.5247    16401.562    12.394694 
    7600    402.46459   -9200.9396   -9156.0441    274.46884    16417.661    12.396104 
    7610    412.18176   -9202.0393   -9156.0598   -1316.0824    16434.406    12.411002 
    7620    427.51813   -9203.7883    -9156.098   -2761.8419    16449.234     12.44159 
    7630    413.16547   -9202.2429   -9156.1537   -3178.2284    16459.871    12.485767 
    7640    405.77015    -9201.459   -9156.1947   -3738.5334      16465.3    12.538523 
    7650    402.84514   -9201.1281   -9156.1901   -3505.3882    16464.719    12.595926 
    7660     395.7785   -9200.2882   -9156.1385   -2247.5489    16458.446     12.65512 
    7670     404.2229   -9201.1336   -9156.0419   -258.50232    16448.511     12.70904 
    7680    418.54788   -9202.6177    -9155.928    1560.2742    16438.047    12.746149 
    7690     420.1859   -9202.7198   -9155.8475    3042.1361    16430.048     12.75885 
    7700    412.71375   -9201.8464   -9155.8076     3976.773    16426.927    12.747782 
    7710    415.79028   -9202.1737   -9155.7917     4006.056    16430.234    12.718024 
    7720    429.57351   -9203.7093   -9155.7897    2769.2873    16439.984    12.673188 
    7730    427.24845   -9203.4594   -9155.7992    1298.0131    16454.419    12.615767 
    7740    436.54843   -9204.5328   -9155.8352   -768.72037    16471.008    12.554013 
    7750    419.28757    -9202.674   -9155.9019   -1765.7725    16486.628    12.503042 
    7760    396.29273   -9200.1893   -9155.9823   -2490.2669    16499.473    12.468229 
    7770    409.07818   -9201.6847   -9156.0515   -3804.6839    16508.172    12.449319 
    7780    425.11106   -9203.5476   -9156.1258   -4882.3531    16510.613    12.446506 
    7790    426.34182   -9203.8052   -9156.2462   -4716.5423    16505.151    12.462252 
    7800    417.83427   -9203.0253   -9156.4153   -3238.6459    16492.005    12.495663 
    7810    397.56269   -9200.9178   -9156.5691   -1267.6934     16473.49    12.540118 
    7820    399.49486   -9201.2417   -9156.6774   -257.85384    16452.589    12.585442 
    7830    420.20864   -9203.6343   -9156.7594    707.38626    16431.147    12.621947 
    7840    419.20072   -9203.5994   -9156.8369    2240.0295    16410.841    12.647418 
    7850    417.57961   -9203.4969   -9156.9153    4105.6014    16394.205    12.661423 
    7860    419.75334   -9203.8325   -9157.0084    5590.8871    16384.191    12.665256 
    7870     410.5496   -9202.9355    -9157.138     6076.913    16383.155    12.659416 
    7880    408.49431     -9202.87   -9157.3018    4945.7174    16391.893    12.642652 
    7890    422.93711   -9204.6651   -9157.4858     2749.189    16408.689    12.615688 
    7900    407.80655   -9203.1522   -9157.6607   -79.037467    16430.066    12.582427 
    7910    398.27282   -9202.2126   -9157.7847   -3478.8791    16451.403    12.547747 
    7920     412.8685   -9203.9228   -9157.8667   -6319.4974    16467.229    12.518351 
    7930    414.10095   -9204.1614   -9157.9678   -7277.0035    16472.959    12.503182 
    7940    412.67001   -9204.1555   -9158.1215   -6081.7312    16466.983    12.512245 
    7950    415.94164   -9204.7018   -9158.3028   -3632.7419    16451.072    12.547862 
    7960    405.11283   -9203.6429    -9158.452   -369.10703    16429.236    12.602169 
    7970    409.99507   -9204.2777   -9158.5421     1745.626    16406.556    12.663264 
    7980    408.20624   -9204.1379   -9158.6019    2970.1853     16386.58    12.724212 
    7990    400.43901   -9203.3177   -9158.6481    3898.4106     16371.38    12.780366 
    8000    415.98479      -9205.1   -9158.6962     4332.499     16362.49     12.82375 
    8010    421.62434   -9205.8029     -9158.77     4499.393     16360.62    12.846154 
    8020    414.37088   -9205.1072   -9158.8835    4301.6953    16366.012    12.843042 
    8030    398.31686   -9203.4512   -9159.0183    3586.0634    16378.385    12.820857 
    8040    394.17028   -9203.1059   -9159.1356    1434.0191    16396.445    12.791611 
    8050    408.92703   -9204.8112   -9159.1948   -1354.3948    16416.843    12.768177 
    8060    412.25723   -9205.1947   -9159.2068   -2883.8418    16435.274    12.758218 
    8070    405.15572   -9204.3998   -9159.2041   -3285.7501    16449.171    12.758154 
    8080    404.60754   -9204.3226    -9159.188   -3644.5244     16457.65    12.760387 
    8090    403.81131   -9204.2014   -9159.1557   -3872.4802    16460.139    12.761373 
    8100       407.62   -9204.5898   -9159.1192   -3843.8249    16456.264    12.761459 
    8110    402.36961   -9203.9664   -9159.0815   -3141.5981    16446.157    12.760372 
    8120    408.71088   -9204.6316   -9159.0393   -2216.5339    16430.883    12.759309 
    8130    416.60486   -9205.4542   -9158.9813   -242.46709    16412.112    12.764047 
    8140    405.17717   -9204.0987   -9158.9006    2402.6307    16393.042    12.777291 
    8150    398.42463   -9203.2402   -9158.7953    3735.0351    16377.723    12.797254 
    8160    403.21926   -9203.6526   -9158.6729    3277.9222    16368.272    12.821497 
    8170    418.00198   -9205.1759   -9158.5472    1802.6555    16363.997    12.846963 
    8180    412.96317   -9204.4937    -9158.427    1055.0952    16362.778    12.876286 
    8190     399.9123   -9202.9303   -9158.3194     593.4573    16363.286    12.913226 
    8200    403.83313   -9203.2522    -9158.204   -50.675788     16364.73    12.959464 
    8210    413.64508   -9204.2129   -9158.0702   -429.00681    16366.185    13.017093 
    8220    421.25804   -9204.9161   -9157.9241   -1010.1599     16366.91    13.085877 
    8230    415.30106      -9204.1   -9157.7726    -1383.251    16366.015    13.164592 
    8240    405.07606   -9202.7951   -9157.6082   -1947.9257    16362.806    13.248715 
    8250    417.48269   -9204.0021   -9157.4313   -2260.9007    16356.483    13.332575 
    8260    415.10386   -9203.5654   -9157.2599   -1550.7048    16346.624    13.411332 
    8270    404.28621   -9202.1932   -9157.0944    20.722867     16334.41    13.475967 
    8280    425.55698   -9204.4015     -9156.93    362.36707    16322.033    13.518771 
    8290    422.69331   -9203.9287   -9156.7766    898.69141    16310.327    13.541145 
    8300    404.39871   -9201.7511   -9156.6399    1328.4754    16300.091    13.549308 
    8310    415.88562   -9202.9021   -9156.5095    1116.6462    16291.916    13.546552 
    8320    420.64706   -9203.3178    -9156.394    1685.7745    16285.699    13.532125 
    8330    419.93984   -9203.1478   -9156.3029    2838.7843    16282.329    13.506247 
    8340    440.70835   -9205.4173   -9156.2556    2714.4997    16283.337    13.470611 
    8350    431.71473   -9204.4161   -9156.2577     2221.914    16288.704     13.42885 
    8360    431.54772   -9204.4307   -9156.2909    1171.1245    16297.542    13.384262 
    8370    429.72843   -9204.2767   -9156.3398   -216.42538    16308.185     13.34263 
    8380     412.9982     -9202.47   -9156.3995    -1083.482    16318.507    13.306149 
    8390    403.36117   -9201.4496    -9156.454   -902.37475    16327.225    13.269928 
    8400    411.19968    -9202.369    -9156.499   -1059.1684    16334.378    13.227937 
    8410     429.1365   -9204.4303   -9156.5594   -1577.3733    16339.737    13.183981 
    8420    427.07952   -9204.3102   -9156.6688   -1861.2813    16342.566    13.148837 
    8430    416.18881    -9203.248   -9156.8215   -1826.3309    16342.433    13.132076 
    8440     422.3848   -9204.1161   -9156.9985   -1272.0789    16339.443    13.135131 
    8450    427.62307   -9204.9045   -9157.2025   -155.39792    16334.417    13.149664 
    8460    416.87146   -9203.9255   -9157.4229    1739.9738    16329.267    13.169284 
    8470    429.56277   -9205.5766   -9157.6583    3075.2442    16326.887     13.18723 
    8480    440.50657   -9207.0858   -9157.9466     3391.888     16329.35    13.195879 
    8490    409.02847   -9203.8925   -9158.2647    3209.5286      16337.3     13.19055 
    8500    411.66008   -9204.4925   -9158.5712    1453.7056    16350.231    13.171642 
    8510    422.62089   -9206.0069   -9158.8629   -783.56188    16365.418    13.145656 
    8520    407.49937    -9204.606   -9159.1488   -2208.1989    16379.434    13.118666 
    8530    403.41086   -9204.4151    -9159.414   -3683.7373    16389.838     13.09341 
    8540    418.09882   -9206.3069   -9159.6674    -5418.022    16394.156    13.073246 
    8550    423.36382   -9207.1804   -9159.9536   -5907.1705    16389.792    13.062536 
    8560    425.60685   -9207.7664   -9160.2893   -4525.4018    16376.036     13.06545 
    8570    421.75965   -9207.6862   -9160.6383   -1440.0763    16355.194    13.082011 
[...]
   22890    425.19198   -9237.3364   -9189.9056    3462.7208    15923.736    18.737485 
   22900     425.7566   -9237.2939   -9189.8001    2759.1796    15926.565    18.724812 
   22910    422.05309   -9236.8013   -9189.7206    1299.7779    15933.473    18.722337 
   22920    422.53215   -9236.7877   -9189.6536   -941.80166    15942.139    18.729044 
   22930    417.43963    -9236.148    -9189.582   -3293.4725    15949.144    18.748077 
   22940    407.45763    -9234.946   -9189.4935   -4152.7719    15951.167    18.782516 
   22950    405.50219   -9234.6057   -9189.3713   -3670.3212    15946.945    18.828941 
   22960    429.61691    -9237.141   -9189.2166   -1716.2408    15937.391    18.881141 
   22970    439.95373   -9238.1262   -9189.0487    1275.8568    15925.543    18.932936 
   22980    429.25477   -9236.7915   -9188.9074    3976.0991    15915.851    18.974314 
   22990    423.87334   -9236.0914   -9188.8076    4801.4886      15912.2    18.993983 
   23000    435.03053   -9237.2848   -9188.7565    3034.7577     15915.58    18.991492 
   23010    440.02762   -9237.8387    -9188.753   -9.5066985    15923.395     18.97875 
   23020    438.27026   -9237.6945   -9188.8048   -2684.8195    15931.119    18.974906 
   23030       421.81   -9235.9741   -9188.9205   -3303.4661    15934.852    18.994881 
   23040    410.41884   -9234.8574   -9189.0746   -2708.6036    15933.603    19.041332 
   23050    411.09956    -9235.095   -9189.2362   -1676.7714    15928.318    19.106324 
   23060    417.08349   -9235.9247   -9189.3984   -1278.3789    15920.474    19.175569 
   23070    419.89317   -9236.4136   -9189.5738   -570.65107    15910.882    19.238421 
   23080    415.32111   -9236.0937    -9189.764    668.58598    15900.686    19.289988 
   23090    420.54489   -9236.8899   -9189.9775    1194.0001    15891.617    19.329414 
   23100    414.68732   -9236.4761   -9190.2171    1446.0379    15884.523    19.357869 
   23110    418.74896   -9237.1887   -9190.4766    672.98921    15879.603    19.375549 
   23120    425.38841   -9238.2225   -9190.7698   -643.98157    15875.698    19.391404 
   23130    417.15621   -9237.6291   -9191.0947   -1235.0529    15870.962    19.415454 
   23140    411.02457   -9237.2715    -9191.421   -945.34581    15864.575    19.450465 
   23150    410.92663   -9237.5635    -9191.724    194.18043    15856.988    19.494181 
   23160    405.59235   -9237.2255    -9191.981    1647.4413    15849.903    19.539544 
   23170    412.50205   -9238.2304   -9192.2152      1629.22     15845.24    19.581976 
   23180    418.73412   -9239.1625   -9192.4521    453.64598    15842.962    19.625956 
   23190    407.88546   -9238.1771   -9192.6768   -494.17651    15841.473    19.675073 
   23200    411.65124   -9238.8033    -9192.883   -1556.9557    15839.233    19.727423 
   23210     416.0068   -9239.4906   -9193.0844   -2176.8365    15834.724    19.783961 
   23220    399.58818   -9237.8511   -9193.2764   -1901.2442    15827.127    19.847362 
   23230    400.81419   -9238.1445   -9193.4331   -1704.3046    15816.754    19.917642 
   23240    423.35908   -9240.7927   -9193.5663    -1281.671    15804.016    19.995844 
   23250    411.81736   -9239.6229   -9193.6841    120.38988    15789.718    20.079729 
   23260    410.95444   -9239.6288   -9193.7862    799.84928    15775.724    20.161775 
   23270     418.5192   -9240.5756   -9193.8892     970.0937    15763.123    20.240017 
   23280    400.03621   -9238.6081   -9193.9834     1241.703    15752.215    20.312123 
   23290    411.91863   -9240.0163   -9194.0661    1052.2479    15743.303     20.36979 
   23300    411.21401   -9240.0204   -9194.1489    903.60991    15736.096    20.409174 
   23310    383.85902    -9237.029    -9194.209    1400.3555    15730.469    20.433833 
   23320    403.14083   -9239.2034   -9194.2325    864.22044    15726.858    20.453597 
   23330    415.17622   -9240.5469   -9194.2334    723.34948    15724.652    20.478813 
   23340    404.02313   -9239.3011   -9194.2318    1192.6229    15723.646     20.51022 
   23350    416.13977   -9240.6452   -9194.2241    855.07176    15724.312    20.540451 
   23360    420.75098    -9241.151   -9194.2156    445.69913    15726.247    20.568074 
   23370    403.07859   -9239.1752   -9194.2112    21.742364    15728.838    20.592445 
   23380     405.0222   -9239.3801   -9194.1993   -1003.6671    15731.329    20.611711 
   23390     403.4897    -9239.177   -9194.1672   -1093.7921    15732.464    20.627259 
   23400     403.8734   -9239.1738   -9194.1211   -938.68196    15731.971    20.638167 
   23410    408.57799   -9239.6281   -9194.0506   -559.23686    15730.144    20.647586 
   23420    408.99656   -9239.5763   -9193.9521   -53.215872    15727.544    20.659939 
   23430    400.05998   -9238.4434   -9193.8161    254.84763     15724.87    20.672261 
   23440     398.0343   -9238.0263    -9193.625   -60.086249    15722.551    20.678635 
   23450    413.43261   -9239.4836   -9193.3646   -1054.1231    15720.084    20.682192 
   23460    412.94847   -9239.1051   -9193.0401   -1158.5683     15716.21    20.695092 
   23470     405.3207   -9237.8856   -9192.6714   -596.82166    15710.706    20.720989 
   23480    409.52824   -9237.9264   -9192.2429     265.9681    15704.401    20.751143 
   23490    421.84793   -9238.8246   -9191.7668    1238.2231    15698.573    20.773015 
   23500    423.15962   -9238.4873   -9191.2832    2148.1426    15694.665    20.779793 
   23510    432.27025    -9239.065   -9190.8446    2266.8184    15693.912    20.772738 
   23520    445.15275   -9240.1322   -9190.4747    1581.0917    15696.453    20.761235 
   23530    446.77991   -9240.0498   -9190.2108    1578.0605    15701.417    20.755173 
   23540     413.7133    -9236.201   -9190.0506    2571.4806    15708.835    20.755197 
   23550    418.18748   -9236.5964    -9189.947    2483.3857    15719.886    20.754761 
   23560    428.58562   -9237.6744   -9189.8651    637.98955    15734.333    20.756609 
   23570     407.2175   -9235.2138    -9189.788   -1834.8644     15749.59    20.769256 
   23580    414.37348   -9235.9239   -9189.6999   -4583.7162    15761.902    20.796782 
   23590    422.31831   -9236.7308   -9189.6206   -5672.4162    15767.441    20.841213 
   23600    420.67779   -9236.5155   -9189.5882   -4946.3603    15764.645    20.899928 
   23610    438.59782    -9238.536   -9189.6097   -3202.4727    15754.553    20.962779 
   23620    426.46123   -9237.2394    -9189.667   -974.75387    15739.794    21.020524 
   23630    422.42646   -9236.8664   -9189.7441     841.1491    15723.668    21.068032 
   23640    430.67478    -9237.878   -9189.8356    2849.2266    15708.987    21.101629 
   23650    432.27313   -9238.1732   -9189.9525     5067.575    15698.756    21.116976 
   23660    450.93834   -9240.4434   -9190.1406    5679.9507    15695.976    21.107776 
   23670    445.52673   -9240.1274   -9190.4282    5115.3103    15701.559    21.069876 
   23680    425.82912    -9238.275   -9190.7732    3228.0628    15714.599    21.005455 
   23690    425.67395   -9238.6053   -9191.1208    -160.5498    15732.182    20.930812 
   23700    413.49937   -9237.5569   -9191.4304   -2684.3179    15749.515    20.864765 
   23710    402.06722   -9236.5336   -9191.6824   -3539.3633    15762.892    20.815037 
   23720     409.8394   -9237.5987   -9191.8805   -3575.9549    15770.943    20.783559 
   23730    422.76057   -9239.2217   -9192.0621   -3523.3521    15773.537    20.772071 
   23740    411.49325   -9238.1449   -9192.2422   -3172.1894    15770.797    20.785444 
   23750    403.69351   -9237.4353   -9192.4026   -2425.0583    15763.345    20.824354 
   23760    410.85598   -9238.3585   -9192.5269   -1139.3119    15752.396    20.880769 
   23770    417.81379   -9239.2213   -9192.6135    726.73889    15739.948    20.943285 
   23780    427.84405   -9240.4197    -9192.693    2146.7681    15728.638    21.000666 
   23790    409.63433   -9238.4752   -9192.7799    3315.7678    15720.616    21.039746 
   23800    404.22287   -9237.9629   -9192.8713    4131.1183    15717.599    21.049467 
   23810    405.80111   -9238.2299   -9192.9622    3967.8364     15720.69    21.027021 
   23820    404.45576   -9238.1642   -9193.0465    2752.8298    15729.587    20.978035 
   23830    410.95615   -9238.9437   -9193.1009    802.90516     15742.49    20.918581 
   23840    408.08224   -9238.6354   -9193.1132   -1357.3403      15756.5    20.864757 
   23850    408.75018   -9238.6903   -9193.0936   -3046.9783    15768.445    20.824945 
   23860    417.13776   -9239.5929   -9193.0605   -3636.2838     15775.87    20.805182 
   23870    424.31776   -9240.3878   -9193.0545    -2977.205    15777.919    20.810483 
   23880    406.83243    -9238.463   -9193.0803   -1387.9077    15775.593    20.840288 
   23890    412.53903   -9239.1385   -9193.1191   -198.08032    15771.121    20.884445 
   23900    417.68659   -9239.7551   -9193.1615    528.93642    15766.317    20.933788 
   23910    406.12107   -9238.5065   -9193.2031    1384.0577    15762.378    20.982636 
   23920    414.37091   -9239.4555   -9193.2318     1879.649    15760.523    21.022849 
   23930    423.98912   -9240.5558   -9193.2592    1916.9343    15761.465    21.048365 
   23940    421.69073   -9240.3535   -9193.3133    1915.4442    15765.304    21.061531 
   23950    407.97296   -9238.8924   -9193.3824    1850.8935    15772.032    21.065607 
   23960    403.78124   -9238.4891   -9193.4467    1117.1948    15781.441    21.058468 
   23970    417.66067   -9240.1017    -9193.511   -83.719375    15792.469    21.038626 
   23980    418.23689   -9240.2499   -9193.5949   -1106.9483    15803.377    21.007281 
   23990    404.21793   -9238.7932   -9193.7021   -1542.9067    15812.628    20.965945 
   24000    411.88688   -9239.7581   -9193.8115   -1810.8756    15819.509    20.916179 
   24010    429.59329   -9241.8674   -9193.9456   -2112.0633    15823.579    20.860542 
   24020    414.57598   -9240.3623   -9194.1158   -1350.3224    15824.609    20.803542 
   24030    412.98272   -9240.3759    -9194.307   -1116.1716    15823.475    20.749438 
   24040    418.15844   -9241.1711   -9194.5249   -887.45781    15820.662    20.705924 
   24050    413.34382   -9240.8902   -9194.7811   -352.78963    15816.582    20.679936 
   24060    412.77419   -9241.1405   -9195.0949      322.173    15812.012    20.669458 
   24070    396.87795   -9239.7162   -9195.4439    1211.1121     15807.98    20.665368 
   24080    392.87758   -9239.6254   -9195.7993    1879.7072    15805.801    20.661624 
   24090    399.17371   -9240.6737   -9196.1453    1818.8812    15806.396    20.660888 
   24100    401.30253   -9241.2369    -9196.471    1772.9359    15809.779    20.665302 
   24110    403.31417   -9241.7637   -9196.7734    1544.0423     15815.81    20.674127 
   24120    396.35045   -9241.2498   -9197.0363    560.05774    15824.047    20.683633 
   24130    393.99409   -9241.1925   -9197.2419   -1143.5079    15833.031    20.691232 
   24140    409.34987   -9243.0721   -9197.4085   -3141.0416    15840.163    20.699324 
   24150    399.55161   -9242.1347   -9197.5641   -3343.2785    15842.718    20.713804 
   24160    379.46834   -9240.0181   -9197.6878   -2136.7068     15840.36     20.73979 
   24170    397.82126   -9242.1368   -9197.7592   -1662.4185    15834.633     20.77753 
   24180    399.02396   -9242.3021   -9197.7904     -553.121    15826.536    20.824891 
   24190    383.30515   -9240.5347   -9197.7764    755.81944    15817.657    20.871911 
   24200    404.06662   -9242.7947   -9197.7204    1140.4922    15809.811    20.904228 
   24210    397.62032   -9241.9845   -9197.6293    1685.8217      15803.8    20.917726 
   24220    387.30952   -9240.7134   -9197.5085    1644.3113    15800.294    20.914838 
   24230    395.60528   -9241.4715   -9197.3412    1342.4846     15799.28    20.902541 
   24240    396.31003   -9241.3374   -9197.1284    1008.3295    15800.302    20.885532 
   24250    407.96411   -9242.3931   -9196.8841    812.46948    15802.877    20.861823 
   24260    402.26158   -9241.4884   -9196.6155    945.28803    15806.712    20.831419 
   24270    398.23987     -9240.76   -9196.3357    1343.3964    15812.038    20.804449 
   24280    413.22766   -9242.1351   -9196.0389    1097.7435    15819.307    20.786575 
   24290      404.765   -9240.8957   -9195.7436    582.35576    15828.225    20.776655 
   24300    400.55408   -9240.1447   -9195.4623   -705.68628    15837.913    20.771806 
   24310    416.52202   -9241.6543   -9195.1906   -2133.5551    15846.471     20.76821 
   24320    398.04272   -9239.3516   -9194.9494   -1922.8248    15851.991    20.760359 
   24330    402.60443   -9239.6551    -9194.744   -1204.8414    15854.616    20.745964 
   24340    426.27103   -9242.1109   -9194.5597   -870.90201    15855.303    20.730754 
   24350    425.68923   -9241.9117   -9194.4255   -583.77002    15854.657    20.723277 
   24360    429.28721   -9242.2404   -9194.3528    -874.2743    15853.037    20.731285 
   24370    413.46672   -9240.4462   -9194.3233    -694.5527    15850.121    20.755307 
   24380    398.85046   -9238.7897   -9194.2973    -16.87954    15846.219    20.784111 
   24390    437.34052   -9243.0572   -9194.2712   -155.90379    15842.195    20.807962 
   24400     438.2372   -9243.1737   -9194.2877   -86.243344    15837.945    20.826116 
   24410     402.3569   -9239.2223   -9194.3388    679.11725    15833.694     20.84224 
   24420    417.32432   -9240.9404   -9194.3872      610.591    15830.342    20.861365 
   24430    424.62853   -9241.8058   -9194.4378    819.34225    15827.995    20.887826 
   24440    416.60043   -9240.9759   -9194.5035    555.70654    15826.821    20.917955 
   24450    420.31017   -9241.4705   -9194.5843     454.2706    15826.509    20.945615 
   24460    406.58743   -9240.0249   -9194.6695    1117.3966    15826.996    20.963331 
   24470    404.31501     -9239.85   -9194.7481    1627.9734    15829.165    20.962191 
   24480    408.59688    -9240.393   -9194.8134    1849.8221    15833.802    20.942149 
   24490    415.01505   -9241.1715   -9194.8759    1450.5494    15841.202    20.912127 
   24500    421.34953   -9241.9482    -9194.946    151.09488    15850.732    20.887022 
   24510    419.59916   -9241.8371   -9195.0302   -1451.8104    15860.505    20.877427 
   24520    409.06875   -9240.7465   -9195.1143   -2934.9178    15868.131    20.882893 
   24530    409.62405   -9240.8834   -9195.1892   -4275.0861    15871.277    20.898304 
   24540    418.06846   -9241.9188   -9195.2826   -4412.8459    15868.018    20.923762 
   24550    407.57433   -9240.8631   -9195.3976   -3065.5904    15858.178    20.965001 
   24560    406.49097   -9240.8534   -9195.5087   -1644.8362     15843.59    21.022743 
   24570    411.00111    -9241.443   -9195.5953    399.48178    15826.553    21.088686 
   24580    407.40545   -9241.1033   -9195.6566    2762.1431    15810.161     21.14934 
   24590    407.05656   -9241.1142   -9195.7064    3990.0275    15797.771    21.196503 
   24600    421.09903   -9242.7473    -9195.773    4162.6397    15791.271    21.231387 
   24610    423.65495   -9243.1391   -9195.8797    3894.5935    15791.035    21.254426 
   24620    416.25915   -9242.4646   -9196.0303    2803.9093    15796.622    21.260992 
   24630    407.93434   -9241.7016    -9196.196    756.91326    15806.391    21.249205 
   24640    414.62845   -9242.6116   -9196.3592   -2101.3969    15817.241    21.228994 
   24650    421.73269    -9243.585   -9196.5401   -5077.2429    15824.861    21.221019 
   24660    411.68703   -9242.6926   -9196.7683   -6395.3648     15824.98    21.243455 
   24670    415.00213   -9243.3486   -9197.0544   -6098.1557    15815.524     21.29943 
   24680    411.83746   -9243.3276   -9197.3865   -3800.7535    15797.004    21.382714 
   24690    397.60968   -9242.0487   -9197.6947   -374.21866    15772.806    21.484345 
   24700    397.84156    -9242.317   -9197.9372    2298.5812    15747.876    21.591833 
   24710    403.11146   -9243.1041   -9198.1364    3934.2555    15726.254    21.691243 
   24720    416.56815   -9244.8213   -9198.3525    4343.6167    15710.357    21.772384 
   24730    404.20016     -9243.69   -9198.6009    4833.9699    15701.021    21.836449 
   24740    399.92168   -9243.4717   -9198.8598    4737.9428    15698.842    21.887813 
   24750    409.20417   -9244.7542   -9199.1068    3529.0988    15703.646    21.928807 
   24760    414.78407   -9245.6101   -9199.3403    1516.8407    15713.649    21.961999 
   24770    403.92385   -9244.6119   -9199.5536   -84.029732    15726.055     21.99098 
   24780    396.98861   -9244.0232   -9199.7385   -2098.3323    15738.294    22.020671 
   24790    398.40866   -9244.3268   -9199.8837   -4259.9466    15747.374    22.059299 
   24800    400.73305   -9244.7014    -9199.999   -5509.0889    15750.184    22.114197 
   24810    399.23094   -9244.6464   -9200.1116   -5137.9235    15744.889    22.188441 
   24820    393.04393   -9244.0559   -9200.2112   -3465.3802    15731.991    22.281125 
   24830    406.77604   -9245.6648   -9200.2884   -1645.4776    15713.845    22.387718 
   24840    399.26398   -9244.8711   -9200.3326    650.56072    15693.297    22.500034 
   24850    383.30507   -9243.0696   -9200.3114    2901.4873     15673.74    22.603173 
   24860    398.68093   -9244.6906   -9200.2172    3791.7441    15658.337    22.680389 
   24870    408.94388   -9245.6975   -9200.0792    4131.0449    15648.556    22.724163 
   24880    403.22797   -9244.9141   -9199.9334    4202.5344    15644.914    22.734969 
   24890    403.86937   -9244.8241   -9199.7719    3537.7366    15647.448    22.717063 
   24900    415.36758   -9245.9097   -9199.5748     2104.236    15655.163    22.678758 
   24910    404.24312   -9244.4204   -9199.3264    547.97487    15666.045    22.630449 
   24920    394.84271   -9243.0518   -9199.0065   -1097.3498    15677.779    22.582221 
   24930    405.45356   -9243.8089     -9198.58   -3124.1758    15687.835    22.547069 
   24940    414.68645   -9244.3161   -9198.0572   -4903.0771    15693.242     22.53866 
   24950    413.60527   -9243.6383      -9197.5    -4986.929    15691.521    22.566246 
   24960    415.03254   -9243.2559   -9196.9584   -3580.9872    15682.514     22.62847 
   24970    406.53905   -9241.8089   -9196.4588   -1455.6388    15668.236    22.713404 
   24980    422.19995   -9243.1122   -9196.0152     791.2133    15651.775    22.805221 
   24990    428.85168   -9243.4821    -9195.643    2982.3554    15636.453    22.890851 
   25000    415.66871   -9241.7369   -9195.3684    4637.3878    15625.504    22.957947 
Loop time of 13754.8 on 16 procs for 20000 steps with 864 atoms

Performance: 0.126 ns/day, 191.039 hours/ns, 1.454 timesteps/s
95.8% CPU use with 16 MPI tasks x 1 OpenMP threads

MPI task timing breakdown:
Section |  min time  |  avg time  |  max time  |%varavg| %total
---------------------------------------------------------------
Pair    | 1982.5     | 7896.2     | 13462      |4543.9 | 57.41
Bond    | 0.0018408  | 0.0045662  | 0.0089719  |   2.9 |  0.00
Neigh   | 0.122      | 0.38161    | 0.6319     |  29.3 |  0.00
Comm    | 19.394     | 4698.1     | 9944.2     |4811.2 | 34.16
Output  | 1.232      | 1.2511     | 1.5227     |   6.3 |  0.01
Modify  | 258.22     | 1158.8     | 4264.9     |3971.2 |  8.42
Other   |            | 0.09652    |            |       |  0.00

Nlocal:        54.0000 ave          87 max          19 min
Histogram: 2 3 1 0 0 2 2 2 2 2
Nghost:        577.438 ave         824 max         351 min
Histogram: 2 2 0 2 1 4 3 0 0 2
Neighs:         0.00000 ave           0 max           0 min
Histogram: 16 0 0 0 0 0 0 0 0 0
FullNghs:      3169.62 ave        5954 max         477 min
Histogram: 5 1 0 0 0 3 2 1 1 3

Total # of neighbors = 50714
Ave neighs/atom = 58.696759
Ave special neighs/atom = 0.0000000
Neighbor list builds = 2000
Dangerous builds = 2000
Total wall time: 4:49:30
