LAMMPS (2 Aug 2023)
OMP_NUM_THREADS environment is not set. Defaulting to 1 thread. (src/comm.cpp:98)
  using 1 OpenMP thread(s) per MPI task
read_restart    ../structure.ready
Reading restart file ...
  restart file = 2 Aug 2023, LAMMPS = 2 Aug 2023
  restoring atom style full from restart
  orthogonal box = (-0.38706367 -0.34859865 -23.970409) to (20.724042 20.685577 84.981345)
  1 by 1 by 1 MPI processor grid
  pair style chgnet/gpu stores no restart info
  1536 atoms
Finding 1-2 1-3 1-4 neighbors ...
  special bond factors lj:    0        0        0       
  special bond factors coul:  0        0        0       
     0 = max # of 1-2 neighbors
     0 = max # of 1-3 neighbors
     0 = max # of 1-4 neighbors
     1 = max # of special neighbors
  special bonds CPU = 0.003 seconds
  read_restart CPU = 0.088 seconds

pair_style      chgnet/gpu /ocean/projects/cts180021p/wuziqi/clease/lammps-ASC/potentials/CHGNET
pair_coeff      * * MPtrj-efsm Cl Li

neighbor        0.3 bin
neigh_modify    delay 10

timestep	    0.001
compute	        msd all msd
Resetting peratom fix info from restart file:
  fix style: STORE/ATOM, fix ID: msd_COMPUTE_STORE
thermo_style	custom step temp pe etotal press vol c_msd[4]
thermo	        10
dump	        1 all custom 10 xyz-mix.dump type id x y z
dump	        2 all custom 10 force-mix.dump type id fx fy fz

fix             2 gLiquid npt temp 1500 450.0 $(100.0*dt) z 1.01325 1.01325 $(1000.0*dt) couple none
fix             2 gLiquid npt temp 1500 450.0 0.10000000000000000555 z 1.01325 1.01325 $(1000.0*dt) couple none
fix             2 gLiquid npt temp 1500 450.0 0.10000000000000000555 z 1.01325 1.01325 1 couple none
run             10000
All restart file peratom fix info was re-assigned
Neighbor list info ...
  update: every = 1 steps, delay = 10 steps, check = yes
  max neighbors/atom: 2000, page size: 100000
  master list distance cutoff = 6.3
  ghost atom cutoff = 6.3
  binsize = 3.15, bins = 7 7 35
  1 neighbor lists, perpetual/occasional/extra = 1 0 0
  (1) pair chgnet/gpu, perpetual
      attributes: full, newton on
      pair build: full/bin
      stencil: full/bin/3d
      bin: standard
Per MPI rank memory allocation (min/avg/max) = 6.575 | 6.575 | 6.575 Mbytes
   Step          Temp          PotEng         TotEng         Press          Volume        c_msd[4]   
     20000   1521.5156     -5661.2351     -5359.3446     -7767.3981      48380.541      223.43501    
     20010   1539.1858     -5664.8115     -5359.415      -7909.2373      48380.82       223.68597    
     20020   1530.7947     -5663.3331     -5359.6015     -7978.3867      48381.535      223.94994    
     20030   1522.4077     -5661.973      -5359.9055     -7872.7886      48382.571      224.22608    
     20040   1502.7141     -5658.4504     -5360.2904     -7567.1215      48384.128      224.5177     
     20050   1477.5689     -5653.8882     -5360.7173     -7576.2029      48386.606      224.83229    
     20060   1494.0265     -5657.5708     -5361.1345     -8287.7752      48390.144      225.17364    
     20070   1491.0611     -5657.4086     -5361.5607     -8566.9194      48394.178      225.55309    
     20080   1468.1886     -5653.2942     -5361.9846     -7974.7137      48398.395      225.93099    
     20090   1484.3692     -5656.9058     -5362.3857     -7688.1154      48403.205      226.28199    
     20100   1508.5071     -5662.1243     -5362.8149     -8115.1981      48408.753      226.60291    
     20110   1506.2105     -5662.1993     -5363.3456     -8558.4253      48414.916      226.92156    
     20120   1530.9817     -5667.8115     -5364.0428     -8773.7146      48421.532      227.25382    
     20130   1526.3671     -5667.8357     -5364.9826     -8411.6917      48428.674      227.61193    
     20140   1507.4017     -5665.3015     -5366.2114     -7950.027       48436.646      228.00742    
     20150   1500.0027     -5665.2913     -5367.6692     -7620.1022      48445.489      228.43431    
     20160   1483.2641     -5663.6345     -5369.3337     -7473.9642      48454.943      228.87986    
     20170   1481.3403     -5665.0353     -5371.1161     -7787.437       48464.87       229.32176    
     20180   1500.2911     -5670.6768     -5372.9975     -8560.3952      48475.323      229.73772    
     20190   1490.1223     -5670.5841     -5374.9225     -8755.4715      48486.21       230.13583    
     20200   1492.7055     -5672.9637     -5376.7896     -8760.2094      48497.472      230.54881    
     20210   1465.9605     -5669.3042     -5378.4366     -8393.9892      48508.882      230.96879    
     20220   1446.2192     -5666.7246     -5379.774      -8212.912       48520.084      231.42307    
     20230   1468.4557     -5672.2072     -5380.8445     -8468.6729      48530.868      231.91106    
     20240   1454.5607     -5670.2611     -5381.6554     -8863.7715      48541.529      232.36531    
     20250   1442.0343     -5668.381      -5382.2607     -9362.2094      48552.321      232.75431    
     20260   1458.6228     -5672.0874     -5382.6757     -10017.104      48562.968      233.11901    
     20270   1442.5967     -5669.1724     -5382.9405     -10075.632      48573.005      233.4636     
     20280   1430.0085     -5666.829      -5383.0948     -9667.9625      48582.364      233.7788     
     20290   1418.2162     -5664.4918     -5383.0974     -9218.6028      48591.112      234.09916    
     20300   1422.2934     -5665.1426     -5382.9392     -8897.2962      48599.172      234.41472    
     20310   1449.9054     -5670.3179     -5382.6359     -8736.6297      48606.641      234.72484    
     20320   1450.5802     -5670.0923     -5382.2764     -8142.0391      48613.597      235.06039    
     20330   1441.0835     -5667.8243     -5381.8927     -7904.7182      48620.386      235.40935    
     20340   1443.8249     -5667.925      -5381.4495     -8172.284       48627.508      235.75487    
     20350   1439.2706     -5666.5302     -5380.9582     -8290.6913      48635.452      236.09971    
     20360   1458.1632     -5669.7188     -5380.3983     -8839.7218      48644.4        236.46914    
     20370   1474.7552     -5672.4291     -5379.8165     -9275.5809      48653.734      236.87079    
     20380   1450.5923     -5667.1011     -5379.2828     -8952.5301      48662.838      237.28334    
     20390   1450.4676     -5666.5276     -5378.734      -8818.665       48671.842      237.68291    
     20400   1444.614      -5664.7888     -5378.1567     -8633.4327      48680.982      238.05649    
     20410   1449.8333     -5665.2144     -5377.5467     -8739.1783      48690.455      238.40714    
     20420   1444.6358     -5663.5133     -5376.8769     -8811.0108      48700.302      238.73765    
     20430   1465.5558     -5666.9985     -5376.2113     -9212.0676      48710.616      239.0528     
     20440   1458.9921     -5665.0214     -5375.5364     -8894.5287      48721.361      239.34368    
     20450   1453.318      -5663.2496     -5374.8905     -8291.4317      48732.464      239.59901    
     20460   1459.2616     -5663.7858     -5374.2474     -8150.7897      48744.149      239.87431    
     20470   1468.6952     -5665.0236     -5373.6134     -8622.9004      48756.551      240.20239    
     20480   1471.7573     -5665.0448     -5373.0271     -9162.3766      48769.049      240.5565     
     20490   1467.4709     -5663.6649     -5372.4977     -9457.7224      48781.125      240.93083    
     20500   1464.7979     -5662.6604     -5372.0235     -9510.8915      48793          241.33388    
     20510   1459.0561     -5661.1029     -5371.6053     -9524.1823      48805.262      241.74546    
     20520   1448.6058     -5658.5995     -5371.1753     -9636.0225      48817.606      242.12844    
     20530   1423.9998     -5653.2773     -5370.7354     -9686.5108      48829.317      242.47058    
     20540   1441.3248     -5656.2059     -5370.2265     -9830.8702      48840.314      242.79379    
     20550   1452.9219     -5657.948      -5369.6675     -9568.4786      48851.036      243.11289    
     20560   1426.3225     -5652.0601     -5369.0572     -8472.5488      48862.306      243.45659    
     20570   1463.0436     -5658.6661     -5368.3773     -8080.634       48874.732      243.82359    
     20580   1488.8865     -5663.0574     -5367.641      -8127.1227      48888.385      244.20787    
     20590   1495.8204     -5663.7316     -5366.9394     -8177.3413      48903.284      244.63209    
     20600   1503.0655     -5664.5995     -5366.3698     -7874.1436      48919.543      245.12561    
     20610   1489.537      -5661.4801     -5365.9346     -7354.7234      48936.857      245.69963    
     20620   1486.0814     -5660.4935     -5365.6337     -7297.5696      48954.954      246.31104    
     20630   1524.7869     -5668.0463     -5365.5067     -7943.5679      48973.538      246.9082     
     20640   1515.9873     -5666.488      -5365.6944     -8288.5265      48992.315      247.49114    
     20650   1475.6113     -5659.0291     -5366.2466     -7970.3916      49011.238      248.08421    
     20660   1468.1655     -5658.4252     -5367.1201     -8040.389       49030.686      248.69855    
     20670   1473.0624     -5660.5887     -5368.3121     -8496.5449      49051.233      249.33348    
     20680   1462.8513     -5660.0695     -5369.8188     -8649.5833      49072.655      249.94163    
     20690   1434.7873     -5656.2297     -5371.5474     -8218.9648      49094.52       250.52463    
     20700   1461.0729     -5663.3342     -5373.4364     -8209.9842      49117.055      251.10538    
     20710   1448.9059     -5662.8739     -5375.3902     -8041.2073      49140.209      251.71059    
     20720   1431.6235     -5661.345      -5377.2904     -8234.1876      49163.752      252.32413    
     20730   1429.6058     -5662.6699     -5379.0156     -8910.1748      49187.412      252.92157    
     20740   1417.5287     -5661.7716     -5380.5136     -9366.7334      49210.69       253.53173    
     20750   1383.6478     -5656.3026     -5381.7671     -8926.7635      49233.198      254.18126    
     20760   1366.0155     -5653.7212     -5382.6842     -8714.4024      49255.118      254.85715    
     20770   1407.1744     -5662.5732     -5383.3697     -9197.444       49276.684      255.53094    
     20780   1389.581      -5659.6018     -5383.889      -9010.269       49298.005      256.19397    
     20790   1373.9858     -5656.9153     -5384.2968     -8823.2453      49319.271      256.83426    
     20800   1384.2052     -5659.1825     -5384.5364     -9036.0345      49340.623      257.44177    
     20810   1383.3526     -5659.1107     -5384.6338     -9070.4705      49361.904      258.02558    
     20820   1398.3516     -5662.051      -5384.598      -8932.2168      49382.818      258.6058     
     20830   1411.6626     -5664.5999     -5384.5058     -8714.941       49403.373      259.18845    
     20840   1452.9975     -5672.7744     -5384.4789     -8579.757       49423.877      259.7845     
     20850   1427.2577     -5667.7262     -5384.5378     -8041.409       49445.224      260.41901    
     20860   1438.6966     -5670.1692     -5384.7112     -8105.622       49468.525      261.08119    
     20870   1461.1271     -5674.9054     -5384.9969     -8434.4203      49493.592      261.72196    
     20880   1419.3117     -5667.0458     -5385.434      -8314.6512      49519.519      262.32851    
     20890   1356.5208     -5655.0498     -5385.8966     -8131.1214      49546.028      262.95595    
     20900   1359.0286     -5655.8895     -5386.2388     -8783.6691      49572.948      263.6394     
     20910   1355.9358     -5655.4102     -5386.3731     -9221.2476      49599.431      264.37424    
     20920   1384.0984     -5660.9919     -5386.367      -9581.4268      49624.861      265.10782    
     20930   1387.6732     -5661.5995     -5386.2653     -9476.1636      49649.138      265.77513    
     20940   1402.1035     -5664.3398     -5386.1424     -9468.0791      49672.502      266.37518    
     20950   1402.1286     -5664.1912     -5385.9888     -9479.0038      49694.638      266.95019    
     20960   1392.5456     -5662.1243     -5385.8233     -9543.899       49715.257      267.50878    
     20970   1387.1874     -5660.863      -5385.6252     -9837.6049      49734.601      268.03739    
     20980   1369.2053     -5657.0464     -5385.3764     -10106.75       49752.975      268.50584    
     20990   1333.563      -5649.6105     -5385.0125     -9654.8944      49770.261      268.87726    
     21000   1363.3761     -5654.9685     -5384.4552     -9503.5892      49786.425      269.16355    
     21010   1398.98       -5661.2399     -5383.6622     -9538.5959      49801.655      269.42654    
     21020   1432.0317     -5666.9407     -5382.8051     -9607.0816      49816.269      269.72919    
     21030   1404.931      -5660.7107     -5381.9523     -9045.0453      49830.524      270.10277    
     21040   1407.7763     -5660.4448     -5381.1219     -9060.1962      49844.854      270.57425    
     21050   1440.934      -5666.1702     -5380.2682     -9390.3558      49859.041      271.10627    
     21060   1425.9708     -5662.4414     -5379.5084     -9083.7036      49872.724      271.62286    
     21070   1422.3394     -5661.0406     -5378.8281     -8909.5963      49886.298      272.08478    
     21080   1427.0678     -5661.397      -5378.2463     -9113.5452      49900.167      272.50639    
     21090   1394.5342     -5654.4126     -5377.717      -9224.6679      49914.277      272.88817    
     21100   1405.6781     -5656.1298     -5377.2231     -9605.3177      49928.006      273.24204    
     21110   1398.0454     -5654.1057     -5376.7135     -9657.6167      49940.707      273.57897    
     21120   1405.0586     -5655.0201     -5376.2364     -9539.6787      49952.396      273.92464    
     21130   1435.5558     -5660.632      -5375.7971     -9501.4161      49963.164      274.26786    
     21140   1445.3839     -5662.2847     -5375.4998     -9285.3622      49973.105      274.59026    
     21150   1420.0936     -5657.1672     -5375.4003     -8775.4108      49982.836      274.92372    
     21160   1453.0157     -5663.8271     -5375.528      -8882.8498      49993.186      275.32464    
     21170   1432.6468     -5660.1599     -5375.9023     -8722.8348      50004.024      275.76877    
     21180   1407.09       -5655.7405     -5376.5537     -8716.5472      50014.959      276.18628    
     21190   1408.5493     -5656.9032     -5377.4268     -9019.6312      50025.636      276.51669    
     21200   1411.8156     -5658.679      -5378.5545     -9275.444       50035.3        276.75995    
     21210   1396.7656     -5657.0585     -5379.9202     -9359.8759      50043.434      276.97467    
     21220   1383.0165     -5655.8947     -5381.4844     -9821.7044      50050.127      277.21978    
     21230   1359.5702     -5652.8635     -5383.1053     -10320.721      50055.237      277.484      
     21240   1357.4619     -5654.0145     -5384.6746     -10591.071      50058.295      277.72117    
     21250   1354.6479     -5654.9271     -5386.1456     -10436.462      50059.023      277.93307    
     21260   1360.3877     -5657.3661     -5387.4457     -10264.906      50057.514      278.12968    
     21270   1389.2571     -5664.2882     -5388.6397     -10290.972      50054.076      278.29181    
     21280   1397.1999     -5667.0139     -5389.7894     -10005.221      50049.205      278.38004    
     21290   1398.1942     -5668.3198     -5390.8981     -9642.7263      50043.848      278.37267    
     21300   1425.5491     -5674.8787     -5392.0293     -9848.1262      50038.563      278.32985    
     21310   1413.1848     -5673.6097     -5393.2136     -9744.4054      50032.855      278.30014    
     21320   1376.0039     -5667.3787     -5394.3598     -9567.7404      50026.487      278.32046    
     21330   1358.2395     -5664.8848     -5395.3906     -9474.9213      50019.425      278.38254    
     21340   1328.1676     -5659.7487     -5396.2212     -9013.5464      50011.652      278.43897    
     21350   1342.3854     -5663.2192     -5396.8708     -9238.325       50003.532      278.46203    
     21360   1345.1667     -5664.2761     -5397.3758     -9355.1899      49995.225      278.43588    
     21370   1357.1512     -5667.0923     -5397.814      -9554.5139      49987.095      278.38489    
     21380   1343.7735     -5664.8046     -5398.1807     -9618.9645      49979.092      278.35286    
     21390   1337.6023     -5663.9077     -5398.5083     -9633.1431      49970.762      278.32869    
     21400   1339.6902     -5664.5614     -5398.7477     -9630.7482      49962.085      278.27975    
     21410   1361.6088     -5669.109      -5398.9463     -10072.226      49953.036      278.1873     
     21420   1366.7573     -5670.36       -5399.1758     -10216.641      49942.903      278.05088    
     21430   1371.6093     -5671.6095     -5399.4626     -10194.524      49931.158      277.90746    
     21440   1392.1142     -5676.0458     -5399.8304     -9949.7215      49917.85       277.73337    
     21450   1400.737      -5678.2654     -5400.3391     -9529.0703      49903.401      277.52173    
     21460   1400.071      -5678.8832     -5401.089      -9433.0271      49888.151      277.29691    
     21470   1360.3721     -5671.8644     -5401.9471     -9393.5778      49872.14       277.05553    
     21480   1366.9506     -5674.1316     -5402.909      -9950.7998      49855.276      276.79165    
     21490   1359.0228     -5673.5728     -5403.9232     -10451.74       49837.066      276.50926    
     21500   1335.71       -5669.993      -5404.9691     -10456.501      49817.028      276.19598    
     21510   1323.7907     -5668.6208     -5405.9618     -10519.05       49795.1        275.84756    
     21520   1319.9747     -5668.7589     -5406.857      -10324.029      49771.521      275.45461    
     21530   1318.8308     -5669.3027     -5407.6278     -10005.671      49746.758      275.01076    
     21540   1327.4935     -5671.6805     -5408.2868     -9850.2873      49721.324      274.54698    
     21550   1323.8215     -5671.5385     -5408.8733     -9849.6283      49695.494      274.11079    
     21560   1339.0435     -5675.0966     -5409.4112     -10004.888      49669.368      273.70699    
     21570   1352.9781     -5678.3778     -5409.9276     -10216.735      49642.735      273.3336     
     21580   1355.3626     -5679.4398     -5410.5165     -10497.882      49615.092      272.98444    
     21590   1345.4912     -5678.1079     -5411.1432     -10531.654      49586.265      272.6155     
     21600   1342.5628     -5678.187      -5411.8033     -10362.588      49556.44       272.17421    
     21610   1343.2825     -5678.9912     -5412.4647     -10047.715      49525.862      271.68528    
     21620   1343.4939     -5679.7123     -5413.1438     -9910.5559      49494.646      271.20696    
     21630   1347.8609     -5681.2804     -5413.8455     -9906.0916      49462.793      270.77267    
     21640   1352.1281     -5682.8862     -5414.6047     -9934.0915      49430.312      270.34254    
     21650   1351.9594     -5683.6674     -5415.4193     -9850.8027      49397.036      269.88316    
     21660   1311.6938     -5676.4904     -5416.2315     -9559.6223      49362.916      269.40734    
     21670   1304.3185     -5675.7568     -5416.9614     -9586.8419      49328.155      268.91713    
     21680   1271.1425     -5669.7539     -5417.541      -9540.22        49292.835      268.41858    
     21690   1278.302      -5671.5707     -5417.9373     -10017.632      49256.727      267.91065    
     21700   1298.7294     -5675.8502     -5418.1637     -10532.124      49219.515      267.37181    
     21710   1302.7503     -5676.7815     -5418.2972     -10584.063      49181.411      266.79868    
     21720   1335.1952     -5683.3044     -5418.3826     -10479.073      49142.806      266.18151    
     21730   1328.2253     -5682.0275     -5418.4885     -9937.4142      49104.001      265.52212    
     21740   1326.067      -5681.7048     -5418.5942     -9392.8292      49065.376      264.89449    
     21750   1331.3588     -5682.8998     -5418.7391     -9346.9889      49027.346      264.34218    
     21760   1329.6483     -5682.7332     -5418.9119     -9478.4685      48989.924      263.80116    
     21770   1323.2118     -5681.6759     -5419.1317     -9390.256       48952.874      263.22091    
     21780   1311.9947     -5679.6482     -5419.3296     -9358.1104      48916.244      262.61545    
     21790   1323.833      -5682.1923     -5419.5248     -9371.2046      48880.466      262.00388    
     21800   1329.6221     -5683.5498     -5419.7337     -9175.6521      48845.747      261.43824    
     21810   1308.0331     -5679.4746     -5419.9421     -8937.863       48812.086      260.93987    
     21820   1328.5684     -5683.7483     -5420.1413     -9213.0874      48779.633      260.46717    
     21830   1337.3604     -5685.7148     -5420.3634     -9614.8841      48748.5        259.98961    
     21840   1304.4583     -5679.4775     -5420.6543     -9478.1128      48718.337      259.51405    
     21850   1297.2433     -5678.2969     -5420.9052     -9500.7883      48689.125      259.06735    
     21860   1271.8581     -5673.4189     -5421.0641     -9069.8119      48661.191      258.67288    
     21870   1281.4305     -5675.3481     -5421.094      -8893.1906      48634.902      258.32544    
     21880   1331.2657     -5685.234      -5421.0918     -9169.3055      48610.181      257.9991     
     21890   1318.7828     -5682.7961     -5421.1307     -8754.9066      48586.517      257.69979    
     21900   1319.7414     -5683.1115     -5421.2559     -8491.245       48564.151      257.43746    
     21910   1312.3189     -5681.7935     -5421.4106     -8358.7248      48543.357      257.21808    
     21920   1330.7328     -5685.6702     -5421.6337     -8666.6887      48523.912      257.00482    
     21930   1362.1699     -5692.2404     -5421.9663     -9301.1052      48505.297      256.7868     
     21940   1378.2038     -5695.9702     -5422.5148     -9881.3837      48487.109      256.58101    
     21950   1364.0031     -5693.9491     -5423.3114     -10066.223      48469.05       256.37643    
     21960   1323.9438     -5686.957      -5424.2676     -9964.0184      48450.716      256.16578    
     21970   1309.2542     -5685.0388     -5425.264      -9830.4711      48431.976      255.97503    
     21980   1297.1628     -5683.5813     -5426.2056     -9637.7716      48412.964      255.8273     
     21990   1304.191      -5685.8445     -5427.0743     -9711.1945      48393.736      255.71983    
     22000   1299.4758     -5685.728      -5427.8934     -9708.1902      48374.245      255.59148    
     22010   1290.5225     -5684.71       -5428.6518     -9538.8928      48354.863      255.42889    
     22020   1278.4446     -5682.9507     -5429.289      -9429.4122      48336.19       255.26042    
     22030   1291.5169     -5686.1257     -5429.8703     -9612.0168      48318.228      255.09159    
     22040   1263.9228     -5681.1321     -5430.3517     -9685.05        48300.761      254.9087     
     22050   1261.1713     -5680.9666     -5430.7321     -9715.3589      48283.728      254.69684    
     22060   1276.9553     -5684.3672     -5431.001      -9722.5161      48266.935      254.45061    
     22070   1307.1771     -5690.5898     -5431.2272     -9625.8836      48250.497      254.20727    
     22080   1330.8119     -5695.6033     -5431.5511     -9423.1545      48234.542      253.99263    
     22090   1285.4776     -5687.0149     -5431.9577     -8710.0478      48218.814      253.80208    
     22100   1284.4158     -5687.2412     -5432.3947     -8876.4799      48203.492      253.62223    
     22110   1292.7252     -5689.3074     -5432.8122     -9490.1732      48188.393      253.47832    
     22120   1290.0491     -5689.2264     -5433.2622     -10004.594      48172.809      253.37583    
     22130   1292.5358     -5690.2094     -5433.7517     -10355.386      48156.117      253.25159    
     22140   1296.3643     -5691.498      -5434.2808     -10557.756      48138.148      253.08945    
     22150   1285.2064     -5689.8424     -5434.8391     -10433.641      48119.014      252.88833    
     22160   1264.7189     -5686.3495     -5435.4111     -10004.943      48098.844      252.64857    
     22170   1267.0764     -5687.3591     -5435.953      -9585.2314      48077.809      252.39171    
     22180   1265.9433     -5687.5994     -5436.4181     -9386.578       48056.286      252.12033    
     22190   1257.968      -5686.4326     -5436.8338     -9075.9906      48034.664      251.84761    
     22200   1268.6067     -5688.8998     -5437.19       -9097.0689      48013.446      251.59965    
     22210   1299.1037     -5695.3191     -5437.5583     -9347.3704      47992.83       251.37731    
     22220   1288.0591     -5693.5536     -5437.9842     -9250.5288      47972.718      251.17388    
     22230   1291.7957     -5694.8188     -5438.5081     -9476.1001      47953.143      250.99415    
     22240   1281.4153     -5693.3438     -5439.0926     -9744.2124      47933.941      250.84702    
     22250   1262.1791     -5690.157      -5439.7226     -9668.1223      47914.763      250.71943    
     22260   1243.6865     -5687.0889     -5440.3236     -9809.5441      47895.524      250.59533    
     22270   1252.4997     -5689.3821     -5440.8682     -10453.429      47875.887      250.46281    
     22280   1259.6756     -5691.3142     -5441.3765     -10902.019      47855.281      250.30954    
     22290   1233.4332     -5686.5483     -5441.8175     -10494.173      47833.559      250.13205    
     22300   1237.916      -5687.803      -5442.1827     -9952.5771      47811.157      249.93739    
     22310   1258.7223     -5692.2195     -5442.4709     -9737.5395      47788.643      249.73044    
     22320   1259.4766     -5692.6483     -5442.7501     -9507.9038      47766.09       249.50668    
     22330   1243.0868     -5689.6659     -5443.0197     -9141.1653      47743.401      249.27341    
     22340   1257.1843     -5692.7168     -5443.2734     -9303.7413      47720.433      249.00882    
     22350   1273.7504     -5696.2603     -5443.5299     -9498.7937      47697.08       248.69273    
     22360   1238.7804     -5689.6271     -5443.8353     -9176.0461      47673.621      248.31409    
     22370   1217.1377     -5685.5863     -5444.0887     -9249.397       47650.309      247.88414    
     22380   1252.9341     -5692.8647     -5444.2647     -9860.4584      47626.804      247.44699    
     22390   1269.4001     -5696.3262     -5444.459      -10006.216      47602.558      247.03719    
     22400   1260.9524     -5694.9214     -5444.7304     -9589.8075      47577.492      246.64211    
     22410   1272.1593     -5697.4893     -5445.0746     -9524.273       47551.989      246.27442    
     22420   1295.8459     -5702.6792     -5445.5648     -9826.828       47526.336      245.95883    
     22430   1257.0931     -5695.6849     -5446.2597     -9543.9257      47500.681      245.68578    
     22440   1265.4194     -5698.2656     -5447.1883     -9884.2229      47475.321      245.42251    
     22450   1283.4116     -5703.1377     -5448.4905     -10363.176      47449.904      245.13177    
     22460   1260.2345     -5700.3325     -5450.2839     -10208.907      47423.887      244.80829    
     22470   1221.2726     -5694.7943     -5452.4763     -10021.39       47397.384      244.47757    
     22480   1251.9803     -5703.3644     -5454.9536     -10727.003      47370.757      244.18572    
     22490   1241.61       -5703.8093     -5457.4561     -10630.989      47343.721      243.92982    
     22500   1230.9324     -5703.865      -5459.6304     -10154.165      47316.124      243.66502    
     22510   1246.3927     -5708.6298     -5461.3276     -10073.738      47288.28       243.34638    
     22520   1231.4593     -5706.8939     -5462.5547     -9873.1998      47260.608      242.95114    
     22530   1234.8587     -5708.462      -5463.4484     -9832.6638      47233.278      242.49145    
     22540   1220.7201     -5706.312      -5464.1037     -9701.2209      47206.311      242.03694    
     22550   1220.4339     -5706.7544     -5464.6028     -9976.9209      47179.84       241.66874    
     22560   1208.0135     -5704.66       -5464.9728     -10107.109      47153.842      241.40266    
     22570   1194.8968     -5702.328      -5465.2434     -10236.605      47128.13       241.22515    
     22580   1201.7413     -5703.8046     -5465.3619     -10526.852      47102.497      241.12155    
     22590   1220.8704     -5707.6593     -5465.4211     -10774.282      47076.269      241.04328    
     22600   1217.8286     -5707.088      -5465.4534     -10544.445      47048.849      240.93636    
     22610   1234.4189     -5710.392      -5465.4656     -10660.43       47020.242      240.76032    
     22620   1241.1332     -5711.7729     -5465.5143     -10563.846      46990.644      240.5261     
     22630   1208.9556     -5705.4309     -5465.5568     -9904.8921      46960.574      240.26729    
     22640   1198.5209     -5703.3662     -5465.5625     -9373.2309      46930.743      239.98452    
     22650   1185.9582     -5700.7727     -5465.4616     -9202.5073      46901.496      239.65808    
     22660   1189.4102     -5701.2587     -5465.2626     -9385.7894      46872.674      239.28988    
     22670   1184.4452     -5699.9531     -5464.9422     -9420.0843      46843.911      238.90445    
     22680   1201.6194     -5702.9183     -5464.4998     -9352.4448      46815.425      238.51164    
     22690   1200.4363     -5702.1379     -5463.9542     -8877.4176      46787.582      238.11528    
     22700   1187.2391     -5698.8977     -5463.3325     -8303.6816      46760.384      237.73779    
     22710   1197.1623     -5700.1399     -5462.6057     -8690.0787      46733.914      237.39569    
     22720   1216.4494     -5703.2032     -5461.8423     -9426.0641      46707.699      237.07962    
     22730   1211.486      -5701.4202     -5461.044      -9830.1195      46681.067      236.80021    
     22740   1230.0027     -5704.3239     -5460.2737     -10044.208      46653.807      236.51552    
     22750   1232.6205     -5704.1184     -5459.5488     -10042.415      46625.786      236.17777    
     22760   1237.7194     -5704.5081     -5458.9268     -9824.6319      46596.915      235.81701    
     22770   1249.571      -5706.3351     -5458.4023     -9429.2157      46567.338      235.46963    
     22780   1242.2302     -5704.4685     -5457.9922     -9006.0632      46537.476      235.16188    
     22790   1244.2152     -5704.5857     -5457.7156     -9066.4216      46507.767      234.89709    
     22800   1238.0871     -5703.2131     -5457.5589     -9119.4013      46478.288      234.65211    
     22810   1233.5383     -5702.2749     -5457.5232     -8917.9793      46449.066      234.41037    
     22820   1239.2125     -5703.4688     -5457.5912     -8669.6679      46420.177      234.16771    
     22830   1259.2247     -5707.6501     -5457.8019     -8792.3983      46391.613      233.92881    
     22840   1279.4217     -5712.1165     -5458.2609     -9016.1459      46363.301      233.66581    
     22850   1247.6708     -5706.5262     -5458.9705     -8741.7908      46335.255      233.38779    
     22860   1239.4077     -5705.811      -5459.8948     -8975.6947      46307.544      233.14965    
     22870   1213.8201     -5701.7941     -5460.9548     -9042.9429      46280.078      232.95446    
     22880   1209.6415     -5702.0717     -5462.0615     -8801.8569      46253.05       232.76438    
     22890   1218.8855     -5705.0541     -5463.2097     -8731.9635      46226.878      232.55002    
     22900   1223.0864     -5707.0562     -5464.3783     -8511.6427      46201.846      232.31133    
     22910   1232.1521     -5710.092      -5465.6154     -8517.6895      46177.826      232.05983    
     22920   1209.2876     -5706.7734     -5466.8335     -8554.0202      46154.543      231.8081     
     22930   1209.1979     -5707.9006     -5467.9785     -8970.7725      46132.031      231.56967    
     22940   1205.3159     -5708.1742     -5469.0223     -9310.2543      46110.349      231.3572     
     22950   1203.9931     -5708.851      -5469.9615     -9464.013       46089.564      231.16624    
     22960   1199.0698     -5708.7037     -5470.7911     -9451.1772      46069.589      230.98192    
     22970   1209.442      -5711.51       -5471.5394     -9553.8769      46050.374      230.78836    
     22980   1207.099      -5711.7499     -5472.2441     -9558.5844      46031.684      230.56908    
     22990   1207.7505     -5712.5427     -5472.9077     -9495.1931      46013.478      230.31111    
     23000   1232.6222     -5718.1483     -5473.5784     -9547.1925      45995.988      230.00583    
     23010   1232.2628     -5718.8203     -5474.3217     -9318.2971      45979.195      229.67609    
     23020   1217.3957     -5716.6853     -5475.1366     -9046.4953      45962.954      229.39557    
     23030   1215.0642     -5717.0698     -5475.9837     -9124.3792      45947.263      229.18657    
     23040   1210.9193     -5717.1017     -5476.838      -9315.5627      45932.18       229.02796    
     23050   1180.4705     -5711.9136     -5477.6913     -9222.5696      45917.719      228.89096    
     23060   1171.0211     -5710.7963     -5478.4489     -9134.4242      45903.822      228.74807    
     23070   1179.1275     -5713.0807     -5479.1249     -9173.8533      45890.299      228.59638    
     23080   1176.6119     -5713.2034     -5479.7467     -9050.2072      45877.108      228.43376    
     23090   1179.0498     -5714.261      -5480.3206     -9415.6007      45864.068      228.26162    
     23100   1193.2768     -5717.6561     -5480.8929     -9881.4618      45850.874      228.09711    
     23110   1173.9376     -5714.3745     -5481.4485     -9738.8616      45837.567      227.95428    
     23120   1183.5173     -5716.8538     -5482.027      -9757.8261      45824.346      227.85197    
     23130   1196.9828     -5720.1039     -5482.6054     -9661.3551      45811.071      227.80072    
     23140   1194.4737     -5720.2515     -5483.2508     -9036.4368      45797.688      227.77778    
     23150   1190.5815     -5720.1731     -5483.9447     -8574.1801      45784.402      227.74085    
     23160   1187.5366     -5720.3167     -5484.6924     -8846.8446      45771.333      227.65688    
     23170   1197.8903     -5723.1669     -5485.4883     -9693.879       45758.247      227.54176    
     23180   1185.7597     -5721.6072     -5486.3355     -10279.466      45744.865      227.44459    
     23190   1171.0664     -5719.571      -5487.2147     -10539.102      45731.076      227.36212    
     23200   1169.0852     -5720.0219     -5488.0586     -10706.423      45716.837      227.28819    
     23210   1160.2662     -5719.062      -5488.8486     -10587.351      45702.001      227.20991    
     23220   1162.4981     -5720.2332     -5489.5769     -10461.618      45686.484      227.10839    
     23230   1184.1977     -5725.259      -5490.2973     -10441.769      45670.241      226.96741    
     23240   1176.4192     -5724.4548     -5491.0364     -10150.73       45653.289      226.78406    
     23250   1142.8998     -5718.4918     -5491.7241     -9690.7516      45636.005      226.58208    
     23260   1144.7804     -5719.4802     -5492.3394     -9729.6794      45618.711      226.40566    
     23270   1119.0003     -5714.8524     -5492.8267     -9344.0562      45601.552      226.22545    
     23280   1105.2244     -5712.4259     -5493.1336     -9081.2933      45584.92       226.05443    
     23290   1128.9771     -5717.3214     -5493.3162     -9472.7342      45568.628      225.8949     
     23300   1117.4198     -5715.0663     -5493.3542     -9474.1434      45552.217      225.69997    
     23310   1118.6284     -5715.2545     -5493.3026     -9527.1552      45535.807      225.46698    
     23320   1133.531      -5718.0447     -5493.1359     -9791.1136      45519.394      225.22313    
     23330   1152.2791     -5721.5585     -5492.9298     -10008.303      45502.732      224.97877    
     23340   1149.1256     -5720.7125     -5492.7095     -9780.1545      45485.669      224.72922    
     23350   1160.56       -5722.7864     -5492.5146     -9465.7458      45468.318      224.48657    
     23360   1146.8566     -5719.8904     -5492.3376     -9096.8503      45450.951      224.27343    
     23370   1148.3812     -5720.0442     -5492.1889     -9244.2451      45433.702      224.09495    
     23380   1127.1761     -5715.6581     -5492.0102     -9370.1976      45416.498      223.92297    
     23390   1135.2841     -5717.0599     -5491.8033     -9670.4148      45399.611      223.74762    
     23400   1154.1701     -5720.551      -5491.5471     -9915.9177      45383.248      223.55573    
     23410   1172.2191     -5723.9121     -5491.3271     -9914.1061      45367.421      223.34045    
     23420   1153.2211     -5719.9812     -5491.1656     -9571.8067      45351.928      223.11646    
     23430   1168.0776     -5722.842      -5491.0787     -9476.2861      45336.828      222.90001    
     23440   1175.751      -5724.345      -5491.0591     -9287.4781      45322.348      222.67208    
     23450   1175.6454     -5724.4449     -5491.1801     -9064.9767      45308.726      222.43161    
     23460   1200.9595     -5729.7876     -5491.5        -9489.4093      45295.97       222.23205    
     23470   1200.4256     -5730.2842     -5492.1025     -9651.0279      45283.807      222.121      
     23480   1174.8231     -5726.1511     -5493.0494     -9423.0516      45272.245      222.08695    
     23490   1147.6879     -5722.0334     -5494.3157     -9241.7606      45261.385      222.09287    
     23500   1126.3265     -5719.2751     -5495.7958     -9365.2271      45251.005      222.11206    
     23510   1123.5567     -5720.313      -5497.3832     -9747.131       45240.741      222.13017    
     23520   1150.1063     -5727.2329     -5499.0354     -10274.5        45230.231      222.11462    
     23530   1166.2566     -5732.1632     -5500.7612     -10536.832      45219.182      222.0382     
     23540   1136.5195     -5727.8782     -5502.3764     -10194.707      45207.546      221.92229    
     23550   1114.4833     -5724.8405     -5503.711      -10047.753      45195.568      221.78069    
     23560   1116.8582     -5726.3361     -5504.7354     -10101.658      45183.565      221.59865    
     23570   1122.6542     -5728.2572     -5505.5065     -9930.7035      45171.688      221.39789    
     23580   1111.2109     -5726.5496     -5506.0694     -9481.4495      45159.972      221.20348    
     23590   1122.9602     -5729.3035     -5506.4921     -9813.3481      45148.598      221.02821    
     23600   1122.7641     -5729.621      -5506.8485     -10272.358      45137.334      220.85009    
     23610   1103.3615     -5726.0614     -5507.1387     -10352.768      45125.787      220.63818    
     23620   1114.1018     -5728.4194     -5507.3657     -10482.51       45113.839      220.39807    
     23630   1129.8814     -5731.745      -5507.5603     -10426.99       45101.584      220.17975    
     23640   1126.8421     -5731.3326     -5507.751      -10079.583      45089.194      220.00892    
     23650   1126.6547     -5731.5201     -5507.9757     -9898.2914      45076.745      219.88499    
     23660   1139.4159     -5734.3315     -5508.2551     -9672.4643      45064.04       219.80533    
     23670   1118.8879     -5730.564      -5508.5606     -9443.624       45051.034      219.75108    
     23680   1139.049      -5734.9417     -5508.938      -9997.3736      45037.702      219.70586    
     23690   1121.1075     -5731.7944     -5509.3506     -10269.539      45023.905      219.66848    
     23700   1110.6518     -5730.1875     -5509.8183     -10218.118      45009.649      219.62668    
     23710   1109.2299     -5730.3809     -5510.2938     -9814.4784      44994.804      219.55139    
     23720   1111.5421     -5731.3077     -5510.7619     -9681.2277      44979.126      219.43789    
     23730   1123.6118     -5734.2026     -5511.262      -9745.439       44962.687      219.28757    
     23740   1118.562      -5733.7423     -5511.8036     -9547.99        44945.847      219.124      
     23750   1100.0458     -5730.6295     -5512.3647     -9224.1507      44929.047      218.95534    
     23760   1106.3772     -5732.4364     -5512.9153     -9405.5779      44912.677      218.80619    
     23770   1118.8843     -5735.4884     -5513.4857     -9614.5815      44896.908      218.67396    
     23780   1130.8059     -5738.488      -5514.12       -10020.31       44881.544      218.55602    
     23790   1133.8881     -5739.861      -5514.8813     -10020.181      44866.188      218.46152    
     23800   1127.3728     -5739.423      -5515.7361     -9668.4255      44850.763      218.37426    
     23810   1134.9707     -5741.8865     -5516.692      -9323.0099      44835.308      218.28001    
     23820   1132.614      -5742.475      -5517.7481     -9096.3199      44819.75       218.19322    
     23830   1106.1372     -5738.3167     -5518.8432     -8974.6273      44804.154      218.14362    
     23840   1071.4578     -5732.4375     -5519.8449     -9112.1         44788.545      218.16311    
     23850   1071.1187     -5733.2186     -5520.6933     -9690.6726      44772.768      218.20265    
     23860   1068.3831     -5733.3431     -5521.3606     -9806.1915      44756.671      218.19007    
     23870   1080.974      -5736.3721     -5521.8913     -9719.0154      44740.365      218.11054    
     23880   1084.2887     -5737.4403     -5522.3019     -9691.7468      44724.101      217.96617    
     23890   1111.1523     -5743.1682     -5522.6997     -9909.8019      44708.04       217.78276    
     23900   1094.3207     -5740.2085     -5523.0796     -9654.8496      44691.915      217.62486    
     23910   1108.9389     -5743.5165     -5523.4871     -9736.4812      44675.547      217.52041    
     23920   1096.0765     -5741.3774     -5523.9002     -9563.8055      44658.81       217.49183    
     23930   1084.9685     -5739.5786     -5524.3053     -9467.5665      44641.704      217.53781    
     23940   1080.001      -5738.9626     -5524.675      -9707.012       44624.494      217.61231    
     23950   1060.58       -5735.4111     -5524.9769     -9903.3929      44607.313      217.64772    
     23960   1069.1935     -5737.3506     -5525.2073     -10059.963      44590.019      217.61676    
     23970   1076.1116     -5738.8949     -5525.379      -9858.3913      44572.409      217.53071    
     23980   1073.3586     -5738.488      -5525.5183     -9630.2917      44554.424      217.4015     
     23990   1080.6062     -5740.0389     -5525.6312     -9702.7046      44536.054      217.22061    
     24000   1080.4151     -5740.1001     -5525.7303     -9619.2531      44517.327      216.97308    
     24010   1080.1167     -5740.125      -5525.8144     -9468.2595      44498.557      216.71104    
     24020   1115.4312     -5747.2555     -5525.938      -9561.9545      44480.177      216.51324    
     24030   1108.3428     -5746.0554     -5526.1443     -9236.1523      44462.27       216.39779    
     24040   1092.018      -5743.1517     -5526.4797     -8972.3925      44445.144      216.31267    
     24050   1088.4281     -5742.832      -5526.8723     -9137.8176      44428.821      216.22572    
     24060   1083.7178     -5742.3464     -5527.3213     -9580.8521      44413.038      216.14937    
     24070   1076.0409     -5741.3185     -5527.8166     -9999.0472      44397.599      216.08634    
     24080   1079.0204     -5742.4395     -5528.3464     -10279.174      44382.065      216.018      
     24090   1085.7324     -5744.3481     -5528.9233     -10431.681      44366.173      215.92433    
     24100   1083.9776     -5744.6726     -5529.5959     -10299.673      44349.874      215.7825     
     24110   1075.3858     -5743.7043     -5530.3324     -9902.0839      44333.145      215.60623    
     24120   1081.6636     -5745.7559     -5531.1383     -9556.0061      44316.441      215.43369    
     24130   1081.0378     -5746.5018     -5532.0084     -9297.7729      44300.259      215.30034    
     24140   1087.4647     -5748.7416     -5532.973      -9384.8836      44284.96       215.23931    
     24150   1070.9104     -5746.4919     -5534.008      -9087.3459      44270.566      215.25931    
     24160   1054.6147     -5744.283      -5535.0323     -8686.6758      44256.926      215.33944    
     24170   1069.4454     -5748.208      -5536.0147     -8839.9401      44243.991      215.42643    
     24180   1072.7755     -5749.7996     -5536.9455     -9188.2088      44231.424      215.47299    
     24190   1069.1121     -5749.9471     -5537.82       -9557.3898      44218.927      215.51245    
     24200   1066.0472     -5750.1204     -5538.6013     -9827.7109      44206.454      215.56677    
     24210   1054.8023     -5748.5438     -5539.2559     -9933.7144      44193.908      215.61197    
     24220   1041.7207     -5746.4348     -5539.7425     -9843.5484      44181.233      215.58189    
     24230   1042.7588     -5746.9841     -5540.0858     -9589.1556      44168.653      215.45322    
     24240   1042.1923     -5747.0834     -5540.2975     -9358.8525      44156.64       215.28479    
     24250   1044.6676     -5747.7081     -5540.4311     -9322.7018      44145.261      215.10817    
     24260   1025.7284     -5744.0079     -5540.4887     -9197.857       44134.358      214.89118    
     24270   1033.2258     -5745.4841     -5540.4773     -9291.3618      44123.983      214.63051    
     24280   1051.3329     -5749.0074     -5540.4079     -9738.1296      44114.129      214.37215    
     24290   1057.6109     -5750.1841     -5540.3389     -9861.7822      44104.606      214.17593    
     24300   1051.0896     -5748.8602     -5540.309      -9739.5939      44095.38       214.04868    
     24310   1040.8454     -5746.7955     -5540.2769     -9833.1422      44086.419      213.9478     
     24320   1050.7537     -5748.7383     -5540.2537     -10325.226      44077.209      213.8644     
     24330   1060.8104     -5750.7264     -5540.2465     -10558.473      44067.298      213.79614    
     24340   1055.5646     -5749.7234     -5540.2843     -10406.795      44056.734      213.72067    
     24350   1035.4523     -5745.7954     -5540.3468     -10207.001      44045.773      213.63068    
     24360   1043.0169     -5747.3566     -5540.4071     -10480.462      44034.714      213.53235    
     24370   1036.0571     -5746.0074     -5540.4389     -10515.047      44023.586      213.40645    
     24380   1054.849      -5749.7882     -5540.4911     -10605.751      44012.277      213.25461    
     24390   1069.0319     -5752.693      -5540.5818     -10459.342      44000.783      213.14607    
     24400   1078.7809     -5754.8353     -5540.7898     -10301.566      43989.169      213.13696    
     24410   1095.4882     -5758.5198     -5541.1592     -10545.112      43977.295      213.20957    
     24420   1098.3255     -5759.6931     -5541.7696     -10746.711      43964.895      213.29305    
     24430   1078.1254     -5756.5269     -5542.6113     -10532.515      43951.899      213.28773    
     24440   1052.924      -5752.5209     -5543.6057     -10144.2        43938.312      213.16636    
     24450   1028.2658     -5748.6592     -5544.6365     -9567.6054      43924.304      212.99184    
     24460   1002.7889     -5744.543      -5545.5753     -9024.2792      43910.328      212.84296    
     24470   1012.3483     -5747.2599     -5546.3955     -9202.2971      43896.596      212.74756    
     24480   1028.1598     -5751.1091     -5547.1075     -9566.245       43882.914      212.67172    
     24490   1045.7482     -5755.2942     -5547.8028     -9825.2694      43868.993      212.58064    
     24500   1037.5069     -5754.3292     -5548.473      -9730.6672      43854.768      212.47112    
     24510   1041.8703     -5755.8695     -5549.1475     -9783.0461      43840.323      212.3611     
     24520   1029.7989     -5754.1333     -5549.8065     -9553.2742      43825.663      212.27129    
     24530   1008.0999     -5750.4119     -5550.3904     -8959.7521      43811.044      212.21058    
     24540   1004.7891     -5750.2244     -5550.8598     -8644.1364      43797.074      212.18798    
     24550   1014.1686     -5752.4528     -5551.2272     -8751.9363      43784.143      212.19915    
     24560   1022.2051     -5754.3644     -5551.5443     -8999.855       43772.195      212.20237    
     24570   1026.8611     -5755.5908     -5551.8469     -9288.6874      43760.887      212.18715    
     24580   1009.112      -5752.3531     -5552.1309     -9174.0804      43749.873      212.14688    
     24590   1011.3427     -5753.0449     -5552.38       -9474.3363      43738.959      212.06864    
     24600   1026.6829     -5756.3101     -5552.6015     -9814.5261      43727.907      211.96046    
     24610   1021.9329     -5755.6055     -5552.8393     -9619.0302      43716.484      211.81699    
     24620   1024.7485     -5756.4097     -5553.0849     -9410.6265      43704.642      211.6358     
     24630   1046.5843     -5761.0404     -5553.3831     -9517.7668      43692.424      211.4236     
     24640   1023.936      -5756.8945     -5553.731      -9288.2861      43679.797      211.19475    
     24650   1019.9009     -5756.502      -5554.139      -9373.7939      43666.987      211.01958    
     24660   1010.8863     -5755.1122     -5554.5379     -9244.9103      43654.211      210.95214    
     24670   995.54818     -5752.4443     -5554.9133     -9125.6676      43641.632      210.98365    
     24680   992.26829     -5752.1067     -5555.2264     -9468.2928      43629.387      211.0779     
     24690   999.67538     -5753.8403     -5555.4904     -10016.06       43617.296      211.16581    
     24700   1009.7665     -5756.0753     -5555.7232     -10437.873      43604.925      211.22286    
     24710   1013.1259     -5757.0092     -5555.9905     -10570.299      43591.926      211.25487    
     24720   989.79859     -5752.6249     -5556.2347     -9870.9564      43578.302      211.25946    
     24730   1017.5664     -5758.3792     -5556.4794     -9564.7888      43564.489      211.25319    
     24740   1022.2917     -5759.5734     -5556.736      -9131.9404      43550.768      211.26171    
     24750   1032.5422     -5761.9559     -5557.0848     -9130.4972      43537.447      211.27499    
     24760   1025.7266     -5761.0466     -5557.5278     -9089.3148      43524.853      211.30428    
     24770   1025.0516     -5761.4773     -5558.0924     -9172.6283      43513.074      211.36344    
     24780   1014.6887     -5760.0743     -5558.7456     -8988.9117      43501.867      211.41215    
     24790   1021.6928     -5762.2167     -5559.4982     -9206.2058      43491.12       211.41196    
     24800   1013.2916     -5761.4037     -5560.3521     -9460.7592      43480.519      211.38874    
     24810   979.80533     -5755.6333     -5561.2259     -9682.3533      43469.966      211.37082    
     24820   979.14898     -5756.3423     -5562.0651     -10132.087      43459.342      211.33498    
     24830   975.45788     -5756.365      -5562.8202     -10313.041      43448.368      211.2441     
     24840   971.77895     -5756.2877     -5563.4729     -10243.132      43436.955      211.09763    
     24850   975.63442     -5757.6035     -5564.0237     -10048.63       43425.018      210.9383     
     24860   979.18333     -5758.7596     -5564.4756     -9787.9194      43412.452      210.78465    
     24870   985.51243     -5760.3926     -5564.8528     -9632.4282      43399.238      210.61574    
     24880   993.83079     -5762.3591     -5565.1689     -9697.7261      43385.508      210.42629    
     24890   1012.58       -5766.36       -5565.4496     -10038.572      43371.322      210.22633    
     24900   1033.3046     -5770.8175     -5565.7951     -10306.453      43356.557      210.02017    
     24910   1018.2415     -5768.2291     -5566.1954     -9886.4532      43341.226      209.84244    
     24920   1010.6546     -5767.1396     -5566.6113     -9438.9185      43325.563      209.7197     
     24930   1005.1127     -5766.4464     -5567.0177     -9182.3998      43309.56       209.61941    
     24940   993.22947     -5764.4568     -5567.3858     -9060.9648      43293.138      209.51458    
     24950   988.33059     -5763.8309     -5567.732      -9013.9434      43276.319      209.40487    
     24960   979.00694     -5762.2705     -5568.0215     -9065.9901      43259.119      209.24823    
     24970   986.49406     -5764.0184     -5568.2839     -9358.8579      43241.673      209.01921    
     24980   989.58122     -5764.8871     -5568.54       -9622.5449      43223.939      208.74561    
     24990   996.52855     -5766.5537     -5568.8282     -9908.1531      43205.84       208.49301    
     25000   989.84109     -5765.5404     -5569.1418     -10058.917      43187.347      208.27792    
     25010   1002.4827     -5768.4177     -5569.5108     -10450.3        43168.46       208.07839    
     25020   992.97465     -5766.9719     -5569.9515     -10346.289      43149.02       207.88511    
     25030   989.54834     -5766.7742     -5570.4336     -10234.731      43129.095      207.71989    
     25040   1000.7693     -5769.5442     -5570.9772     -10386.688      43109.022      207.57658    
     25050   985.64829     -5767.158      -5571.5912     -10145.369      43088.719      207.46169    
     25060   988.82921     -5768.4591     -5572.2612     -10165.224      43068.005      207.35892    
     25070   1000.3055     -5771.4694     -5572.9944     -10165.037      43046.723      207.21612    
     25080   998.06769     -5771.8436     -5573.8127     -10126.888      43024.831      207.03375    
     25090   980.03188     -5769.1406     -5574.6883     -10052.66       43002.369      206.83396    
     25100   952.3383      -5764.4821     -5575.5245     -9990.5416      42979.539      206.63723    
     25110   953.41528     -5765.4397     -5576.2685     -10133.346      42956.713      206.45597    
     25120   958.2641      -5767.0397     -5576.9064     -10176.88       42934.067      206.28533    
     25130   968.07511     -5769.5863     -5577.5063     -10161.011      42911.787      206.10464    
     25140   957.01648     -5767.9548     -5578.0691     -9977.8275      42889.93       205.90468    
     25150   958.56218     -5768.7861     -5578.5937     -10068.233      42868.535      205.69412    
     25160   963.42142     -5770.2283     -5579.0717     -10031.967      42847.659      205.49329    
     25170   975.82971     -5773.1777     -5579.5591     -9792.6218      42827.236      205.31213    
     25180   975.60725     -5773.6472     -5580.0728     -9373.1366      42807.192      205.1552     
     25190   976.38303     -5774.3456     -5580.6172     -9307.342       42787.753      205.01897    
     25200   977.64102     -5775.1901     -5581.2121     -9455.5179      42769.166      204.89824    
     25210   959.98183     -5772.3146     -5581.8404     -9719.3402      42751.214      204.79342    
     25220   940.78491     -5769.1106     -5582.4454     -9880.9827      42733.556      204.691      
     25230   942.90154     -5770.0646     -5582.9794     -10144.135      42716.04       204.58704    
     25240   957.5018      -5773.4597     -5583.4776     -10237.034      42698.434      204.4534     
     25250   963.91877     -5775.2271     -5583.9718     -10116.268      42680.553      204.2808     
     25260   950.11557     -5772.9888     -5584.4722     -9691.5598      42662.504      204.07065    
     25270   939.23366     -5771.2976     -5584.9402     -9369.6517      42644.45       203.82132    
     25280   949.15425     -5773.7051     -5585.3793     -9533.3624      42626.386      203.55056    
     25290   954.89956     -5775.26       -5585.7943     -9636.1368      42608.358      203.291      
     25300   964.70085     -5777.6396     -5586.2292     -9606.4411      42590.551      203.06806    
     25310   950.85853     -5775.3508     -5586.6869     -9348.0858      42573.058      202.88524    
     25320   965.25883     -5778.7031     -5587.1819     -9818.8897      42555.947      202.7543     
     25330   960.96633     -5778.3889     -5587.7194     -10228.867      42538.908      202.66255    
     25340   958.40158     -5778.4556     -5588.295      -10473.795      42521.73       202.57564    
     25350   949.30443     -5777.2397     -5588.8842     -10326.194      42504.671      202.49655    
     25360   943.22357     -5776.6084     -5589.4593     -10156.059      42487.961      202.40944    
     25370   960.60863     -5780.6364     -5590.0378     -10132.22       42471.37       202.29895    
     25380   953.28316     -5779.7684     -5590.6234     -9651.2149      42454.748      202.19541    
     25390   935.36808     -5776.8094     -5591.219      -9275.4022      42438.25       202.11813    
     25400   915.05244     -5773.2737     -5591.7142     -9056.1357      42422.087      202.07368    
     25410   935.51419     -5777.7491     -5592.1297     -9593.4934      42406.366      202.04711    
     25420   950.38459     -5781.0809     -5592.511      -9867.6361      42390.875      202.0287     
     25430   943.04237     -5780.0116     -5592.8985     -9580.248       42375.544      201.99352    
     25440   947.30342     -5781.2582     -5593.2996     -9286.2746      42360.549      201.93318    
     25450   943.1882      -5780.8403     -5593.6983     -8908.5249      42345.868      201.86037    
     25460   945.98281     -5781.8068     -5594.1102     -8815.2999      42331.451      201.79598    
     25470   939.52754     -5780.9385     -5594.5228     -8847.434       42317.183      201.78272    
     25480   953.81368     -5784.2058     -5594.9555     -9137.8378      42303.085      201.80715    
     25490   951.60455     -5784.2311     -5595.4191     -9235.7703      42289.226      201.83935    
     25500   939.80965     -5782.3843     -5595.9126     -9135.8244      42275.625      201.87578    
     25510   942.00469     -5783.3199     -5596.4127     -9285.5695      42262.314      201.91461    
     25520   941.1183      -5783.644      -5596.9127     -9287.5133      42249.256      201.916      
     25530   950.45137     -5786.02       -5597.4369     -9496.7567      42236.491      201.81428    
     25540   952.67199     -5787.0315     -5598.0077     -9715.0283      42223.92       201.63561    
     25550   939.61398     -5785.0466     -5598.6138     -9720.4532      42211.332      201.43934    
     25560   920.90498     -5781.9294     -5599.2087     -9572.0483      42198.795      201.26868    
     25570   919.80741     -5782.2532     -5599.7502     -9595.6434      42186.436      201.13023    
     25580   925.51746     -5783.8894     -5600.2535     -10149.262      42174.222      201.00898    
     25590   914.00707     -5782.0759     -5600.7238     -10530.424      42161.866      200.86205    
     25600   906.58374     -5781.0282     -5601.149      -10684.407      42149.161      200.66477    
     25610   904.70796     -5781.022      -5601.515      -10484.979      42135.947      200.44459    
     25620   914.64115     -5783.3247     -5601.8468     -10245.548      42122.208      200.24813    
     25630   911.57092     -5783.0259     -5602.1572     -9895.4542      42107.992      200.10629    
     25640   910.67459     -5783.1486     -5602.4577     -9647.0834      42093.519      200.01501    
     25650   910.64661     -5783.4166     -5602.7313     -9421.3439      42079.063      199.93227    
     25660   928.51701     -5787.2578     -5603.0267     -9589.1764      42064.767      199.82496    
     25670   922.26986     -5786.3533     -5603.3617     -9403.6732      42050.688      199.72944    
     25680   936.03874     -5789.4796     -5603.7561     -9686.4016      42037.023      199.67125    
     25690   945.22634     -5791.8007     -5604.2542     -10151.747      42023.699      199.6358     
     25700   925.11917     -5788.4238     -5604.8669     -10257.109      42010.455      199.61393    
     25710   897.94073     -5783.6638     -5605.4995     -10109.929      41997.169      199.60997    
     25720   896.64823     -5784.0183     -5606.1105     -10276.161      41983.765      199.61769    
     25730   892.25309     -5783.7081     -5606.6723     -10179.745      41970.119      199.61476    
     25740   885.45838     -5782.8475     -5607.1599     -9875.8673      41956.166      199.56693    
     25750   905.56697     -5787.2805     -5607.6031     -9886.8617      41941.824      199.48829    
     25760   909.03602     -5788.4136     -5608.0478     -9715.195       41926.996      199.41983    
     25770   892.26454     -5785.5212     -5608.4832     -9350.6284      41911.722      199.36455    
     25780   890.74223     -5785.6132     -5608.8771     -9317.2157      41896.228      199.30615    
     25790   890.75301     -5785.9871     -5609.2489     -9307.8232      41880.578      199.2335     
     25800   872.30039     -5782.6498     -5609.5729     -9220.9319      41864.578      199.14777    
     25810   870.59112     -5782.5564     -5609.8186     -9218.4421      41848.253      199.07046    
     25820   875.64076     -5783.7316     -5609.9919     -9419.0118      41831.734      199.02438    
     25830   882.08705     -5785.1309     -5610.1122     -9795.6883      41814.98       198.97999    
     25840   900.53618     -5788.9006     -5610.2214     -10414.311      41797.9        198.9005     
     25850   919.84301     -5792.8975     -5610.3874     -10495.001      41780.204      198.79352    
     25860   909.9427      -5791.1748     -5610.6291     -9902.1184      41761.802      198.65885    
     25870   926.82022     -5794.8746     -5610.9802     -9646.8876      41743          198.49289    
     25880   919.44364     -5793.8701     -5611.4393     -9381.1624      41724.018      198.32137    
     25890   897.39595     -5790.0344     -5611.9782     -9349.674       41705.059      198.20267    
     25900   902.47826     -5791.6179     -5612.5533     -9708.3241      41686.095      198.1269     
     25910   912.07615     -5794.1342     -5613.1652     -9755.7896      41667          198.04112    
     25920   910.00479     -5794.3923     -5613.8343     -9341.924       41647.884      197.94462    
     25930   895.95037     -5792.272      -5614.5026     -8795.5441      41629.135      197.85647    
     25940   904.14756     -5794.5461     -5615.1503     -8802.4977      41611.146      197.76192    
     25950   917.51587     -5797.8666     -5615.8183     -9320.7821      41593.837      197.65465    
     25960   888.29491     -5792.7048     -5616.4544     -9479.8871      41576.996      197.54676    
     25970   888.1289      -5793.252      -5617.0345     -9933.8942      41560.506      197.44953    
     25980   883.25841     -5792.7957     -5617.5445     -10049.125      41544.124      197.35726    
     25990   872.68242     -5791.1195     -5617.9668     -9825.9036      41527.779      197.25217    
     26000   875.39633     -5792.0244     -5618.3332     -9870.9836      41511.614      197.12543    
     26010   873.64133     -5791.9929     -5618.65       -9686.7695      41495.578      196.97824    
     26020   865.03806     -5790.5603     -5618.9244     -9220.3886      41479.773      196.8113     
     26030   862.60157     -5790.3076     -5619.1551     -9031.677       41464.558      196.6154     
     26040   861.01153     -5790.1659     -5619.3289     -8991.5506      41450.161      196.40243    
     26050   873.68554     -5792.8572     -5619.5055     -9145.5287      41436.543      196.1784     
     26060   874.4583      -5793.1827     -5619.6777     -9354.5691      41423.448      195.9172     
     26070   884.32655     -5795.3668     -5619.9038     -9725.08        41410.649      195.62219    
     26080   882.54778     -5795.2896     -5620.1794     -9895.2487      41397.994      195.33276    
     26090   865.34011     -5792.1925     -5620.4966     -9641.8773      41385.539      195.07456    
     26100   875.40032     -5794.5399     -5620.848      -9604.1968      41373.453      194.86849    
     26110   879.93334     -5795.8488     -5621.2574     -9476.9342      41361.6        194.70213    
     26120   870.74688     -5794.4744     -5621.7057     -9208.6357      41349.902      194.5212     
     26130   886.89563     -5798.2028     -5622.23       -9634.1485      41338.32       194.27588    
     26140   875.5519      -5796.5588     -5622.8368     -10083.57       41326.618      193.98972    
     26150   859.39428     -5793.9884     -5623.4723     -10340.007      41314.842      193.73843    
     26160   870.38995     -5796.8287     -5624.1309     -10776.753      41302.999      193.58318    
     26170   873.02312     -5798.0391     -5624.8188     -10679.19       41290.616      193.49765    
     26180   868.1476      -5797.7904     -5625.5375     -10325.47       41277.45       193.44895    
     26190   867.72348     -5798.4207     -5626.2519     -10012.723      41263.541      193.41343    
     26200   875.76892     -5800.752      -5626.9869     -9797.1645      41249.017      193.35256    
     26210   864.06041     -5799.1685     -5627.7265     -9438.5171      41233.953      193.24114    
     26220   854.73753     -5797.9962     -5628.404      -9402.9819      41218.631      193.08323    
     26230   874.13905     -5802.4966     -5629.0549     -9827.4367      41203.312      192.90303    
     26240   870.66247     -5802.4772     -5629.7253     -9820.3083      41187.867      192.70701    
     26250   823.10053     -5793.6453     -5630.3303     -9158.0434      41172.148      192.51172    
     26260   820.04993     -5793.5109     -5630.8012     -8893.78        41156.385      192.36702    
     26270   852.23023     -5800.2535     -5631.1589     -9123.5596      41140.667      192.27781    
     26280   877.29144     -5805.5991     -5631.5319     -9067.3482      41124.913      192.21228    
     26290   867.84705     -5804.1526     -5631.9593     -8557.8693      41109.18       192.12643    
     26300   864.52418     -5803.9786     -5632.4447     -8520.2782      41093.59       191.98237    
     26310   874.79167     -5806.5432     -5632.972      -9140.6316      41078.048      191.76438    
     26320   875.46414     -5807.2991     -5633.5944     -9664.5696      41062.304      191.53015    
     26330   849.26008     -5802.7646     -5634.2593     -9794.6115      41046.125      191.34408    
     26340   855.41511     -5804.651      -5634.9244     -10272.68       41029.5        191.18246    
     26350   859.44501     -5806.1261     -5635.5999     -10760.131      41012.369      191.00944    
     26360   837.6641      -5802.4724     -5636.2679     -10854.785      40994.491      190.8174     
     26370   822.98197     -5800.1759     -5636.8845     -10685.608      40975.789      190.61476    
     26380   825.45112     -5801.1892     -5637.4079     -10625.92       40956.405      190.43582    
     26390   835.98843     -5803.7476     -5637.8755     -10597.75       40936.419      190.28808    
     26400   821.91707     -5801.3928     -5638.3127     -10136.265      40915.85       190.14767    
     26410   816.80493     -5800.7512     -5638.6854     -9964.8794      40894.944      190.00671    
     26420   829.45797     -5803.5787     -5639.0024     -10217.02       40873.887      189.87081    
     26430   835.92217     -5805.178      -5639.319      -10044.312      40852.674      189.72628    
     26440   838.01537     -5805.9221     -5639.6479     -9636.0161      40831.353      189.54198    
     26450   841.99009     -5807.0684     -5640.0055     -9506.9791      40810.179      189.29894    
     26460   835.33284     -5806.1371     -5640.3951     -9620.036       40789.379      189.04194    
     26470   841.06059     -5807.7169     -5640.8385     -10128.435      40768.829      188.82412    
     26480   832.43158     -5806.5015     -5641.3351     -10142.849      40748.195      188.64636    
     26490   821.42035     -5804.8224     -5641.8408     -9988.7079      40727.427      188.50132    
     26500   814.89205     -5804.0222     -5642.336      -9963.5267      40706.586      188.35017    
     26510   816.83969     -5804.8682     -5642.7955     -9987.5306      40685.71       188.13897    
     26520   822.85921     -5806.5029     -5643.2359     -10188.069      40664.876      187.86465    
     26530   834.93936     -5809.3619     -5643.698      -10461.468      40644.049      187.57114    
     26540   839.44265     -5810.7788     -5644.2214     -10734.233      40622.943      187.27227    
     26550   825.7032      -5808.6284     -5644.7971     -10649.433      40601.348      186.97663    
     26560   814.09969     -5806.9028     -5645.3738     -10455.584      40579.202      186.69496    
     26570   816.27007     -5807.8945     -5645.9349     -10344.337      40556.38       186.42725    
     26580   810.60627     -5807.302      -5646.4661     -9965.8643      40532.928      186.17575    
     26590   806.3842      -5806.9438     -5646.9457     -9674.8931      40509.118      185.94322    
     26600   812.11737     -5808.5164     -5647.3806     -9633.7594      40485.204      185.70869    
     26610   822.40862     -5810.9777     -5647.8        -9593.3774      40461.316      185.46116    
     26620   818.33897     -5810.595      -5648.2248     -9570.4764      40437.58       185.21864    
     26630   825.05096     -5812.3766     -5648.6747     -9832.9764      40414.039      184.99158    
     26640   820.96246     -5812.0331     -5649.1424     -9998.6006      40390.468      184.77014    
     26650   817.50907     -5811.8221     -5649.6166     -9960.8882      40366.727      184.52822    
     26660   820.78134     -5812.9526     -5650.0979     -9863.0116      40342.978      184.2473     
     26670   819.35967     -5813.1599     -5650.5872     -9699.8885      40319.377      183.92654    
     26680   806.42913     -5811.0718     -5651.0647     -9459.564       40296.021      183.59696    
     26690   802.41559     -5810.7151     -5651.5043     -9167.246       40273.073      183.26762    
     26700   810.74394     -5812.7769     -5651.9136     -8949.1857      40250.654      182.94418    
     26710   803.71689     -5811.7786     -5652.3096     -8501.8777      40228.775      182.66616    
     26720   803.56113     -5812.1261     -5652.6881     -8225.0316      40207.419      182.43881    
     26730   812.36626     -5814.2417     -5653.0566     -8403.536       40186.581      182.25127    
     26740   812.37316     -5814.6255     -5653.439      -8748.4566      40166.275      182.09905    
     26750   812.70295     -5815.0994     -5653.8475     -9265.9648      40146.388      181.94593    
     26760   810.48354     -5815.0986     -5654.2871     -9540.2366      40126.629      181.76232    
     26770   817.81033     -5817.0209     -5654.7556     -9711.1716      40106.817      181.53536    
     26780   811.13112     -5816.2101     -5655.2701     -9487.7037      40087.009      181.27077    
     26790   788.80081     -5812.2784     -5655.7691     -9069.4345      40067.391      181.0104     
     26800   788.46256     -5812.6707     -5656.2284     -9143.7986      40048.184      180.78924    
     26810   783.42761     -5812.073      -5656.6297     -9086.6584      40029.58       180.60313    
     26820   790.06054     -5813.7554     -5656.996      -9110.9711      40011.66       180.4598     
     26830   804.39135     -5816.967      -5657.3643     -9125.1433      39994.286      180.361      
     26840   797.41389     -5815.975      -5657.7566     -8966.0699      39977.283      180.28935    
     26850   803.76568     -5817.6566     -5658.178      -9178.4949      39960.444      180.22363    
     26860   802.25088     -5817.8269     -5658.6488     -9136.1042      39943.579      180.14786    
     26870   789.33024     -5815.7362     -5659.1218     -8715.5101      39926.703      180.02368    
     26880   808.21078     -5819.9967     -5659.6361     -8810.0854      39909.86       179.84127    
     26890   803.02861     -5819.5228     -5660.1904     -8641.4957      39892.896      179.63691    
     26900   787.45642     -5816.9956     -5660.753      -8490.2737      39875.942      179.44737    
     26910   796.04309     -5819.2646     -5661.3183     -8939.2846      39859.229      179.29527    
     26920   807.57005     -5822.135      -5661.9015     -9474.4643      39842.708      179.17114    
     26930   805.75794     -5822.4075     -5662.5336     -9622.2305      39826.211      179.04886    
     26940   794.18985     -5820.7617     -5663.1831     -9333.6981      39809.671      178.92503    
     26950   793.75822     -5821.3059     -5663.8129     -9227.3419      39793.251      178.83385    
     26960   798.8655      -5822.9473     -5664.4409     -9413.8069      39777.106      178.78904    
     26970   784.52787     -5820.724      -5665.0624     -9771.2811      39761.268      178.75421    
     26980   766.42016     -5817.7024     -5665.6337     -10161.698      39745.514      178.69192    
     26990   760.88791     -5817.1066     -5666.1355     -10574.211      39729.548      178.6023     
     27000   756.59132     -5816.6711     -5666.5526     -10741.274      39713.181      178.50217    
     27010   753.37348     -5816.3789     -5666.8988     -10738.311      39696.334      178.38998    
     27020   755.25585     -5817.0326     -5667.179      -10701.769      39678.955      178.25621    
     27030   773.4825      -5820.9067     -5667.4367     -10675.763      39661.028      178.09774    
     27040   781.31726     -5822.7268     -5667.7023     -10261.95       39642.518      177.91132    
     27050   786.28285     -5824.0444     -5668.0347     -9786.2734      39623.448      177.71711    
     27060   779.34048     -5823.0568     -5668.4245     -9457.6169      39603.925      177.5312     
     27070   771.9816      -5822.0266     -5668.8544     -9340.3308      39584.13       177.36781    
     27080   766.1602      -5821.3198     -5669.3027     -9384.5086      39564.381      177.23882    
     27090   760.35699     -5820.6167     -5669.751      -9549.2163      39544.931      177.15402    
     27100   782.79569     -5825.5507     -5670.2328     -9936.9573      39525.683      177.10552    
     27110   785.46231     -5826.639      -5670.7921     -9819.3007      39506.296      177.06882    
     27120   763.41342     -5822.8685     -5671.3964     -9305.2623      39486.749      177.0373     
     27130   772.29623     -5825.2471     -5672.0124     -9528.32        39467.164      177.01583    
     27140   783.31335     -5828.098      -5672.6774     -9961.5369      39447.295      176.97482    
     27150   766.96624     -5825.5455     -5673.3684     -9927.79        39426.951      176.87221    
     27160   763.14529     -5825.4668     -5674.0478     -9962.4747      39406.248      176.68842    
     27170   761.19163     -5825.7316     -5674.7002     -9873.4916      39385.183      176.43037    
     27180   756.74904     -5825.4587     -5675.3089     -9555.5275      39363.781      176.13628    
     27190   756.1698      -5825.8989     -5675.864      -9463.4483      39342.248      175.87408    
     27200   764.78858     -5828.1379     -5676.3929     -9436.1567      39320.723      175.67321    
     27210   761.51213     -5828.0054     -5676.9105     -9357.625       39299.284      175.49776    
     27220   758.20581     -5827.8585     -5677.4196     -9096.3639      39277.923      175.31499    
     27230   763.01597     -5829.3168     -5677.9235     -8723.6928      39256.755      175.12163    
     27240   767.88295     -5830.8003     -5678.4413     -8665.0628      39235.944      174.91142    
     27250   764.23911     -5830.6216     -5678.9856     -8869.0411      39215.452      174.69364    
     27260   758.12363     -5829.9785     -5679.5559     -9142.0526      39194.998      174.48163    
     27270   758.88064     -5830.7073     -5680.1345     -9477.5823      39174.435      174.26879    
     27280   757.61625     -5831.0482     -5680.7263     -9670.1199      39153.771      174.06092    
     27290   742.26576     -5828.5818     -5681.3056     -9505.9486      39132.934      173.88911    
     27300   748.54419     -5830.3876     -5681.8657     -9586.4796      39111.901      173.7569     
     27310   752.33825     -5831.6895     -5682.4148     -9610.9687      39090.7        173.64346    
     27320   750.00857     -5831.7821     -5682.9697     -9918.7411      39069.464      173.54637    
     27330   747.71677     -5831.8953     -5683.5375     -10384.781      39048.035      173.46006    
     27340   736.83618     -5830.3022     -5684.1034     -10596.047      39026.09       173.37811    
     27350   738.02937     -5831.0881     -5684.6525     -10738.046      39003.456      173.28724    
     27360   745.89111     -5833.1931     -5685.1976     -10610.21       38980.017      173.1772     
     27370   746.31635     -5833.8347     -5685.7549     -10333.605      38955.821      173.06292    
     27380   745.62637     -5834.2738     -5686.3309     -9959.7212      38931.03       172.95148    
     27390   741.33076     -5833.9969     -5686.9063     -9636.71        38905.992      172.83168    
     27400   732.77406     -5832.8588     -5687.4659     -9423.5987      38881.131      172.67872    
     27410   737.02004     -5834.2441     -5688.0088     -9574.3473      38856.614      172.49089    
     27420   742.7271      -5835.9419     -5688.5742     -9639.3473      38832.361      172.28384    
     27430   723.81047     -5832.7485     -5689.1342     -9192.4259      38808.235      172.0628     
     27440   716.80413     -5831.8806     -5689.6564     -9027.5732      38784.191      171.82908    
     27450   726.80683     -5834.3474     -5690.1385     -9301.6043      38760.215      171.60887    
     27460   737.01324     -5836.8589     -5690.6249     -9570.9303      38736.147      171.40482    
     27470   735.56575     -5837.0881     -5691.1414     -9695.4867      38711.798      171.19917    
     27480   729.89794     -5836.507      -5691.6848     -9748.8753      38687.149      171.00285    
     27490   716.86224     -5834.4507     -5692.2149     -9771.5886      38662.308      170.84368    
     27500   712.91144     -5834.1559     -5692.704      -9983.8088      38637.406      170.70554    
     27510   721.20437     -5836.2759     -5693.1786     -10367.296      38612.361      170.54472    
     27520   725.2747      -5837.5646     -5693.6597     -10454.208      38586.859      170.32459    
     27530   733.14422     -5839.6322     -5694.1659     -10305.273      38560.72       170.05343    
     27540   743.04103     -5842.1598     -5694.7298     -10064.22       38534.007      169.76694    
     27550   735.75677     -5841.3369     -5695.3522     -9872.8916      38506.829      169.50033    
     27560   719.57211     -5838.7815     -5696.0081     -9592.2786      38479.214      169.2522     
     27570   708.15058     -5837.1328     -5696.6256     -9370.9174      38451.286      168.997      
     27580   713.54261     -5838.7786     -5697.2015     -9175.8645      38423.228      168.72437    
     27590   710.88072     -5838.776      -5697.7271     -8966.8006      38395.26       168.43998    
     27600   707.48375     -5838.5903     -5698.2154     -8807.4017      38367.67       168.1485     
[...]
     41650   457.71992     -5973.297      -5882.4788      20.178074      32898.218      146.08173    
     41660   455.81809     -5972.8187     -5882.3779     -338.86523      32927.671      146.23752    
     41670   453.88925     -5972.3544     -5882.2962     -608.17422      32956.255      146.37813    
     41680   456.52612     -5972.8132     -5882.2319     -817.6231       32983.05       146.50647    
     41690   458.50714     -5973.1648     -5882.1904     -967.23725      33007.274      146.62431    
     41700   454.11702     -5972.2786     -5882.1752     -902.17824      33028.435      146.72728    
     41710   453.09444     -5972.0834     -5882.1829     -888.04787      33046.642      146.80883    
     41720   460.04795     -5973.4878     -5882.2077     -1029.8173      33061.896      146.85397    
     41730   462.3982      -5974.0225     -5882.276      -1027.1325      33073.778      146.85893    
     41740   457.0606      -5973.0952     -5882.4078     -944.09211      33082.237      146.83157    
     41750   451.33965     -5972.1401     -5882.5879     -874.49326      33087.529      146.78375    
     41760   456.34821     -5973.3647     -5882.8187     -1169.3627      33089.696      146.7275     
     41770   459.56329     -5974.3242     -5883.1403     -1356.6168      33087.923      146.6647     
     41780   456.23789     -5974.1169     -5883.5928     -1345.5011      33081.521      146.60359    
     41790   455.76693     -5974.6447     -5884.214      -1189.4623      33070.463      146.55502    
     41800   451.00546     -5974.4982     -5885.0122     -968.78003      33055.223      146.51834    
     41810   443.50075     -5973.9335     -5885.9366     -691.50498      33036.563      146.48163    
     41820   439.90436     -5974.1532     -5886.8699     -518.43325      33015.332      146.42745    
     41830   436.06537     -5974.2235     -5887.7019     -434.40463      32992.098      146.35014    
     41840   429.63086     -5973.5973     -5888.3524     -165.86022      32967.268      146.25285    
     41850   430.2539      -5974.1763     -5888.8077     -31.443417      32941.654      146.13322    
     41860   440.37885     -5976.4951     -5889.1176     -83.14404       32915.675      145.99495    
     41870   444.30828     -5977.4901     -5889.333       101.9578       32889.288      145.84905    
     41880   444.90108     -5977.7611     -5889.4864      196.46092      32863.021      145.70546    
     41890   452.24981     -5979.3344     -5889.6015      122.32907      32837.235      145.57204    
     41900   454.4674      -5979.8822     -5889.7094      84.446084      32811.729      145.44992    
     41910   449.1077      -5978.9282     -5889.8188      148.19014      32786.374      145.33022    
     41920   441.94374     -5977.6025     -5889.9146      267.57569      32761.382      145.20751    
     41930   440.63433     -5977.403      -5889.9748      344.80584      32737.127      145.08538    
     41940   447.3812      -5978.7697     -5890.0028      355.18862      32713.86       144.96603    
     41950   454.32238     -5980.1638     -5890.0198      361.83663      32691.677      144.8517     
     41960   458.58713     -5981.0431     -5890.0528      543.53911      32670.698      144.74551    
     41970   461.00602     -5981.5913     -5890.1211      602.50052      32651.371      144.65289    
     41980   456.67428     -5980.8402     -5890.2295      780.22413      32634.033      144.5782     
     41990   457.722       -5981.1899     -5890.3713      850.72735      32619.223      144.52068    
     42000   464.92343     -5982.8016     -5890.5542      814.63869      32607.175      144.48509    
     42010   464.29625     -5982.9214     -5890.7984      834.41383      32597.818      144.47006    
     42020   453.37604     -5981.053      -5891.0967      945.43706      32591.256      144.45678    
     42030   441.56011     -5979.0165     -5891.4046      1030.6816      32587.835      144.433      
     42040   435.16728     -5978.0226     -5891.6792      1006.2889      32587.809      144.40989    
     42050   438.97943     -5979.0055     -5891.9057      748.90354      32591.068      144.40744    
     42060   445.71513     -5980.5278     -5892.0916      423.85172      32596.793      144.42687    
     42070   448.62541     -5981.2753     -5892.2616      283.64238      32604.011      144.45586    
     42080   445.8602      -5980.8904     -5892.4253      248.98719      32612.234      144.48195    
     42090   443.99884     -5980.678      -5892.5822      213.99382      32621.357      144.51382    
     42100   444.24861     -5980.8743     -5892.729       72.834366      32631.215      144.56995    
     42110   439.00713     -5979.9635     -5892.8582     -46.858185      32641.356      144.65083    
     42120   433.86078     -5979.0333     -5892.9491     -63.057984      32651.42       144.74351    
     42130   435.2346      -5979.3417     -5892.9849     -111.93881      32661.31       144.83461    
     42140   433.70105     -5979.0073     -5892.9548      9.3381393      32670.954      144.9127     
     42150   432.07568     -5978.5865     -5892.8565      15.906658      32680.624      144.97356    
     42160   434.70319     -5978.9301     -5892.6787     -125.65719      32690.349      145.01706    
     42170   437.6011      -5979.2413     -5892.415      -252.72384      32699.678      145.04565    
     42180   439.03669     -5979.1868     -5892.0756     -283.7134       32708.214      145.06717    
     42190   437.30886     -5978.4192     -5891.6508     -288.65316      32715.834      145.0964     
     42200   435.70849     -5977.5875     -5891.1367     -267.08438      32722.521      145.14171    
     42210   441.02531     -5978.0372     -5890.5315     -298.52374      32728.352      145.19713    
     42220   449.8345      -5979.123      -5889.8694     -474.81025      32733.133      145.2589     
     42230   452.32292     -5978.9604     -5889.2131     -456.44469      32736.409      145.32687    
     42240   455.89484     -5979.0762     -5888.6201     -483.32279      32738.15       145.39613    
     42250   455.89035     -5978.5701     -5888.1149     -448.20427      32738.291      145.46314    
     42260   455.13684     -5978.02       -5887.7144     -337.06408      32736.966      145.52363    
     42270   455.60942     -5977.7981     -5887.3987     -246.93582      32734.495      145.56962    
     42280   460.26132     -5978.4851     -5887.1627     -225.07719      32731.139      145.5963     
     42290   462.17112     -5978.7004     -5886.9991     -45.803859      32727.061      145.61087    
     42300   458.854       -5977.9468     -5886.9036      307.88815      32722.864      145.62362    
     42310   450.75924     -5976.29       -5886.8529      663.53752      32719.717      145.64447    
     42320   447.42334     -5975.5913     -5886.8161      795.76219      32718.761      145.68258    
     42330   446.50101     -5975.3668     -5886.7746      754.90729      32720.5        145.74382    
     42340   446.54468     -5975.3258     -5886.7249      644.84777      32724.842      145.82842    
     42350   450.441       -5976.0439     -5886.67        510.11555      32731.407      145.92507    
     42360   458.42203     -5977.5769     -5886.6194      157.97038      32739.675      146.01294    
     42370   461.52634     -5978.1727     -5886.5993     -205.63206      32748.516      146.07607    
     42380   458.43793     -5977.5861     -5886.6254     -398.78002      32756.762      146.10218    
     42390   455.61303     -5977.0844     -5886.6842     -548.75737      32763.745      146.09149    
     42400   449.37929     -5975.9224     -5886.7591     -491.54859      32769.01       146.06004    
     42410   442.9209      -5974.7161     -5886.8342     -339.50062      32772.692      146.02504    
     42420   442.07739     -5974.5952     -5886.8807     -411.64926      32775.188      145.99539    
     42430   444.89398     -5975.1771     -5886.9038     -585.89604      32776.286      145.96998    
     42440   446.06354     -5975.4104     -5886.905      -722.98803      32775.403      145.94642    
     42450   449.27273     -5976.0337     -5886.8915     -735.65636      32772.088      145.91887    
     42460   453.6366      -5976.8826     -5886.8746     -611.07043      32766.287      145.88086    
     42470   455.73816     -5977.2931     -5886.8681     -251.31611      32758.448      145.83744    
     42480   454.14185     -5976.9939     -5886.8856      168.20957      32749.681      145.79906    
     42490   450.60309     -5976.3234     -5886.9173      551.39449      32741.371      145.77595    
     42500   449.32179     -5976.1121     -5886.9602      706.03491      32734.758      145.77209    
     42510   446.85145     -5975.6624     -5887.0006      640.16033      32730.369      145.78075    
     42520   446.63838     -5975.6587     -5887.0392      403.32308      32728.046      145.7905     
     42530   452.90886     -5976.9357     -5887.0721     -116.46658      32726.954      145.79344    
     42540   455.25085     -5977.444      -5887.1157     -412.27903      32725.551      145.78729    
     42550   453.76104     -5977.2162     -5887.1835     -409.19292      32722.817      145.77048    
     42560   454.86942     -5977.5359     -5887.2833     -203.96365      32718.734      145.7447     
     42570   456.00637     -5977.9028     -5887.4246      101.48554      32713.981      145.71732    
     42580   454.60012     -5977.8179     -5887.6187      367.80499      32709.525      145.6969     
     42590   453.15644     -5977.7812     -5887.8685      500.57893      32706.258      145.68407    
     42600   454.01925     -5978.2606     -5888.1767      377.52675      32704.589      145.67754    
     42610   453.94386     -5978.6162     -5888.5472      127.7504       32704.154      145.67852    
     42620   451.97102     -5978.6495     -5888.972      -71.231338      32704.179      145.69074    
     42630   447.4886      -5978.2269     -5889.4388     -283.02922      32703.929      145.71355    
     42640   435.67192     -5976.3494     -5889.9058     -276.28281      32702.807      145.73641    
     42650   428.94858     -5975.4393     -5890.3298     -402.51881      32700.702      145.74782    
     42660   433.85104     -5976.7683     -5890.686      -732.2378       32697.188      145.75041    
     42670   441.93997     -5978.6799     -5890.9927     -1116.2307      32691.147      145.75038    
     42680   442.5335      -5979.0751     -5891.2701     -1231.2259      32681.346      145.74347    
     42690   439.37926     -5978.6964     -5891.5173     -1072.5265      32667.365      145.72099    
     42700   436.90825     -5978.4111     -5891.7223     -686.89605      32649.736      145.67911    
     42710   440.92858     -5979.3688     -5891.8822     -308.88066      32629.617      145.61673    
     42720   442.94498     -5979.8914     -5892.0047      75.502002      32608.257      145.53485    
     42730   441.12276     -5979.6204     -5892.0953      457.49176      32586.972      145.44085    
     42740   440.44263     -5979.5424     -5892.1522      593.65331      32566.977      145.34483    
     42750   442.03325     -5979.8785     -5892.1728      598.92287      32548.761      145.25462    
     42760   441.11509     -5979.6819     -5892.1583      721.2173       32532.423      145.17997    
     42770   440.05937     -5979.4193     -5892.1052      948.61705      32518.403      145.13119    
     42780   443.85412     -5980.0781     -5892.0111      1061.5087      32507.377      145.11704    
     42790   440.87213     -5979.353      -5891.8777      1285.9698      32499.821      145.13497    
     42800   437.18246     -5978.4485     -5891.7052      1600.4851      32496.533      145.17199    
     42810   432.69711     -5977.3268     -5891.4735      1901.3201      32498.562      145.22863    
     42820   437.88863     -5978.0376     -5891.1542      1892.5752      32506.858      145.31774    
     42830   450.81815     -5980.2001     -5890.7513      1511.3218      32521.431      145.44041    
     42840   453.10758     -5980.1979     -5890.2948      1149.8533      32541.18       145.58392    
     42850   445.38941     -5978.1885     -5889.8168      913.07484      32564.994      145.73871    
     42860   445.98871     -5977.7944     -5889.3039      481.23196      32592.029      145.8973     
     42870   449.87635     -5978.0134     -5888.7515      65.583683      32620.958      146.05418    
     42880   453.60941     -5978.1936     -5888.191      -361.44156      32650.363      146.20715    
     42890   461.7352      -5979.2754     -5887.6605     -680.2926       32678.842      146.35547    
     42900   465.08085     -5979.4797     -5887.201      -780.01453      32705.316      146.50322    
     42910   457.77647     -5977.6743     -5886.8449     -540.54765      32729.447      146.65583    
     42920   448.77826     -5975.6115     -5886.5674     -181.87728      32751.963      146.81277    
     42930   451.53253     -5975.9216     -5886.3311     -86.593792      32773.929      146.96518    
     42940   458.20501     -5977.04       -5886.1256     -223.1452       32795.693      147.10254    
     42950   460.36647     -5977.3162     -5885.9729     -533.53759      32816.793      147.22165    
     42960   456.16933     -5976.3842     -5885.8736     -766.22097      32836.255      147.32632    
     42970   452.78175     -5975.6495     -5885.8112     -802.74116      32853.353      147.42387    
     42980   456.55473     -5976.3633     -5885.7763     -851.15707      32867.84       147.51987    
     42990   459.67448     -5976.9803     -5885.7743     -902.25572      32879.516      147.61038    
     43000   455.59074     -5976.2032     -5885.8075     -803.92117      32888.238      147.68677    
     43010   453.18417     -5975.7773     -5885.8591     -756.99781      32894.271      147.7442     
     43020   456.1103      -5976.4197     -5885.9209     -770.41252      32897.756      147.78353    
     43030   458.28633     -5976.9283     -5885.9978     -595.71072      32898.736      147.80615    
     43040   459.91067     -5977.3546     -5886.1018     -459.22935      32897.688      147.8187     
     43050   458.84693     -5977.2795     -5886.2377     -415.85065      32895.028      147.8297     
     43060   451.56315     -5975.9879     -5886.3913     -402.60913      32890.907      147.83547    
     43070   444.56495     -5974.741      -5886.5329     -469.85674      32885.341      147.83089    
     43080   443.36251     -5974.6168     -5886.6473     -612.25264      32878.09       147.81471    
     43090   441.73541     -5974.3762     -5886.7296     -665.18966      32868.745      147.78894    
     43100   441.13073     -5974.3052     -5886.7785     -624.80012      32857.106      147.75637    
     43110   445.02112     -5975.0885     -5886.7899     -620.5124       32843.264      147.71587    
     43120   447.76788     -5975.6224     -5886.7789     -581.92027      32827.239      147.66316    
     43130   449.92156     -5976.0264     -5886.7555     -532.01679      32809.135      147.59343    
     43140   458.25171     -5977.6677     -5886.744      -500.99637      32789.093      147.50474    
     43150   459.59429     -5977.949      -5886.7589     -215.22615      32767.284      147.40387    
     43160   456.72062     -5977.4308     -5886.8109      257.58522      32744.674      147.3049     
     43170   457.34369     -5977.6318     -5886.8883      619.67772      32722.742      147.21718    
     43180   459.05005     -5978.0782     -5886.9961      937.04752      32702.733      147.14371    
     43190   455.66754     -5977.552      -5887.141       1180.3298      32685.728      147.09089    
     43200   448.66764     -5976.3333     -5887.3112      1315.9133      32672.553      147.0655     
     43210   446.40567     -5976.0623     -5887.489       1301.281       32663.632      147.06706    
     43220   451.50671     -5977.2612     -5887.6758      1231.5423      32658.993      147.08664    
     43230   449.74259     -5977.1199     -5887.8845      1311.7666      32658.504      147.11674    
     43240   446.80614     -5976.7694     -5888.1167      1379.4443      32662.417      147.15323    
     43250   448.36293     -5977.3348     -5888.3732      1306.6647      32670.998      147.18999    
     43260   444.74018     -5976.9027     -5888.6599      1234.475       32684.107      147.22367    
     43270   439.00946     -5976.0707     -5888.9649      1116.3426      32701.512      147.26078    
     43280   441.9267      -5976.9701     -5889.2855      885.46495      32722.838      147.31799    
     43290   447.59243     -5978.4481     -5889.6394      537.87528      32747.367      147.4118     
     43300   449.12281     -5979.1652     -5890.0528      228.81764      32774.017      147.54532    
     43310   443.24596     -5978.4906     -5890.5443      69.759899      32801.773      147.70471    
     43320   440.81082     -5978.5573     -5891.0941     -65.416361      32830.085      147.87128    
     43330   441.60773     -5979.308      -5891.6867     -294.68013      32858.449      148.03431    
     43340   432.65338     -5978.1357     -5892.2911     -340.56789      32886.194      148.19307    
     43350   423.86496     -5976.9452     -5892.8443     -453.49481      32913.073      148.3403     
     43360   428.46068     -5978.3203     -5893.3076     -806.61908      32938.657      148.46053    
     43370   435.02677     -5980.0009     -5893.6853     -1178.8319      32961.783      148.5412     
     43380   436.68839     -5980.6359     -5893.9906     -1587.3558      32981.117      148.58089    
     43390   436.48474     -5980.8391     -5894.2343     -1963.4455      32995.258      148.59418    
     43400   437.40815     -5981.2108     -5894.4228     -2133.8189      33002.886      148.59602    
     43410   437.19073     -5981.3093     -5894.5644     -2095.8702      33003.308      148.5906     
     43420   435.77977     -5981.124      -5894.6591     -1946.2936      32996.536      148.575      
     43430   432.34246     -5980.4854     -5894.7024     -1630.8989      32983.028      148.54694    
     43440   429.92225     -5979.9858     -5894.6831     -1209.7227      32963.75       148.50257    
     43450   432.29632     -5980.3612     -5894.5874     -889.9391       32940.031      148.44186    
     43460   436.82265     -5981.0969     -5894.4251     -796.27971      32912.884      148.36557    
     43470   435.55667     -5980.6274     -5894.2068     -692.72381      32882.669      148.2725     
     43480   433.03521     -5979.8529     -5893.9325     -578.52597      32849.712      148.16718    
     43490   430.02582     -5978.9165     -5893.5932     -331.74267      32814.372      148.05838    
     43500   430.3571      -5978.5657     -5893.1767      60.677349      32777.474      147.96079    
     43510   439.19493     -5979.8379     -5892.6953      320.35254      32740.236      147.88571    
     43520   441.90332     -5979.8639     -5892.1839      689.62465      32703.624      147.82748    
     43530   444.35368     -5979.85       -5891.6838      891.86025      32668.815      147.76698    
     43540   453.50743     -5981.2083     -5891.2259      1006.1071      32636.583      147.69124    
     43550   460.38645     -5982.1926     -5890.8454      1168.2789      32607.337      147.59934    
     43560   460.37553     -5981.9121     -5890.567       1412.1677      32581.654      147.49854    
     43570   459.71963     -5981.5928     -5890.3778      1583.0975      32560.321      147.40524    
     43580   463.45969     -5982.2219     -5890.2649      1609.651       32543.915      147.33401    
     43590   468.28216     -5983.1418     -5890.228       1638.9332      32532.656      147.29032    
     43600   464.5015      -5982.4307     -5