LAMMPS (2 Aug 2023)
OMP_NUM_THREADS environment is not set. Defaulting to 1 thread. (src/comm.cpp:98)
  using 1 OpenMP thread(s) per MPI task
read_restart    ../structure.ready
Reading restart file ...
  restart file = 2 Aug 2023, LAMMPS = 2 Aug 2023
  restoring atom style full from restart
  orthogonal box = (-0.19987933 -0.17334996 -8.6459149) to (25.130492 25.103962 83.437752)
  1 by 1 by 1 MPI processor grid
  pair style chgnet/gpu stores no restart info
  1536 atoms
Finding 1-2 1-3 1-4 neighbors ...
  special bond factors lj:    0        0        0       
  special bond factors coul:  0        0        0       
     0 = max # of 1-2 neighbors
     0 = max # of 1-3 neighbors
     0 = max # of 1-4 neighbors
     1 = max # of special neighbors
  special bonds CPU = 0.000 seconds
  read_restart CPU = 0.003 seconds

pair_style      chgnet/gpu /nfs/turbo/coe-venkvis/ziqiw-turbo/LAMMPSs/lammps-ASC/potentials/CHGNET
pair_coeff      * * 0.3.0 Cl K Li

neighbor        0.3 bin
neigh_modify    delay 10

timestep	    0.001
compute	        msd all msd
Resetting peratom fix info from restart file:
  fix style: STORE/ATOM, fix ID: msd_COMPUTE_STORE
thermo_style	custom step temp pe etotal press vol c_msd[4]
thermo	        10
dump	        1 all custom 10 xyz-mix.dump type id x y z
dump	        2 all custom 10 force-mix.dump type id fx fy fz

fix             3 gLiquid npt temp 1500 136.0 $(100.0*dt) z 1.01325 1.01325 $(1000.0*dt) couple none
fix             3 gLiquid npt temp 1500 136.0 0.10000000000000000555 z 1.01325 1.01325 $(1000.0*dt) couple none
fix             3 gLiquid npt temp 1500 136.0 0.10000000000000000555 z 1.01325 1.01325 1 couple none
run             10000
All restart file peratom fix info was re-assigned
Neighbor list info ...
  update: every = 1 steps, delay = 10 steps, check = yes
  max neighbors/atom: 2000, page size: 100000
  master list distance cutoff = 6.3
  ghost atom cutoff = 6.3
  binsize = 3.15, bins = 9 9 30
  1 neighbor lists, perpetual/occasional/extra = 1 0 0
  (1) pair chgnet/gpu, perpetual
      attributes: full, newton on
      pair build: full/bin
      stencil: full/bin/3d
      bin: standard
Per MPI rank memory allocation (min/avg/max) = 6.538 | 6.538 | 6.538 Mbytes
   Step          Temp          PotEng         TotEng         Press          Volume        c_msd[4]   
     40000   1475.1074     -5374.537      -5081.8546      3094.8051      58959.67       119.19679    
     40010   1463.263      -5372.1292     -5081.7968      2934.5598      58960.045      119.30063    
     40020   1468.8955     -5373.0641     -5081.6142      2808.678       58960.97       119.39762    
     40030   1491.6705     -5377.3037     -5081.3349      2752.2666      58962.146      119.48646    
     40040   1518.0228     -5382.2007     -5081.0032      2842.6879      58963.359      119.58409    
     40050   1552.7124     -5388.8628     -5080.7824      2728.8784      58964.515      119.70689    
     40060   1539.7412     -5386.2433     -5080.7366      2878.0791      58965.52       119.84621    
     40070   1515.4281     -5381.5752     -5080.8926      3080.8522      58966.501      119.97063    
     40080   1490.4956     -5376.8914     -5081.1557      3308.4279      58967.686      120.09449    
     40090   1489.7495     -5377.0569     -5081.4692      3496.0732      58969.248      120.2369     
     40100   1473.6747     -5374.2001     -5081.8019      3784.9934      58970.984      120.38307    
     40110   1474.1103     -5374.6285     -5082.1439      3823.3869      58972.879      120.51626    
     40120   1488.5083     -5377.8274     -5082.486       3565.7382      58975.18       120.64638    
     40130   1481.9232     -5376.9382     -5082.9034      3421.7412      58978.052      120.79353    
     40140   1472.5163     -5375.5481     -5083.3798      3269.5111      58981.656      120.94606    
     40150   1472.0684     -5376.0059     -5083.9264      2990.3285      58985.91       121.0778     
     40160   1471.269      -5376.4669     -5084.5461      2778.9687      58990.482      121.16748    
     40170   1476.9094     -5378.3071     -5085.2671      2774.6547      58995.189      121.21848    
     40180   1467.8607     -5377.359      -5086.1144      3071.6397      59000.039      121.27676    
     40190   1454.4271     -5375.6429     -5087.0638      3317.3139      59005.233      121.38979    
     40200   1452.3878     -5376.2549     -5088.0803      3213.6954      59010.775      121.54946    
     40210   1446.4065     -5376.1458     -5089.158       3111.2514      59016.418      121.71409    
     40220   1439.9142     -5375.9443     -5090.2447      3028.174       59022.172      121.8683     
     40230   1458.5462     -5380.7487     -5091.3522      2702.6994      59028.176      122.03223    
     40240   1472.6945     -5384.7092     -5092.5055      2291.4559      59034.305      122.19821    
     40250   1467.0011     -5384.8213     -5093.7473      2023.987       59040.261      122.35104    
     40260   1449.3261     -5382.5786     -5095.0116      1949.2898      59045.636      122.49508    
     40270   1458.3438     -5385.6324     -5096.2761      1830.8162      59050.315      122.63191    
     40280   1449.9653     -5385.2285     -5097.5346      1986.8175      59054.327      122.74021    
     40290   1414.3602     -5379.3237     -5098.6944      2461.7472      59057.921      122.81146    
     40300   1405.218      -5378.491      -5099.6756      2801.8903      59061.612      122.85288    
     40310   1406.7751     -5379.5625     -5100.4382      2865.1583      59065.977      122.88359    
     40320   1419.4808     -5382.6599     -5101.0146      2536.75        59071.19       122.92002    
     40330   1418.1155     -5382.8035     -5101.429       2283.4211      59077.161      122.97738    
     40340   1421.6101     -5383.7867     -5101.7189      2179.1377      59083.843      123.05532    
     40350   1429.0114     -5385.4266     -5101.8903      2166.2028      59091.258      123.15151    
     40360   1444.4612     -5388.5929     -5101.9911      2223.4926      59099.438      123.26398    
     40370   1454.6321     -5390.6777     -5102.0579      2380.6525      59108.257      123.38641    
     40380   1448.0176     -5389.4348     -5102.1274      2613.6593      59117.477      123.49896    
     40390   1457.7683     -5391.464      -5102.2219      2595.1689      59126.589      123.59157    
     40400   1429.0412     -5385.8866     -5102.3444      2935.7797      59135.036      123.67268    
     40410   1396.7908     -5379.5354     -5102.3921      3470.5138      59142.931      123.76261    
     40420   1416.643      -5383.3846     -5102.3024      3320.3654      59150.739      123.87291    
     40430   1434.8322     -5386.786      -5102.0947      2852.6477      59158.536      123.99945    
     40440   1438.9401     -5387.3328     -5101.8264      2450.6599      59166.019      124.1274     
     40450   1440.5338     -5387.3368     -5101.5142      2237.8108      59172.524      124.23759    
     40460   1431.5474     -5385.197      -5101.1575      2367.0653      59177.451      124.33723    
     40470   1433.7067     -5385.2032     -5100.7353      2384.3944      59180.88       124.46935    
     40480   1432.6583     -5384.4657     -5100.2058      2418.6017      59183.098      124.62364    
     40490   1419.0046     -5381.1266     -5099.5758      2433.3668      59184.352      124.766      
     40500   1426.4505     -5381.8118     -5098.7836      2200.7014      59184.761      124.87268    
     40510   1451.5726     -5385.8317     -5097.8189      1936.3777      59184.087      124.9464     
     40520   1472.0136     -5388.8123     -5096.7437      1999.5749      59182.07       125.01211    
     40530   1494.7846     -5392.2832     -5095.6965      2192.3807      59179.059      125.09782    
     40540   1482.8524     -5388.9664     -5094.7473      2439.6698      59175.625      125.20177    
     40550   1482.3179     -5388.0696     -5093.9565      2376.2743      59172.152      125.28719    
     40560   1491.0122     -5389.1591     -5093.3209      2076.9014      59168.579      125.35509    
     40570   1479.3104     -5386.4081     -5092.8917      2055.3825      59164.487      125.43977    
     40580   1461.8663     -5382.7214     -5092.6662      2348.2566      59159.584      125.53315    
     40590   1449.8174     -5380.2415     -5092.5769      2620.318       59154.07       125.64121    
     40600   1439.6748     -5378.2661     -5092.614       2975.2419      59148.347      125.77863    
     40610   1434.7531     -5377.418      -5092.7424      3124.6145      59143.015      125.91934    
     40620   1446.6393     -5379.9829     -5092.9489      2969.6524      59138.603      126.0561     
     40630   1431.2597     -5377.2784     -5093.296       3119.2508      59134.964      126.2112     
     40640   1417.3494     -5374.964      -5093.7416      3185.3687      59132.146      126.3961     
     40650   1419.8479     -5376.0007     -5094.2826      3092.4098      59130.315      126.58694    
     40660   1423.8386     -5377.4099     -5094.8999      3133.8031      59129.471      126.76653    
     40670   1431.4025     -5379.6409     -5095.6301      3218.9313      59129.485      126.93854    
     40680   1439.2882     -5382.1077     -5096.5323      3359.0857      59130.275      127.1053     
     40690   1442.2762     -5383.8043     -5097.6361      3339.7145      59132.025      127.25961    
     40700   1448.7524     -5386.4128     -5098.9596      3098.002       59134.64       127.38697    
     40710   1443.2249     -5386.886      -5100.5295      2681.3025      59137.615      127.50106    
     40720   1422.9558     -5384.5646     -5102.2298      2515.8635      59140.874      127.6535     
     40730   1426.6267     -5387.0636     -5104.0004      2634.6004      59144.738      127.86424    
     40740   1411.6994     -5385.8397     -5105.7383      3002.4014      59149.494      128.1176     
     40750   1400.3472     -5385.2051     -5107.3561      3315.8495      59155.475      128.3714     
     40760   1420.1633     -5390.61       -5108.8293      3226.8494      59162.775      128.60894    
     40770   1433.6239     -5394.6566     -5110.2051      2931.8561      59170.899      128.85342    
     40780   1419.0742     -5393.0669     -5111.5022      2713.5589      59179.063      129.10527    
     40790   1421.2352     -5394.7097     -5112.7163      2264.7338      59186.683      129.35838    
     40800   1420.2807     -5395.6659     -5113.8619      2005.2378      59193.247      129.608      
     40810   1394.0921     -5391.5079     -5114.9001      2072.3617      59198.688      129.84023    
     40820   1394.2566     -5392.4817     -5115.8412      2149.9297      59203.125      130.04643    
     40830   1383.0789     -5391.0861     -5116.6634      2319.8183      59206.566      130.22405    
     40840   1366.5201     -5388.5189     -5117.3818      2352.3172      59209.094      130.38302    
     40850   1347.0202     -5385.1974     -5117.9293      2186.5557      59210.619      130.53035    
     40860   1348.7972     -5385.9474     -5118.3267      1883.7866      59210.806      130.67356    
     40870   1343.7466     -5385.1827     -5118.5642      1679.4131      59209.369      130.82244    
     40880   1363.6963     -5389.2524     -5118.6756      1282.5029      59206.159      130.97819    
     40890   1382.8389     -5393.0977     -5118.7226      1034.8564      59200.844      131.12997    
     40900   1381.203      -5392.8325     -5118.7821      1188.0229      59193.259      131.28599    
     40910   1400.2045     -5396.6975     -5118.8769      1368.5692      59183.425      131.44192    
     40920   1419.6683     -5400.7372     -5119.0547      1563.8856      59171.328      131.57414    
     40930   1415.9068     -5400.3453     -5119.4092      1778.7912      59156.826      131.66682    
     40940   1393.4812     -5396.4163     -5119.9296      2081.9534      59139.931      131.73226    
     40950   1379.4985     -5394.2509     -5120.5386      2210.9316      59121.286      131.78743    
     40960   1359.7735     -5390.9674     -5121.1689      2376.0061      59101.535      131.83569    
     40970   1338.8763     -5387.4196     -5121.7673      2780.6484      59081.071      131.88948    
     40980   1337.0256     -5387.5602     -5122.2752      3018.4015      59060.632      131.98026    
     40990   1353.137      -5391.1681     -5122.6863      2868.6451      59040.997      132.12242    
     41000   1380.2434     -5396.9509     -5123.0909      2599.5375      59022.199      132.29893    
     41010   1375.4285     -5396.4741     -5123.5694      2801.456       59003.841      132.48076    
     41020   1332.5276     -5388.4977     -5124.1051      3466.5803      58986.01       132.64078    
     41030   1318.4153     -5386.1243     -5124.5318      3886.6611      58969.109      132.76354    
     41040   1355.861      -5393.9139     -5124.8917      3678.4496      58953.152      132.87273    
     41050   1372.9434     -5397.6779     -5125.2662      3532.2882      58937.882      132.99554    
     41060   1390.1115     -5401.5363     -5125.7182      3131.1717      58923.505      133.1485     
     41070   1383.5107     -5400.8672     -5126.3588      2729.4848      58910.361      133.34345    
     41080   1365.3206     -5398.0781     -5127.179       2291.1034      58898.429      133.55729    
     41090   1348.594      -5395.7161     -5128.1357      1908.0372      58887.19       133.77057    
     41100   1334.9234     -5394.0421     -5129.1742      1695.027       58876.084      133.97296    
     41110   1323.986      -5392.9362     -5130.2384      1858.2282      58864.789      134.16019    
     41120   1303.2969     -5389.8757     -5131.283       2101.81        58853.238      134.32258    
     41130   1314.406      -5393.0504     -5132.2534      2023.9867      58841.333      134.44928    
     41140   1324.4676     -5395.9838     -5133.1904      1821.0195      58828.878      134.57163    
     41150   1318.0496     -5395.6165     -5134.0965      1764.3169      58815.769      134.71238    
     41160   1340.1405     -5400.913      -5135.0099      1672.9358      58802.227      134.87961    
     41170   1348.0391     -5403.4362     -5135.9659      1686.9775      58788.643      135.06567    
     41180   1365.4679     -5407.9739     -5137.0455      1526.0658      58774.984      135.25444    
     41190   1365.8477     -5409.2933     -5138.2896      1460.8725      58760.473      135.42864    
     41200   1338.0733     -5405.1812     -5139.6882      1736.9839      58744.595      135.58421    
     41210   1325.7006     -5404.1418     -5141.1039      1963.8622      58727.603      135.71918    
     41220   1339.9769     -5408.387      -5142.5164      1746.5162      58709.892      135.82348    
     41230   1336.5115     -5409.104      -5143.921       1697.6627      58691.262      135.90878    
     41240   1308.3587     -5404.8333     -5145.2361      1924.9383      58671.539      135.98034    
     41250   1302.7259     -5404.8486     -5146.3691      1848.8828      58650.708      136.03795    
     41260   1309.856      -5407.21       -5147.3158      1638.8899      58628.441      136.09759    
     41270   1304.7623     -5406.9602     -5148.0767      1572.8035      58604.628      136.18708    
     41280   1300.4994     -5406.7002     -5148.6625      1456.7502      58579.631      136.30768    
     41290   1290.7123     -5405.1716     -5149.0758      1527.5669      58553.409      136.43255    
     41300   1285.4439     -5404.3762     -5149.3257      1845.4293      58525.792      136.53361    
     41310   1283.4119     -5404.0573     -5149.4099      2192.2359      58496.932      136.58078    
     41320   1285.4596     -5404.4011     -5149.3475      2453.7271      58467.111      136.57747    
     41330   1286.8664     -5404.5051     -5149.1724      2660.3085      58436.713      136.55706    
     41340   1285.8414     -5404.0521     -5148.9228      2719.2833      58406.03       136.54023    
     41350   1268.3672     -5400.2388     -5148.5766      2855.9704      58375.136      136.52729    
     41360   1257.6648     -5397.6592     -5148.1205      2944.1498      58344.146      136.51272    
     41370   1244.888      -5394.5299     -5147.5263      3113.3583      58312.982      136.49255    
     41380   1251.4144     -5395.0961     -5146.7975      3078.8547      58281.547      136.49396    
     41390   1277.5183     -5399.4265     -5145.9486      2901.3838      58249.937      136.49886    
     41400   1298.021      -5402.6005     -5145.0545      2932.4032      58218.334      136.48784    
     41410   1324.8441     -5407.0961     -5144.228       2927.8397      58187.157      136.48142    
     41420   1320.9622     -5405.6246     -5143.5268      3141.5267      58156.846      136.50753    
     41430   1303.7208     -5401.6157     -5142.9388      3266.6551      58127.748      136.57642    
     41440   1324.642      -5405.28       -5142.4521      2944.911       58100.016      136.67295    
     41450   1325.149      -5404.9827     -5142.0541      2726.5934      58073.634      136.77401    
     41460   1327.6549     -5405.2115     -5141.7858      2528.3058      58048.372      136.8841     
     41470   1337.9684     -5407.121      -5141.6489      2369.7502      58023.868      137.00501    
     41480   1334.0167     -5406.345      -5141.6569      2295.4228      57999.708      137.10505    
     41490   1323.8233     -5404.4572     -5141.7917      2263.1819      57975.747      137.16574    
     41500   1331.4289     -5406.2131     -5142.0386      2215.5237      57952.171      137.19968    
     41510   1341.2939     -5408.5605     -5142.4286      2137.5206      57929.175      137.21406    
     41520   1342.1661     -5409.2849     -5142.9799      2116.2829      57906.794      137.2148     
     41530   1333.1667     -5408.2452     -5143.7259      2137.8651      57884.883      137.20836    
     41540   1310.1326     -5404.5348     -5144.5857      2306.427       57863.382      137.20441    
     41550   1320.0886     -5407.4601     -5145.5356      2221.5529      57842.413      137.22327    
     41560   1317.8044     -5408.0504     -5146.5791      2221.413       57821.86       137.28142    
     41570   1312.7787     -5408.1555     -5147.6814      2187.288       57801.383      137.3609     
     41580   1318.6438     -5410.4868     -5148.849       1942.0083      57780.562      137.44393    
     41590   1307.3899     -5409.4592     -5150.0544      1737.6254      57758.867      137.52454    
     41600   1300.3726     -5409.2578     -5151.2453      1650.0837      57736.188      137.60285    
     41610   1284.4122     -5407.2125     -5152.3667      1869.8562      57712.592      137.68918    
     41620   1271.0398     -5405.5225     -5153.33        2230.211       57688.382      137.7786     
     41630   1281.4354     -5408.4115     -5154.1564      2416.1324      57663.949      137.84155    
     41640   1296.5823     -5412.1351     -5154.8746      2414.3019      57639.437      137.8765     
     41650   1302.6115     -5414.0226     -5155.5658      2294.405       57614.74       137.88837    
     41660   1312.4275     -5416.6538     -5156.2494      2108.8077      57589.508      137.88331    
     41670   1329.3589     -5420.785      -5157.0212      1891.9287      57563.226      137.86961    
     41680   1315.2226     -5418.8492     -5157.8902      1893.3552      57535.414      137.84824    
     41690   1301.5999     -5417.0387     -5158.7826      1843.7969      57506.094      137.81594    
     41700   1307.59       -5419.1353     -5159.6907      1649.7656      57475.452      137.76223    
     41710   1293.1284     -5417.1727     -5160.5975      1783.3566      57443.57       137.69358    
     41720   1294.8799     -5418.4442     -5161.5215      2047.7561      57410.499      137.61277    
     41730   1266.0504     -5413.5941     -5162.3916      2605.7603      57376.313      137.53634    
     41740   1258.0829     -5412.7998     -5163.1781      2890.19        57341.41       137.48389    
     41750   1241.1515     -5410.0957     -5163.8335      3172.2416      57306.075      137.46918    
     41760   1254.0106     -5413.1873     -5164.3736      3122.4044      57270.463      137.47821    
     41770   1263.3756     -5415.5226     -5164.8508      3113.891       57234.619      137.48413    
     41780   1253.5492     -5414.0116     -5165.2895      3262.1448      57198.671      137.47733    
     41790   1265.2092     -5416.7527     -5165.7171      3326.9185      57162.696      137.4583     
     41800   1267.2257     -5417.5811     -5166.1453      3497.7449      57126.602      137.42459    
     41810   1260.7485     -5416.7571     -5166.6065      3717.2942      57090.4        137.36772    
     41820   1266.7498     -5418.4193     -5167.078       3773.4704      57054.144      137.30295    
     41830   1286.4226     -5422.8556     -5167.6109      3523.7501      57017.942      137.25481    
     41840   1296.4635     -5425.5114     -5168.2744      3238.9971      56981.756      137.21972    
     41850   1292.9615     -5425.6425     -5169.1004      3132.2694      56945.59       137.16683    
     41860   1279.9266     -5424.0249     -5170.0691      2988.4831      56909.65       137.08923    
     41870   1282.9755     -5425.7238     -5171.163       2770.2949      56873.876      137.01194    
     41880   1277.857      -5425.8984     -5172.3533      2720.6108      56838.073      136.93652    
     41890   1271.6585     -5425.9156     -5173.6004      2832.6513      56802.236      136.84394    
     41900   1252.561      -5423.3727     -5174.8466      3259.7615      56766.529      136.74809    
     41910   1244.0529     -5422.8208     -5175.9829      3496.9367      56731.171      136.68195    
     41920   1280.3481     -5431.1045     -5177.0651      3248.8317      56696.277      136.65611    
     41930   1300.6572     -5436.2648     -5178.1958      2960.7458      56661.757      136.63984    
     41940   1282.3378     -5433.8104     -5179.3762      2969.3966      56627.506      136.61084    
     41950   1273.7956     -5433.2966     -5180.5573      2916.4461      56593.571      136.55861    
     41960   1263.4846     -5432.38       -5181.6866      2792.7803      56559.96       136.47846    
     41970   1245.2261     -5429.7891     -5182.7184      2929.6404      56526.794      136.38436    
     41980   1229.3851     -5427.5299     -5183.6023      3204.0907      56494.611      136.31352    
     41990   1235.1217     -5429.4192     -5184.3534      3179.6402      56463.953      136.29598    
     42000   1245.2623     -5432.0929     -5185.015       2981.3164      56435.006      136.35456    
     42010   1248.8848     -5433.4698     -5185.6732      2735.81        56407.574      136.44763    
     42020   1256.6656     -5435.7026     -5186.3622      2596.6661      56380.911      136.52979    
     42030   1230.6007     -5431.2433     -5187.0745      2863.113       56354.572      136.59306    
     42040   1217.5884     -5429.3361     -5187.7491      3087.8569      56328.869      136.62057    
     42050   1220.5973     -5430.5303     -5188.3463      3103.6524      56303.78       136.60689    
     42060   1248.8095     -5436.7386     -5188.957       3004.2824      56279.123      136.55636    
     42070   1248.2567     -5437.2931     -5189.6211      3212.3255      56255.099      136.49051    
     42080   1233.5732     -5435.1119     -5190.3533      3416.6945      56232.07       136.43531    
     42090   1245.4913     -5438.2515     -5191.1282      3281.8116      56210.289      136.42123    
     42100   1253.9005     -5440.7754     -5191.9836      3147.577       56189.915      136.44637    
     42110   1252.609      -5441.506      -5192.9704      2998.2245      56170.839      136.49045    
     42120   1235.239      -5439.1194     -5194.0303      2866.6462      56152.904      136.53815    
     42130   1217.1742     -5436.6185     -5195.1137      2786.7502      56136.081      136.56789    
     42140   1198.6008     -5433.9445     -5196.1249      2871.6927      56120.193      136.57394    
     42150   1215.2376     -5438.172      -5197.0514      3033.1947      56105.426      136.56795    
     42160   1231.2691     -5442.2399     -5197.9384      3313.1471      56092.118      136.57775    
     42170   1239.9558     -5444.8755     -5198.8505      3498.1058      56080.488      136.60172    
     42180   1235.0626     -5444.8792     -5199.825       3648.5382      56070.44       136.60951    
     42190   1230.5894     -5445.0059     -5200.8393      3568.338       56061.816      136.58853    
     42200   1226.2312     -5445.1633     -5201.8615      3520.5809      56054.503      136.56451    
     42210   1213.0749     -5443.5498     -5202.8584      3668.6417      56048.339      136.55206    
     42220   1202.5154     -5442.3999     -5203.8036      3805.1559      56043.197      136.54408    
     42230   1195.3665     -5441.8337     -5204.6559      3838.9789      56038.907      136.53116    
     42240   1195.3834     -5442.5958     -5205.4146      3773.2941      56035.501      136.51853    
     42250   1202.2919     -5444.6558     -5206.1038      3684.243       56033.221      136.52052    
     42260   1216.3262     -5448.1077     -5206.7711      3547.5279      56032.081      136.54413    
     42270   1234.671      -5452.4553     -5207.4789      3467.4828      56031.826      136.58372    
     42280   1242.7078     -5454.8719     -5208.3009      3432.954       56032.394      136.63579    
     42290   1226.38       -5452.5699     -5209.2386      3579.568       56034.011      136.7027     
     42300   1205.8961     -5449.4854     -5210.2183      3669.1183      56036.815      136.77356    
     42310   1195.1363     -5448.3073     -5211.1751      3780.195       56040.69       136.83802    
     42320   1193.9534     -5448.9708     -5212.0734      3884.0147      56045.621      136.90972    
     42330   1193.1677     -5449.6644     -5212.9229      3974.8105      56051.746      136.97567    
     42340   1191.8912     -5450.2163     -5213.728       4033.0816      56059.102      137.01809    
     42350   1192.0225     -5451.0176     -5214.5032      3921.2889      56067.463      137.05012    
     42360   1197.1266     -5452.7739     -5215.2469      3529.597       56076.593      137.10235    
     42370   1211.7992     -5456.4481     -5216.0098      3023.7109      56086.132      137.18162    
     42380   1202.7462     -5455.4645     -5216.8224      2869.2589      56095.56       137.27345    
     42390   1189.4179     -5453.6481     -5217.6505      2840.9067      56104.734      137.37351    
     42400   1184.8318     -5453.5664     -5218.4788      2817.6038      56113.796      137.47751    
     42410   1160.114      -5449.4341     -5219.2508      3087.0642      56122.982      137.57789    
     42420   1131.6109     -5444.4199     -5219.8921      3366.0866      56132.419      137.65714    
     42430   1145.9565     -5447.7473     -5220.3731      3174.4475      56141.87       137.71513    
     42440   1152.4086     -5449.3762     -5220.7218      2887.4318      56150.684      137.7855     
     42450   1148.6465     -5448.8983     -5220.9904      2748.2187      56158.254      137.87013    
     42460   1150.1524     -5449.3956     -5221.1889      2783.7386      56164.296      137.95357    
     42470   1141.4881     -5447.8037     -5221.3161      2973.0845      56168.952      138.0425     
     42480   1145.9983     -5448.7581     -5221.3756      3058.4868      56172.648      138.12411    
     42490   1155.0024     -5450.5404     -5221.3714      3157.0461      56175.704      138.19057    
     42500   1163.4097     -5452.192      -5221.3549      3267.1927      56178.335      138.2492     
     42510   1163.5212     -5452.2023     -5221.343       3439.2741      56180.666      138.32961    
     42520   1159.6743     -5451.4629     -5221.3669      3590.6365      56182.597      138.44903    
     42530   1145.9487     -5448.7603     -5221.3876      3744.1599      56183.966      138.59438    
     42540   1143.1356     -5448.201      -5221.3866      3629.8792      56184.767      138.75277    
     42550   1144.9802     -5448.5255     -5221.345       3333.9844      56185.084      138.91544    
     42560   1139.8853     -5447.436      -5221.2665      3141.3281      56184.957      139.06461    
     42570   1148.5832     -5449.0543     -5221.159       2957.5613      56184.395      139.20169    
     42580   1153.1258     -5449.8248     -5221.0282      2879.156       56183.265      139.33007    
     42590   1160.1315     -5451.0963     -5220.9096      2861.2313      56181.478      139.42965    
     42600   1151.003      -5449.1924     -5220.8169      3060.5258      56178.913      139.50028    
     42610   1158.6656     -5450.6455     -5220.7496      2999.8498      56175.639      139.54755    
     42620   1157.5421     -5450.4005     -5220.7276      2871.426       56171.806      139.56905    
     42630   1146.9441     -5448.3314     -5220.7613      2819.3303      56167.471      139.56894    
     42640   1143.5295     -5447.7103     -5220.8177      2813.9724      56162.693      139.55945    
     42650   1154.2202     -5449.9329     -5220.919       2653.0855      56157.566      139.55268    
     42660   1155.0472     -5450.2819     -5221.104       2670.1669      56152.075      139.55775    
     42670   1128.25       -5445.2428     -5221.3818      2880.9073      56146.338      139.59135    
     42680   1102.3421     -5440.4022     -5221.6818      2889.3356      56140.698      139.66617    
     42690   1098.6641     -5439.9089     -5221.9182      2572.205       56135.267      139.76278    
     42700   1112.006      -5442.7035     -5222.0656      2183.8488      56129.842      139.85074    
     42710   1126.1854     -5445.6193     -5222.168       1938.3214      56124.147      139.91114    
     42720   1134.9784     -5447.4661     -5222.2701      1934.7991      56117.887      139.95632    
     42730   1123.5003     -5445.3223     -5222.4037      2272.1933      56110.856      139.9954     
     42740   1110.5591     -5442.8793     -5222.5284      2740.9798      56103.172      140.03228    
     42750   1126.5199     -5446.1444     -5222.6267      3021.9254      56095.182      140.0658     
     42760   1133.0654     -5447.5562     -5222.7398      3282.7977      56087.002      140.09749    
     42770   1115.5429     -5444.2192     -5222.8795      3528.5434      56078.84       140.12805    
     42780   1143.533      -5449.9358     -5223.0425      3183.3942      56070.88       140.14849    
     42790   1166.6829     -5454.791      -5223.3044      2896.7071      56062.853      140.15465    
     42800   1160.658      -5454.0575     -5223.7663      2964.0742      56054.616      140.16829    
     42810   1146.7036     -5451.9489     -5224.4264      3149.3629      56046.309      140.20756    
     42820   1139.4901     -5451.3314     -5225.2403      3274.5898      56038.032      140.26627    
     42830   1136.6592     -5451.7137     -5226.1843      3418.8757      56030.082      140.34086    
     42840   1133.9155     -5452.2162     -5227.2311      3485.5132      56022.859      140.43399    
     42850   1146.0525     -5455.7743     -5228.3811      3247.5705      56016.554      140.55956    
     42860   1155.4911     -5458.9299     -5229.6639      2873.994       56010.91       140.71554    
     42870   1145.7645     -5458.4004     -5231.0643      2597.7972      56005.541      140.86254    
     42880   1116.5454     -5454.0048     -5232.4662      2527.8693      56000.036      140.97837    
     42890   1100.047      -5452.014      -5233.749       2554.8028      55994.027      141.07766    
     42900   1096.0319     -5452.322      -5234.8536      2625.5804      55987.337      141.16322    
     42910   1093.0971     -5452.6666     -5235.7805      2699.2745      55979.905      141.20863    
     42920   1106.5903     -5456.1423     -5236.579       2498.0218      55971.832      141.20108    
     42930   1115.8448     -5458.7109     -5237.3113      2236.265       55963.12       141.15924    
     42940   1102.3852     -5456.7418     -5238.0128      2048.9337      55953.665      141.10544    
     42950   1089.9773     -5454.9243     -5238.6572      1779.1623      55943.209      141.05606    
     42960   1077.1405     -5452.9362     -5239.216       1599.4798      55931.248      141.02649    
     42970   1079.5512     -5453.881      -5239.6826      1415.9124      55917.418      141.02145    
     42980   1082.4856     -5454.8463     -5240.0657      1365.9389      55901.549      141.02382    
     42990   1075.3649     -5453.7653     -5240.3975      1574.4048      55883.564      141.01295    
     43000   1064.6028     -5451.8804     -5240.6479      1843.6768      55863.59       140.9805     
     43010   1069.1263     -5452.9351     -5240.8051      1925.7196      55841.732      140.92638    
     43020   1097.6456     -5458.7106     -5240.922       1774.6012      55817.81       140.84884    
     43030   1098.0611     -5458.9222     -5241.0512      1847.1566      55791.689      140.77564    
     43040   1099.0032     -5459.2892     -5241.2312      1994.9749      55763.57       140.74382    
     43050   1088.7405     -5457.4783     -5241.4566      2301.315       55733.725      140.74106    
     43060   1068.4131     -5453.6818     -5241.6933      2810.8027      55702.541      140.72603    
     43070   1052.6443     -5450.714      -5241.8543      3205.6637      55670.818      140.66469    
     43080   1077.1934     -5455.6516     -5241.921       3144.4539      55639.592      140.5518     
     43090   1107.9173     -5461.8025     -5241.9758      2863.0231      55609.251      140.41895    
     43100   1119.8089     -5464.3392     -5242.1531      2733.8174      55579.413      140.30602    
     43110   1118.203      -5464.3934     -5242.526       2729.1611      55549.616      140.22589    
     43120   1111.0436     -5463.5526     -5243.1057      2818.8936      55519.538      140.18312    
     43130   1095.782      -5461.2733     -5243.8545      2984.5336      55489.084      140.17562    
     43140   1089.5602     -5460.9218     -5244.7374      3062.399       55458.446      140.18691    
     43150   1082.3522     -5460.4801     -5245.7259      3127.8366      55427.949      140.21412    
     43160   1078.7016     -5460.8229     -5246.793       3180.1522      55398.016      140.25486    
     43170   1084.4351     -5463.0839     -5247.9164      3088.4081      55369.057      140.2951     
     43180   1101.7878     -5467.7377     -5249.1272      2821.0356      55341.14       140.31752    
     43190   1103.5148     -5469.3981     -5250.4449      2693.1751      55314.056      140.31539    
     43200   1096.1216     -5469.2802     -5251.7939      2652.3809      55287.731      140.28224    
     43210   1100.4482     -5471.4752     -5253.1305      2547.4167      55262.08       140.22855    
     43220   1097.8924     -5472.2402     -5254.4027      2628.1945      55236.996      140.18573    
     43230   1079.8254     -5469.8042     -5255.5514      3026.929       55212.546      140.17136    
     43240   1067.4636     -5468.3174     -5256.5173      3312.8833      55189.049      140.16596    
     43250   1060.8835     -5467.804      -5257.3095      3405.9787      55166.844      140.14985    
     43260   1055.5334     -5467.3773     -5257.9444      3566.7746      55146.119      140.12056    
     43270   1064.4949     -5469.6804     -5258.4694      3528.9601      55126.866      140.08209    
     43280   1075.7732     -5472.4116     -5258.9628      3431.9503      55108.923      140.03397    
     43290   1064.9356     -5470.7498     -5259.4513      3462.3302      55092.235      139.98001    
     43300   1065.4686     -5471.3569     -5259.9527      3464.2119      55076.791      139.92754    
     43310   1047.0621     -5468.187      -5260.4349      3609.4456      55062.46       139.88458    
     43320   1055.0806     -5470.2422     -5260.8991      3635.6926      55049.186      139.86004    
     43330   1062.1585     -5472.1139     -5261.3664      3666.7181      55037.003      139.85072    
     43340   1055.807      -5471.3588     -5261.8715      3782.1748      55025.939      139.84334    
     43350   1057.6258     -5472.2571     -5262.409       3758.3026      55016.07       139.83865    
     43360   1053.8381     -5472.0674     -5262.9708      3704.1687      55007.428      139.84955    
     43370   1043.2687     -5470.5692     -5263.5698      3693.0411      54999.932      139.87641    
     43380   1028.1979     -5468.1482     -5264.139       3523.0392      54993.641      139.91946    
     43390   1040.7137     -5471.1746     -5264.6821      3175.4424      54988.519      139.98575    
     43400   1060.9597     -5475.7493     -5265.2397      2809.9551      54984.067      140.07008    
     43410   1075.013      -5479.1891     -5265.8911      2774.6357      54979.714      140.15723    
     43420   1072.3108     -5479.4432     -5266.6814      2973.882       54975.452      140.245      
     43430   1065.1522     -5478.9404     -5267.599       3131.7396      54971.611      140.35378    
     43440   1067.4085     -5480.4049     -5268.6158      3097.067       54968.25       140.47367    
     43450   1074.0822     -5482.8486     -5269.7353      2935.3302      54965.198      140.57388    
     43460   1074.2571     -5484.0872     -5270.9392      2770.4153      54962.303      140.64611    
     43470   1070.0139     -5484.5116     -5272.2055      2717.9251      54959.447      140.69607    
     43480   1059.2524     -5483.6375     -5273.4666      2863.3842      54956.618      140.73413    
     43490   1042.2467     -5481.4519     -5274.6552      3247.4683      54953.777      140.76788    
     43500   1025.288      -5479.1345     -5275.7027      3567.8458      54951.016      140.79747    
     43510   1018.2207     -5478.6156     -5276.586       3674.3801      54948.601      140.82351    
     43520   1006.6397     -5477.0405     -5277.3088      3727.9819      54946.661      140.86152    
     43530   1005.4941     -5477.3811     -5277.8767      3592.7716      54945.29       140.92626    
     43540   1016.2296     -5479.979      -5278.3445      3282.8543      54944.584      141.01942    
     43550   1029.8116     -5483.0984     -5278.769       2967.2787      54944.48       141.13665    
     43560   1023.1676     -5482.2023     -5279.1912      2908.4774      54944.808      141.27306    
     43570   1018.7536     -5481.7588     -5279.6235      2897.9523      54945.412      141.41539    
     43580   1034.097      -5485.236      -5280.0563      2656.7789      54946.026      141.5524     
     43590   1051.3547     -5489.1735     -5280.5696      2434.7711      54946.213      141.67922    
     43600   1037.8462     -5487.1329     -5281.2094      2642.2536      54945.686      141.78659    
     43610   1011.0954     -5482.5271     -5281.9113      2922.1955      54944.463      141.86389    
     43620   992.1866      -5479.4491     -5282.5851      3050.7607      54942.541      141.91861    
     43630   998.79636     -5481.3757     -5283.2002      2989.6965      54940.057      141.97322    
     43640   1001.0696     -5482.3942     -5283.7676      2877.2248      54937.188      142.03828    
     43650   1002.4081     -5483.1947     -5284.3026      2822.6002      54934.004      142.10206    
     43660   1010.8011     -5485.3938     -5284.8364      2788.7102      54930.715      142.16717    
     43670   1006.0663     -5484.9976     -5285.3796      2882.419       54927.517      142.2576     
     43680   1002.7565     -5484.9056     -5285.9444      2940.2949      54924.611      142.37914    
     43690   998.84932     -5484.691      -5286.505       2811.4376      54922.058      142.51112    
     43700   998.1979      -5485.1243     -5287.0675      2574.7051      54919.628      142.6296     
     43710   990.02252     -5484.0494     -5287.6148      2494.4991      54917.038      142.72405    
     43720   986.93082     -5483.9615     -5288.1403      2421.5881      54914.134      142.79605    
     43730   987.57145     -5484.5885     -5288.6402      2406.8905      54910.715      142.84997    
     43740   976.76989     -5482.9091     -5289.1039      2569.5723      54906.68       142.88535    
     43750   966.98606     -5481.3746     -5289.5108      2747.9864      54902.217      142.89377    
     43760   967.62335     -5481.828      -5289.8377      2718.1311      54897.529      142.87877    
     43770   978.53006     -5484.2615     -5290.1071      2490.3656      54892.634      142.85493    
     43780   979.51335     -5484.6812     -5290.3317      2345.3235      54887.529      142.81885    
     43790   986.59936     -5486.3108     -5290.5553      2107.2235      54882.129      142.77468    
     43800   988.67674     -5486.959      -5290.7914      1933.9135      54876.21       142.74046    
     43810   987.51839     -5486.9996     -5291.0618      1933.8324      54869.661      142.72447    
     43820   979.46368     -5485.7098     -5291.3702      2021.5668      54862.566      142.72216    
     43830   977.87501     -5485.7139     -5291.6895      1946.8928      54855.093      142.73364    
     43840   992.12622     -5488.8988     -5292.0468      1756.006       54847.157      142.75942    
     43850   995.55237     -5490.0264     -5292.4945      1817.5156      54838.469      142.79553    
     43860   986.78034     -5488.8468     -5293.0554      2185.3477      54828.947      142.83239    
     43870   971.55335     -5486.4814     -5293.7113      2653.9225      54818.812      142.84533    
     43880   962.79717     -5485.4568     -5294.424       2947.9042      54808.463      142.81265    
     43890   960.04721     -5485.6597     -5295.1726      3033.9346      54798.25       142.75054    
     43900   952.92208     -5485.0272     -5295.9538      3009.6063      54788.263      142.70212    
     43910   944.77266     -5484.2102     -5296.7538      2937.2962      54778.395      142.68954    
     43920   929.66662     -5481.9738     -5297.5146      2930.7012      54768.559      142.70807    
     43930   941.1315      -5484.9653     -5298.2314      2637.5147      54758.876      142.75225    
     43940   953.54873     -5488.1276     -5298.9298      2416.6226      54749.211      142.80438    
     43950   956.49336     -5489.4521     -5299.6702      2317.6532      54739.291      142.84044    
     43960   953.84161     -5489.7085     -5300.4527      2254.4714      54728.936      142.84656    
     43970   952.71016     -5490.3109     -5301.2796      2208.6167      54718.069      142.82794    
     43980   948.39592     -5490.3296     -5302.1543      2366.6199      54706.646      142.80654    
     43990   942.06636     -5489.9692     -5303.0498      2605.8281      54694.614      142.78622    
     44000   946.44456     -5491.741      -5303.9528      2666.9126      54681.975      142.75526    
     44010   956.60803     -5494.6802     -5304.8754      2598.1922      54668.805      142.71164    
     44020   977.7778      -5499.8789     -5305.8738      2412.1866      54655.101      142.66741    
     44030   972.11387     -5499.8463     -5306.965       2497.3031      54640.817      142.62766    
     44040   969.14578     -5500.4084     -5308.116       2563.3747      54626.071      142.59785    
     44050   979.16516     -5503.5718     -5309.2914      2459.1688      54610.797      142.59143    
     44060   969.07007     -5502.7145     -5310.4371      2460.5113      54594.659      142.62277    
     44070   950.90136     -5500.1495     -5311.4771      2579.2112      54577.416      142.68438    
     44080   926.55744     -5496.1428     -5312.3006      2678.4291      54559.016      142.747      
     44090   922.96056     -5496.0135     -5312.885       2597.1373      54539.536      142.80184    
     44100   913.29408     -5494.4736     -5313.263       2614.3699      54519.031      142.86659    
     44110   901.04768     -5492.235      -5313.4542      2737.0964      54497.743      142.95588    
     44120   910.45656     -5494.1331     -5313.4854      2539.6252      54476.194      143.0721     
     44130   939.46854     -5499.8452     -5313.4412      2120.6427      54454.515      143.19065    
     44140   948.35823     -5501.5701     -5313.4022      1869.9174      54432.291      143.27832    
     44150   945.05011     -5500.9241     -5313.4126      1953.5867      54409.293      143.31689    
     44160   941.29235     -5500.2312     -5313.4653      2035.0914      54385.672      143.30379    
     44170   948.59896     -5501.7627     -5313.5471      1934.35        54361.794      143.25606    
     44180   939.6105      -5500.1085     -5313.6763      1986.2061      54337.957      143.18764    
     44190   924.28487     -5497.2279     -5313.8365      2168.9574      54314.21       143.10997    
     44200   915.17441     -5495.5682     -5313.9845      2334.2867      54290.383      143.04505    
     44210   921.9904      -5497.0269     -5314.0908      2371.9704      54266.35       142.98893    
     44220   933.74262     -5499.4618     -5314.1939      2406.6842      54242.176      142.93943    
     44230   925.94216     -5498.0292     -5314.309       2585.2373      54217.969      142.91754    
     44240   939.28502     -5500.83       -5314.4624      2527.7693      54193.901      142.9355     
     44250   940.35394     -5501.2489     -5314.6692      2614.8185      54170.036      142.97792    
     44260   937.18943     -5500.9182     -5314.9664      2778.1595      54146.333      143.01792    
     44270   927.56702     -5499.3798     -5315.3372      2971.4794      54122.719      143.05848    
     44280   912.91821     -5496.8833     -5315.7473      3255.6165      54099.307      143.11442    
     44290   913.80464     -5497.4718     -5316.1599      3329.1318      54076.291      143.18814    
     44300   932.94386     -5501.7111     -5316.6016      3135.2841      54053.785      143.26352    
     44310   951.41171     -5505.921      -5317.1473      3010.916       54031.802      143.33075    
     44320   946.28623     -5505.6127     -5317.8559      3107.4977      54010.194      143.38215    
     44330   935.75374     -5504.3884     -5318.7215      3130.6618      53988.752      143.41513    
     44340   927.90669     -5503.7856     -5319.6757      3036.0913      53967.328      143.44526    
     44350   940.62432     -5507.3459     -5320.7126      2662.913       53945.729      143.47767    
     44360   942.54395     -5508.8613     -5321.8471      2380.9496      53923.548      143.5031     
     44370   924.61982     -5506.4546     -5322.9968      2278.9743      53900.553      143.51705    
     44380   921.38616     -5506.9182     -5324.102       2209.6541      53876.643      143.5263     
     44390   904.44848     -5504.5605     -5325.105       2406.347       53851.585      143.51771    
     44400   884.92557     -5501.5144     -5325.9325      2754.347       53825.513      143.47513    
     44410   879.28766     -5501.0365     -5326.5732      2889.9158      53798.772      143.40487    
     44420   873.01024     -5500.2517     -5327.034       3011.0013      53771.486      143.33275    
     44430   877.88194     -5501.5444     -5327.3601      2944.3093      53743.722      143.26824    
     44440   872.69218     -5500.7249     -5327.5702      3024.5461      53715.619      143.21532    
     44450   871.13969     -5500.5271     -5327.6805      3085.1118      53687.436      143.18451    
     44460   890.39031     -5504.4023     -5327.7362      2971.0155      53659.252      143.16632    
     44470   906.2794      -5507.5811     -5327.7622      3139.4975      53631.048      143.12445    
     44480   911.84269     -5508.7489     -5327.8263      3430.9965      53603.002      143.06993    
     44490   928.39809     -5512.2001     -5327.9926      3619.1306      53575.412      143.02928    
     44500   928.95928     -5512.6117     -5328.2929      3780.1455      53548.647      142.99735    
     44510   922.59626     -5511.7998     -5328.7435      3847.1258      53523.028      142.96494    
     44520   916.56064     -5511.1919     -5329.3331      3736.1051      53498.619      142.94939    
     44530   910.26471     -5510.6437     -5330.0341      3691.0619      53475.329      142.95323    
     44540   903.29516     -5510.0431     -5330.8164      3773.9671      53453.037      142.96644    
     44550   895.3295      -5509.2909     -5331.6447      3949.5175      53431.699      142.97249    
     44560   888.17715     -5508.7075     -5332.4805      4085.642       53411.313      142.9606     
     44570   876.14136     -5507.1138     -5333.2748      4180.8613      53391.916      142.93086    
     44580   878.22427     -5508.2626     -5334.0103      4108.8643      53373.516      142.8868     
     44590   872.10267     -5507.7085     -5334.6708      4094.0104      53355.973      142.86131    
     44600   875.26709     -5508.9437     -5335.2782      4114.4627      53339.146      142.85517    
     44610   862.66617     -5506.9717     -5335.8064      4265.2816      53322.812      142.83174    
     44620   869.75298     -5508.8463     -5336.2749      4112.0281      53306.832      142.79069    
     44630   880.15957     -5511.3354     -5336.6992      3878.9222      53291.042      142.74461    
     44640   870.72597     -5509.8831     -5337.1186      3830.8304      53275.278      142.68937    
     44650   862.21763     -5508.5837     -5337.5074      3755.6697      53259.618      142.63324    
     44660   865.11825     -5509.5103     -5337.8584      3527.8914      53244.237      142.58439    
     44670   875.78067     -5511.9675     -5338.2001      3255.7422      53229.184      142.54329    
     44680   886.46482     -5514.4501     -5338.5628      3060.1616      53214.346      142.51723    
     44690   894.6947      -5516.525      -5339.0048      2960.0889      53199.512      142.51731    
     44700   888.71876     -5515.8816     -5339.5471      3092.9718      53184.553      142.54909    
     44710   887.16228     -5516.1903     -5340.1646      3287.8554      53169.405      142.60507    
     44720   883.98311     -5516.2548     -5340.8599      3333.4488      53153.965      142.67711    
     44730   868.42247     -5513.8846     -5341.5772      3343.8417      53138.183      142.75249    
     44740   877.15002     -5516.3397     -5342.3006      3179.0077      53122.137      142.80372    
     44750   876.11642     -5516.8737     -5343.0396      3167.9066      53105.867      142.84935    
     44760   866.59693     -5515.726      -5343.7807      3190.0945      53089.385      142.91463    
     44770   841.28201     -5511.3702     -5344.4478      3414.2364      53072.792      142.99628    
     44780   846.21568     -5512.9146     -5345.0132      3488.6846      53056.404      143.08619    
     44790   861.70865     -5516.4818     -5345.5065      3454.2904      53040.429      143.1709     
     44800   867.60168     -5518.1338     -5345.9892      3529.9145      53024.861      143.22916    
     44810   881.0168      -5521.3096     -5346.5032      3480.243       53009.704      143.26553    
     44820   880.76732     -5521.8486     -5347.0918      3493.4585      52994.925      143.28562    
     44830   864.80255     -5519.3159     -5347.7267      3675.5318      52980.622      143.29081    
     44840   854.45724     -5517.8881     -5348.3515      3780.1135      52967.124      143.27478    
     44850   858.98315     -5519.3928     -5348.9583      3801.1153      52954.719      143.22556    
     44860   869.59395     -5522.1163     -5349.5764      3889.7197      52943.346      143.16486    
     44870   877.2073      -5524.2913     -5350.2408      3986.7575      52932.848      143.11166    
     44880   881.34268     -5525.8579     -5350.9869      4054.0316      52923.176      143.07364    
     44890   878.98015     -5526.2142     -5351.812       4038.9317      52914.181      143.05946    
     44900   867.48431     -5524.8127     -5352.6914      3929.0856      52905.805      143.05804    
     44910   859.43531     -5524.095      -5353.5707      3721.8008      52898.07       143.05143    
     44920   860.12208     -5525.0984     -5354.4378      3429.0339      52890.768      143.04866    
     44930   849.20644     -5523.772      -5355.2773      3387.2883      52883.412      143.0518     
     44940   837.55999     -5522.2493     -5356.0654      3522.655       52875.715      143.05011    
     44950   829.29146     -5521.3206     -5356.7773      3760.4437      52867.729      143.03944    
     44960   815.23193     -5519.1475     -5357.3938      3971.5486      52859.603      143.02936    
     44970   816.73748     -5519.9634     -5357.911       3993.1524      52851.456      143.04477    
     44980   835.31826     -5524.114      -5358.3749      3882.9962      52843.347      143.10375    
     44990   845.80556     -5526.6782     -5358.8583      3933.1957      52835.239      143.19736    
     45000   833.76254     -5524.8098     -5359.3794      4225.0979      52827.251      143.30947    
     45010   832.76074     -5525.1676     -5359.9359      4305.7322      52819.669      143.43016    
     45020   836.95653     -5526.5837     -5360.5196      4300.2472      52812.624      143.53832    
     45030   836.25732     -5527.0763     -5361.1509      4278.1922      52806.238      143.62521    
     45040   833.45489     -5527.1938     -5361.8245      4287.2056      52800.631      143.70278    
     45050   831.81554     -5527.5802     -5362.5361      4266.1279      52795.976      143.7783     
     45060   826.48373     -5527.2645     -5363.2783      4301.2048      52792.555      143.86263    
     45070   817.84828     -5526.2849     -5364.0121      4343.1537      52790.633      143.96967    
     45080   824.80544     -5528.3943     -5364.7411      4166.9395      52790.375      144.09524    
     45090   828.03822     -5529.772      -5365.4773      3972.3316      52791.698      144.20094    
     45100   821.18212     -5529.1564     -5366.2221      3826.7661      52794.407      144.26388    
     45110   819.08687     -5529.4819     -5366.9634      3646.1761      52798.334      144.29534    
     45120   818.8512      -5530.1561     -5367.6843      3396.0382      52803.252      144.32311    
     45130   827.4557      -5532.5914     -5368.4124      3065.14        52808.864      144.35738    
     45140   830.51511     -5533.9534     -5369.1673      2703.013       52814.87       144.39351    
     45150   822.39966     -5533.1257     -5369.9499      2442.3245      52820.968      144.42965    
     45160   811.58355     -5531.7554     -5370.7256      2442.0095      52826.991      144.48096    
     45170   800.05929     -5530.207      -5371.4638      2626.3721      52833.022      144.55264    
     45180   780.33834     -5526.9452     -5372.1149      3139.7579      52839.242      144.64365    
     45190   771.28094     -5525.6785     -5372.6453      3587.8572      52845.866      144.75578    
     45200   771.37601     -5526.1036     -5373.0516      3744.9244      52853.084      144.87867    
     45210   779.88855     -5528.109      -5373.3679      3633.1927      52861.027      144.99574    
     45220   782.40628     -5528.8652     -5373.6246      3410.7105      52869.578      145.11292    
     45230   791.27722     -5530.8571     -5373.8563      3161.3635      52878.591      145.24048    
     45240   794.48279     -5531.7074     -5374.0706      3051.4798      52887.85       145.3647     
     45250   816.4067      -5536.3345     -5374.3477      2797.4656      52897.064      145.44465    
     45260   825.31999     -5538.4878     -5374.7325      2590.0734      52905.965      145.46416    
     45270   816.64426     -5537.3005     -5375.2666      2555.8621      52914.439      145.45253    
     45280   808.03685     -5536.2484     -5375.9223      2547.4496      52922.532      145.43599    
     45290   804.17357     -5536.2191     -5376.6596      2524.257       52930.159      145.42401    
     45300   801.31005     -5536.4473     -5377.4559      2390.2961      52937.215      145.4208     
     45310   798.28539     -5536.6769     -5378.2856      2147.0222      52943.615      145.41644    
     45320   796.99028     -5537.2632     -5379.1289      1948.9341      52949.149      145.4123     
     45330   781.51794     -5535.015      -5379.9507      1983.3885      52953.581      145.41913    
     45340   766.12905     -5532.7002     -5380.6892      2149.6955      52956.882      145.44123    
     45350   756.01726     -5531.3104     -5381.3058      2346.0749      52959.202      145.47018    
     45360   750.43279     -5530.6882     -5381.7916      2440.0713      52960.723      145.51025    
     45370   745.51164     -5530.0715     -5382.1513      2417.1259      52961.524      145.56814    
     45380   750.87327     -5531.3818     -5382.3978      2216.7973      52961.539      145.62962    
     45390   764.93026     -5534.3569     -5382.5838      1986.0023      52960.513      145.68572    
     45400   766.22745     -5534.7733     -5382.7428      2010.6875      52958.186      145.72941    
     45410   781.56479     -5537.9949     -5382.9212      2086.8572      52954.545      145.76143    
     45420   788.40613     -5539.5916     -5383.1605      2189.3083      52949.644      145.78792    
     45430   788.15617     -5539.8691     -5383.4877      2211.2549      52943.625      145.80466    
     45440   795.44913     -5541.7584     -5383.9299      2075.3488      52936.689      145.81284    
     45450   782.75192     -5539.7952     -5384.486       2133.1857      52928.862      145.82153    
     45460   770.42909     -5537.9634     -5385.0992      2112.4672      52920.231      145.83594    
     45470   782.72394     -5541.0696     -5385.7659      2017.5447      52910.915      145.85689    
     45480   775.22351     -5540.306      -5386.4906      2127.2054      52900.992      145.88096    
     45490   770.18242     -5540.0522     -5387.237       2225.1608      52890.743      145.8959     
     45500   777.47478     -5542.2587     -5387.9965      2101.1711      52880.385      145.90044    
     45510   769.94204     -5541.535      -5388.7675      2019.0243      52869.932      145.90676    
     45520   762.33117     -5540.766      -5389.5086      2029.4712      52859.456      145.90398    
     45530   760.10566     -5541.0154     -5390.1995      2101.5425      52849.127      145.87922    
     45540   748.8253      -5539.4158     -5390.8381      2321.3164      52838.952      145.83826    
     45550   738.721       -5537.9561     -5391.3832      2393.1318      52828.755      145.78402    
     45560   751.10888     -5540.8879     -5391.8572      2172.0031      52818.273      145.71828    
     45570   755.64203     -5542.2312     -5392.301       2079.473       52807.213      145.64435    
     45580   760.15548     -5543.573      -5392.7473      1942.9204      52795.449      145.57129    
     45590   764.02782     -5544.8232     -5393.2292      1900.7468      52782.856      145.50449    
     45600   764.13327     -5545.3781     -5393.7631      1953.9525      52769.345      145.44568    
     45610   765.01226     -5546.1376     -5394.3482      1982.9823      52754.976      145.40249    
     45620   749.93737     -5543.781      -5394.9827      2107.2042      52739.738      145.37611    
     45630   728.83178     -5540.205      -5395.5943      2272.0141      52723.592      145.37276    
     45640   723.12356     -5539.6102     -5396.1322      2279.3379      52706.52       145.39284    
     45650   729.51804     -5541.3486     -5396.6018      2253.3344      52688.524      145.40693    
     45660   742.71271     -5544.4105     -5397.0457      2121.2453      52669.655      145.39935    
     45670   752.88023     -5546.8934     -5397.5112      2124.611       52649.992      145.38636    
     45680   764.28628     -5549.6993     -5398.054       2104.21        52629.724      145.38744    
     45690   757.09791     -5548.9131     -5398.694       2269.0057      52609.092      145.39626    
     45700   736.46405     -5545.5059     -5399.3808      2519.0588      52588.45       145.38159    
     45710   734.96595     -5545.8871     -5400.0593      2623.8766      52568.113      145.33845    
     45720   740.08105     -5547.5618     -5400.7191      2663.6067      52548.221      145.29698    
     45730   749.9654      -5550.2007     -5401.3968      2709.3661      52528.792      145.26753    
     45740   767.50377     -5554.4246     -5402.1408      2706.4753      52509.688      145.23684    
     45750   769.12256     -5555.5968     -5402.9919      2936.6675      52490.634      145.20542    
     45760   753.49091     -5553.4131     -5403.9097      3282.9685      52471.574      145.17762    
     45770   738.91086     -5551.4209     -5404.8104      3389.8097      52452.627      145.14909    
     45780   739.33951     -5552.3463     -5405.6508      3233.8206      52433.914      145.10659    
     45790   747.88695     -5554.856      -5406.4645      3020.262       52415.329      145.0448     
     45800   744.53309     -5554.9926     -5407.2665      2917.7168      52396.758      144.98696    
     45810   746.41431     -5556.1776     -5408.0783      2855.2259      52378.238      144.94192    
     45820   742.31451     -5556.1813     -5408.8954      2859.6111      52359.759      144.91589    
     45830   731.14134     -5554.7772     -5409.7083      2905.8947      52341.261      144.91014    
     45840   718.03129     -5552.9586     -5410.4909      2977.2299      52322.719      144.91795    
     45850   712.66066     -5552.6151     -5411.213       2985.2201      52304.115      144.9343     
     45860   722.9754      -5555.354      -5411.9053      2725.9772      52285.304      144.9616     
     45870   732.02431     -5557.8596     -5412.6155      2551.1352      52265.92       145.00223    
     45880   724.27766     -5557.0767     -5413.3696      2574.8427      52245.77       145.0439     
     45890   715.00172     -5556.0088     -5414.1422      2682.1769      52224.882      145.06594    
     45900   702.06791     -5554.1884     -5414.888       2769.6265      52203.434      145.06389    
     45910   695.68896     -5553.616      -5415.5813      2837.8633      52181.618      145.04571    
     45920   689.0954      -5552.9392     -5416.2128      3024.3075      52159.574      145.01733    
     45930   685.80415     -5552.8469     -5416.7736      3211.4022      52137.492      144.99473    
     45940   687.40115     -5553.6628     -5417.2726      3230.3777      52115.592      144.99622    
     45950   689.65412     -5554.571      -5417.7338      3189.3188      52093.97       145.02551    
     45960   688.25933     -5554.7351     -5418.1746      3187.1607      52072.662      145.07669    
     45970   692.88424     -5556.0839     -5418.6057      3176.1317      52051.629      145.13561    
     45980   699.60443     -5557.8684     -5419.0569      3169.1728      52030.688      145.18655    
     45990   706.40088     -5559.7178     -5419.5577      3159.1283      52009.705      145.22433    
     46000   705.95582     -5560.1931     -5420.1214      3129.9779      51988.81       145.25474    
     46010   713.1038      -5562.2531     -5420.763       2979.4887      51968.224      145.29083    
     46020   711.69817     -5562.7104     -5421.4993      2875.8158      51947.978      145.33021    
     46030   698.5631      -5560.8981     -5422.2931      2890.4855      51928.08       145.36327    
     46040   698.90819     -5561.7814     -5423.108       2851.5507      51908.609      145.39088    
     46050   690.25475     -5560.8746     -5423.9182      2974.119       51889.541      145.42228    
     46060   679.13016     -5559.4292     -5424.68        3248.2474      51870.895      145.46319    
     46070   675.37869     -5559.3765     -5425.3717      3398.8796      51852.721      145.5096     
     46080   675.27165     -5559.9792     -5425.9957      3437.9693      51834.98       145.55877    
     46090   678.59634     -5561.2126     -5426.5694      3505.1647      51817.579      145.614      
     46100   685.27518     -5563.0898     -5427.1214      3531.556       51800.549      145.68316    
     46110   692.54435     -5565.1062     -5427.6955      3567.6947      51784.049      145.75883    
     46120   691.4164      -5565.4885     -5428.3016      3683.0593      51768.303      145.8246     
     46130   692.21889     -5566.3004     -5428.9543      3846.201       51753.556      145.8703     
     46140   686.79902     -5565.9141     -5429.6433      3961.8293      51740.056      145.90559    
     46150   686.72648     -5566.6168     -5430.3605      3832.3943      51727.947      145.94828    
     46160   686.60037     -5567.3276     -5431.0963      3515.8634      51717.147      146.01282    
     46170   682.8043      -5567.3346     -5431.8564      3183.2913      51707.419      146.08142    
     46180   670.96742     -5565.7306     -5432.601       2994.0297      51698.644      146.12658    
     46190   658.52964     -5563.9556     -5433.2939      2886.2003      51690.789      146.14698    
     46200   650.81898     -5563.0397     -5433.9079      2830.3876      51683.725      146.1614     
     46210   647.88193     -5562.9928     -5434.4437      2894.4523      51677.338      146.18388    
     46220   639.39442     -5561.7616     -5434.8966      3165.2045      51671.736      146.22114    
     46230   637.09294     -5561.6759     -5435.2675      3349.2294      51667.169      146.27757    
     46240   648.59078     -5564.2654     -5435.5757      3334.1303      51663.677      146.35689    
     46250   669.1185      -5568.6438     -5435.8811      3111.535       51661.133      146.46831    
     46260   675.64929     -5570.3097     -5436.2512      3054.4496      51659.337      146.60066    
     46270   678.0079      -5571.2498     -5436.7233      3019.0194      51658.133      146.72665    
     46280   676.19207     -5571.4717     -5437.3055      3029.9128      51657.426      146.83212    
     46290   663.6531      -5569.6516     -5437.9733      3171.7181      51657.265      146.9135     
     46300   651.72195     -5567.9773     -5438.6663      3304.7254      51657.784      146.97161    
     46310   641.63452     -5566.6472     -5439.3377      3402.9478      51659.139      147.00796    
     46320   636.2237      -5566.1924     -5439.9565      3541.9421      51661.408      147.0296     
     46330   634.70163     -5566.4458     -5440.5119      3608.1059      51664.738      147.0489     
     46340   638.61054     -5567.7253     -5441.0159      3504.792       51669.201      147.07395    
     46350   640.3397      -5568.5453     -5441.4927      3389.079       51674.642      147.10536    
     46360   638.30042     -5568.5958     -5441.9479      3264.9137      51680.769      147.13125    
     46370   644.0466      -5570.1815     -5442.3934      3041.8556      51687.182      147.15306    
     46380   653.32051     -5572.4897     -5442.8616      2817.0827      51693.44       147.1738     
     46390   657.70839     -5573.8824     -5443.3837      2726.0159      51699.245      147.18738    
     46400   651.62604     -5573.2657     -5443.9738      2866.7877      51704.549      147.19022    
     46410   637.20117     -5571.0205     -5444.5907      3147.0843      51709.557      147.18584    
     46420   635.02885     -5571.1978     -5445.1989      3175.66        51714.547      147.18746    
     46430   638.32363     -5572.4396     -5445.787       3081.0121      51719.628      147.20611    
     46440   642.31834     -5573.8228     -5446.3776      2945.1541      51724.878      147.24675    
     46450   652.46462     -5576.4547     -5446.9964      2744.3841      51730.363      147.30755    
     46460   651.68037     -5576.9626     -5447.6599      2616.5033      51735.984      147.37836    
     46470   658.70256     -5579.0702     -5448.3742      2402.6505      51741.509      147.43635    
     46480   655.6386      -5579.2324     -5449.1443      2328.6713      51746.639      147.47562    
     46490   640.22461     -5576.9608     -5449.9311      2399.0884      51751.197      147.50791    
     46500   630.21398     -5575.7208     -5450.6773      2447.5359      51755.069      147.54635    
     46510   623.43615     -5575.0529     -5451.3542      2489.9878      51758.195      147.60334    
     46520   627.03926     -5576.3811     -5451.9675      2339.0782      51760.602      147.67901    
     46530   632.64099     -5578.0803     -5452.5553      2128.2106      51762.305      147.76591    
     46540   634.86727     -5579.12       -5453.1532      1989.8848      51763.296      147.85682    
     46550   631.13658     -5579.0017     -5453.7752      1944.8116      51763.576      147.93953    
     46560   622.46725     -5577.9053     -5454.3989      2008.4259      51763.092      148.00302    
     46570   616.69762     -5577.3776     -5455.0159      2128.9316      51761.812      148.04268    
     46580   610.01341     -5576.6353     -5455.5999      2312.8934      51759.826      148.06627    
     46590   615.9745      -5578.3832     -5456.165       2352.1875      51757.345      148.08011    
     46600   625.9875      -5580.9423     -5456.7374      2278.3062      51754.45       148.10585    
     46610   635.45644     -5583.4534     -5457.3697      2112.0245      51750.966      148.16602    
     46620   625.45052     -5582.1665     -5458.0682      2135.3584      51746.709      148.24538    
     46630   620.02209     -5581.8138     -5458.7926      2065.0682      51741.72       148.31514    
     46640   624.50072     -5583.4534     -5459.5435      1867.7933      51736.117      148.35588    
     46650   619.82485     -5583.2919     -5460.3097      1934.497       51729.953      148.35955    
     46660   612.69649     -5582.6382     -5461.0704      2151.8342      51723.29       148.32794    
     46670   609.56223     -5582.7495     -5461.8036      2369.0768      51716.245      148.28083    
     46680   603.49972     -5582.2482     -5462.5052      2613.0325      51708.995      148.24721    
     46690   585.29319     -5579.2731     -5463.1425      2928.4652      51701.777      148.24733    
     46700   578.91698     -5578.559      -5463.6935      2992.7898      51694.795      148.28613    
     46710   584.93925     -5580.2238     -5464.1634      2849.8974      51687.997      148.3593     
     46720   594.25345     -5582.517      -5464.6086      2660.8407      51681.233      148.46026    
     46730   590.37588     -5582.1896     -5465.0505      2606.3075      51674.374      148.56485    
     46740   592.28929     -5583.0139     -5465.4952      2508.0168      51667.394      148.64749    
     46750   595.09345     -5584.0375     -5465.9624      2408.3688      51660.39       148.7042     
     46760   591.19125     -5583.7566     -5466.4558      2445.8745      51653.477      148.74362    
     46770   587.13305     -5583.4633     -5466.9677      2486.4299      51646.719      148.77603    
     46780   591.18882     -5584.7985     -5467.4981      2484.5704      51640.11       148.8159     
     46790   588.47761     -5584.8131     -5468.0507      2535.2688      51633.639      148.85794    
     46800   581.54958     -5584.0031     -5468.6153      2587.1166      51627.375      148.88099    
     46810   580.08372     -5584.2693     -5469.1724      2615.1658      51621.373      148.87606    
     46820   574.62193     -5583.7299     -5469.7166      2642.3183      51615.625      148.85051    
     46830   575.79726     -5584.4813     -5470.2349      2538.2524      51610.085      148.82156    
     46840   588.42519     -5587.5084     -5470.7564      2284.7411      51604.559      148.80349    
     46850   594.51511     -5589.2871     -5471.3268      2087.5304      51598.77       148.79798    
     46860   593.96646     -5589.8046     -5471.9531      1991.2548      51592.485      148.78838    
     46870   590.07906     -5589.7134     -5472.6332      1895.7155      51585.567      148.76528    
     46880   582.80374     -5588.9685     -5473.3319      1848.132       51577.921      148.73446    
     46890   584.84299     -5590.077      -5474.0358      1682.4382      51569.503      148.7027     
     46900   583.98777     -5590.6055     -5474.7339      1595.5892      51560.262      148.67474    
     46910   590.07903     -5592.52       -5475.4399      1448.1434      51550.254      148.64974    
     46920   600.77476     -5595.386      -5476.1837      1321.9324      51539.546      148.63344    
     46930   605.09297     -5597.0548     -5476.9957      1344.7204      51528.131      148.63305    
     46940   602.2442      -5597.3643     -5477.8704      1543.907       51516.051      148.64302    
     46950   593.7286      -5596.5688     -5478.7646      1834.0754      51503.494      148.65099    
     46960   590.3185      -5596.7732     -5479.6455      2040.3944      51490.758      148.65522    
     46970   593.26379     -5598.2318     -5480.5198      1999.0613      51478.028      148.67329    
     46980   592.45803     -5598.9518     -5481.3996      1954.2849      51465.213      148.71573    
     46990   582.43736     -5597.8444     -5482.2804      2041.0017      51452.167      148.7781     
     47000   571.83706     -5596.5787     -5483.1181      2165.7546      51438.863      148.84456    
     47010   574.64354     -5597.948      -5483.9305      2108.077       51425.333      148.90032    
     47020   572.90271     -5598.401      -5484.7289      2082.7519      51411.583      148.93808    
     47030   565.07829     -5597.6334     -5485.5138      2114.3354      51397.684      148.95679    
     47040   565.67806     -5598.5222     -5486.2836      2106.7532      51383.798      148.97438    
     47050   568.41583     -5599.8362     -5487.0543      1949.4541      51370.012      149.02361    
     47060   570.38831     -5601.0245     -5487.8513      1731.9989      51356.212      149.11568    
     47070   568.25917     -5601.4248     -5488.674       1526.4249      51342.167      149.22346    
     47080   561.40988     -5600.9011     -5489.5094      1461.0431      51327.664      149.30326    
     47090   558.19782     -5601.0945     -5490.34        1500.6031      51312.664      149.32854    
     47100   546.82397     -5599.6395     -5491.1418      1679.2313      51297.303      149.30229    
     47110   535.36121     -5598.1044     -5491.881       1831.3885      51281.751      149.24828    
     47120   534.18098     -5598.5387     -5492.5495      1835.8872      51266.159      149.18466    
     47130   533.03202     -5598.9283     -5493.1672      1829.8584      51250.633      149.12343    
     47140   532.45947     -5599.3956     -5493.748       1883.1654      51235.258      149.07072    
     47150   530.30213     -5599.5253     -5494.3057      2018.7218      51220.111      149.0252     
     47160   528.73502     -5599.7512     -5494.8426      2174.7533      51205.239      148.99597    
     47170   520.95415     -5598.7211     -5495.3563      2337.8515      51190.571      148.9807     
     47180   517.95082     -5598.6064     -5495.8376      2358.9432      51175.998      148.96237    
     47190   523.02319     -5600.0654     -5496.2901      2282.5839      51161.361      148.93303    
     47200   529.22518     -5601.7526     -5496.7467      2275.0943      51146.487      148.9016     
     47210   527.01738     -5601.7958     -5497.228       2400.1382      51131.211      148.8856     
     47220   525.20656     -5601.9305     -5497.722       2491.8445      51115.5        148.88648    
     47230   523.55985     -5602.1115     -5498.2297      2574.9916      51099.477      148.89157    
     47240   531.63242     -5604.241      -5498.7575      2563.0863      51083.326      148.89018    
     47250   531.43583     -5604.7734     -5499.329       2666.2419      51067.18       148.88567    
     47260   518.64935     -5602.8259     -5499.9185      2841.5899      51051.195      148.86932    
     47270   521.8025      -5604.0406     -5500.5076      2793.5488      51035.494      148.82132    
     47280   527.32763     -5605.7388     -5501.1094      2625.4228      51020.019      148.75017    
     47290   528.83948     -5606.6697     -5501.7403      2439.3315      51004.708      148.67468    
     47300   535.75105     -5608.712      -5502.4114      2230.0121      50989.613      148.60606    
     47310   534.94562     -5609.276      -5503.1351      2148.407       50974.863      148.55248    
     47320   534.49049     -5609.9487     -5503.8982      2122.8748      50960.572      148.51779    
     47330   530.61817     -5609.9714     -5504.6892      2114.2944      50946.709      148.4866     
     47340   516.35201     -5607.9159     -5505.4643      2235.3643      50933.207      148.43824    
     47350   500.41607     -5605.4626     -5506.1729      2362.7785      50920.04       148.36912    
     47360   495.22157     -5605.0485     -5506.7894      2400.2389      50907.11       148.28109    
     47370   493.40932     -5605.2319     -5507.3325      2430.4087      50894.254      148.18738    
     47380   486.80467     -5604.3937     -5507.8047      2542.4412      50881.385      148.10912    
     47390   487.66834     -5604.9822     -5508.2218      2598.4321      50868.538      148.05924    
     47400   489.96703     -5605.812      -5508.5955      2646.1824      50855.855      148.03161    
     47410   490.62285     -5606.2928     -5508.9462      2738.4162      50843.57       148.01904    
     47420   494.95638     -5607.498      -5509.2916      2746.8625      50831.905      148.02289    
     47430   493.40779     -5607.5449     -5509.6458      2763.7968      50820.924      148.03174    
     47440   490.38428     -5607.3124     -5510.0131      2743.2423      50810.626      148.02955    
     47450   492.58468     -5608.1261     -5510.3902      2600.3041      50801.045      148.01799    
     47460   493.07458     -5608.6241     -5510.7911      2498.0147      50792.155      148.01035    
     47470   492.80521     -5608.9948     -5511.2151      2492.3535      50783.898      148.02229    
     47480   489.70809     -5608.83       -5511.6649      2576.9618      50776.268      148.06205    
     47490   487.6296      -5608.8787     -5512.126       2596.1904      50769.358      148.1249     
     47500   495.36399     -5610.8947     -5512.6073      2457.0275      50763.158      148.19439    
     47510   495.06738     -5611.3594     -5513.1309      2324.7595      50757.494      148.25666    
     47520   488.90924     -5610.6881     -5513.6815      2336.1172      50752.27       148.3036     
     47530   481.31816     -5609.7382     -5514.2377      2449.4656      50747.579      148.32976    
     47540   476.65603     -5609.3434     -5514.768       2556.9546      50743.633      148.34076    
     47550   481.2588      -5610.7646     -5515.276       2497.8645      50740.537      148.34831    
     47560   481.50974     -5611.3158     -5515.7774      2426.7292      50738.146      148.35917    
     47570   478.76264     -5611.2689     -5516.2756      2313.6847      50736.172      148.37482    
     47580   480.9566      -5612.2039     -5516.7752      2089.3317      50734.279      148.38823    
     47590   479.26189     -5612.3763     -5517.2839      1958.5403      50732.105      148.38812    
     47600   475.03809     -5612.0504     -5517.7961      1949.4618      50729.467      148.3742     
[...]
     78200   131.41791     -5710.437      -5684.3618      248.21179      49245.004      150.93653    
     78210   131.90476     -5710.481      -5684.3092      114.99856      49259.616      150.96837    
     78220   133.26209     -5710.6743     -5684.2332     -23.193332      49276.894      151.01179    
     78230   135.44262     -5711.0098     -5684.136      -160.39505      49293.292      151.05965    
     78240   138.29424     -5711.4639     -5684.0243     -258.56165      49305.49       151.10475    
     78250   140.23842     -5711.7316     -5683.9063     -293.89418      49311.126      151.14025    
     78260   139.96809     -5711.5697     -5683.798      -251.4499       49309.424      151.1615     
     78270   138.23354     -5711.1266     -5683.6991     -142.50566      49301.559      151.16814    
     78280   137.03879     -5710.7988     -5683.6084     -1.3386614      49290.371      151.16463    
     78290   136.55122     -5710.6095     -5683.5158      124.04999      49279.342      151.15831    
     78300   136.02362     -5710.4132     -5683.4242      212.16785      49271.538      151.15667    
     78310   134.86986     -5710.0928     -5683.3327      274.08043      49269.153      151.16619    
     78320   134.05079     -5709.8335     -5683.2359      290.86132      49273.624      151.191      
     78330   135.21482     -5709.9639     -5683.1353      236.52246      49285.138      151.23066    
     78340   137.62115     -5710.3348     -5683.0288      142.60372      49302.294      151.27991    
     78350   139.12523     -5710.5315     -5682.9271      42.89192       49322.747      151.33229    
     78360   138.86313     -5710.3846     -5682.8322     -56.013544      49343.95       151.38411    
     78370   138.06343     -5710.1389     -5682.7452     -151.38333      49363.412      151.43345    
     78380   137.48821     -5709.9445     -5682.6648     -229.69525      49378.776      151.47751    
     78390   137.01049     -5709.7683     -5682.5835     -262.56671      49388.213      151.51151    
     78400   136.80968     -5709.6522     -5682.5072     -254.4937       49390.971      151.53135    
     78410   136.45043     -5709.5032     -5682.4295     -207.13402      49387.35       151.53683    
     78420   135.3523      -5709.2043     -5682.3485     -137.07828      49378.611      151.53182    
     78430   134.56333     -5708.9663     -5682.267      -37.273006      49366.65       151.52198    
     78440   134.67777     -5708.8989     -5682.1769      74.924113      49353.955      151.51219    
     78450   135.11372     -5708.8865     -5682.078       184.26841      49343.351      151.50551    
     78460   135.32346     -5708.8239     -5681.9737      247.19342      49337.425      151.50493    
     78470   135.59353     -5708.7671     -5681.8634      279.08352      49337.689      151.51389    
     78480   136.25228     -5708.7825     -5681.7481      289.44852      49344.866      151.53584    
     78490   137.80204     -5708.9769     -5681.635       266.0947       49359.127      151.57317    
     78500   140.4223      -5709.3871     -5681.5253      204.38295      49379.781      151.62528    
     78510   143.4722      -5709.9001     -5681.4332      143.74478      49405.335      151.68871    
     78520   146.19959     -5710.377      -5681.3689      43.756999      49434.043      151.75861    
     78530   147.3959      -5710.5912     -5681.3457     -72.932443      49463.409      151.82877    
     78540   146.6445      -5710.4648     -5681.3685     -176.33843      49490.537      151.89181    
     78550   145.27032     -5710.2609     -5681.4372     -275.20791      49512.791      151.94008    
     78560   143.41527     -5710.0056     -5681.55       -347.15881      49527.826      151.96698    
     78570   140.84254     -5709.6548     -5681.7096     -418.23958      49533.833      151.96784    
     78580   137.80177     -5709.2472     -5681.9053     -466.27051      49529.235      151.94072    
     78590   134.77805     -5708.874      -5682.1321     -465.78512      49513.069      151.88645    
     78600   132.70995     -5708.692      -5682.3605     -434.81557      49485.414      151.80862    
     78610   132.43297     -5708.855      -5682.5784     -344.66754      49447.367      151.71332    
     78620   133.70422     -5709.2981     -5682.7693     -229.75063      49401.297      151.60845    
     78630   135.35421     -5709.78       -5682.9238     -87.219536      49350.297      151.50146    
     78640   136.33968     -5710.0913     -5683.0396      67.196656      49298.023      151.39908    
     78650   136.72651     -5710.2517     -5683.1232      222.97345      49248.382      151.3062     
     78660   136.98304     -5710.3586     -5683.1792      343.79995      49205.116      151.22627    
     78670   136.89849     -5710.381      -5683.2184      447.44136      49171.171      151.16268    
     78680   136.71375     -5710.3766     -5683.2506      489.92198      49148.811      151.11859    
     78690   136.64324     -5710.3927     -5683.2807      500.97641      49138.966      151.09579    
     78700   136.95473     -5710.4879     -5683.3141      444.00764      49141.543      151.09556    
     78710   137.49598     -5710.63       -5683.3488      346.36892      49155.057      151.1179     
     78720   137.75179     -5710.7201     -5683.3882      218.25454      49176.954      151.1604     
     78730   137.78333     -5710.7695     -5683.4313      91.581489      49203.963      151.21731    
     78740   138.03925     -5710.8673     -5683.4783     -54.872193      49232.76       151.28246    
     78750   138.33858     -5710.9779     -5683.5296     -170.89359      49259.829      151.3494     
     78760   138.37144     -5711.0431     -5683.5882     -247.44272      49282.239      151.41229    
     78770   137.76405     -5710.9885     -5683.6542     -288.71694      49298.162      151.46613    
     78780   135.89427     -5710.6893     -5683.726      -280.13228      49306.702      151.50697    
     78790   134.28809     -5710.4396     -5683.7949     -232.9636       49308.109      151.5334     
     78800   134.64738     -5710.5762     -5683.8602     -193.85884      49303.565      151.54674    
     78810   135.73206     -5710.8494     -5683.9182     -129.49778      49294.266      151.54985    
     78820   136.34266     -5711.0284     -5683.9761     -36.37826       49281.9        151.54773    
     78830   135.75208     -5710.968      -5684.0329      64.216698      49268.777      151.54599    
     78840   134.52339     -5710.7812     -5684.0899      183.62991      49257.493      151.54853    
     78850   133.9201      -5710.7139     -5684.1422      273.80369      49250.898      151.55874    
     78860   134.65291     -5710.9061     -5684.1891      302.13904      49251.106      151.57867    
     78870   136.25891     -5711.2668     -5684.2311      300.13651      49258.837      151.61018    
     78880   136.65799     -5711.395      -5684.2801      276.70446      49273.97       151.65463    
     78890   135.2209      -5711.161      -5684.3312      202.80345      49295.686      151.71084    
     78900   133.88916     -5710.9468     -5684.3813      85.466257      49322.099      151.77434    
     78910   133.24078     -5710.86       -5684.4231     -35.774156      49350.335      151.83796    
     78920   133.15847     -5710.8761     -5684.4556     -154.61639      49377.333      151.8959     
     78930   133.58919     -5710.9812     -5684.4752     -272.68698      49400.119      151.94492    
     78940   133.63384     -5711.0013     -5684.4865     -362.60107      49415.826      151.98109    
     78950   132.66434     -5710.8105     -5684.488      -399.5601       49422.29       151.99898    
     78960   131.46091     -5710.5623     -5684.4785     -393.33126      49418.614      151.99425    
     78970   131.1534      -5710.4755     -5684.4527     -349.35513      49405.102      151.96482    
     78980   132.05712     -5710.6121     -5684.41       -283.4335       49382.951      151.91225    
     78990   133.71166     -5710.871      -5684.3407     -191.78887      49353.931      151.84134    
     79000   135.37404     -5711.1196     -5684.2595     -72.822234      49320.469      151.75916    
     79010   135.89938     -5711.1259     -5684.1615      65.869605      49285.576      151.67399    
     79020   135.21724     -5710.8885     -5684.0595      214.46012      49252.742      151.59431    
     79030   134.87693     -5710.7069     -5683.9454      348.3174       49225.614      151.52851    
     79040   135.58921     -5710.726      -5683.8231      447.34005      49207.395      151.48362    
     79050   136.99478     -5710.8823     -5683.7006      488.10859      49200.417      151.46396    
     79060   137.95591     -5710.9534     -5683.5809      495.84715      49205.676      151.47073    
     79070   138.09711     -5710.8688     -5683.4683      449.34594      49223.189      151.5036     
     79080   138.39263     -5710.8289     -5683.3698      338.632        49251.707      151.55966    
     79090   139.59292     -5710.9764     -5683.2792      195.72041      49288.466      151.6335     
     79100   140.72099     -5711.1226     -5683.2015      33.12842       49329.846      151.71868    
     79110   140.44687     -5711.0079     -5683.1413     -114.71988      49371.825      151.8078     
     79120   138.66092     -5710.6069     -5683.0946     -227.69547      49410.662      151.89295    
     79130   136.29753     -5710.1023     -5683.0589     -297.95438      49443.506      151.96685    
     79140   134.64709     -5709.7408     -5683.0249     -349.27819      49468.576      152.02426    
     79150   133.84117     -5709.5449     -5682.9889     -394.66222      49484.6        152.06249    
     79160   133.12948     -5709.3618     -5682.947      -422.73535      49490.502      152.08009    
     79170   132.91916     -5709.2684     -5682.8954     -410.79566      49485.693      152.0768     
     79180   133.70131     -5709.3651     -5682.8369     -357.77373      49470.547      152.05459    
     79190   135.23341     -5709.5951     -5682.7628     -275.49963      49446.469      152.01754    
     79200   137.56841     -5709.9778     -5682.6822     -180.11074      49415.571      151.96876    
     79210   139.48488     -5710.2755     -5682.5997     -75.168568      49380.336      151.90909    
     79220   139.78866     -5710.2598     -5682.5237      55.945093      49343.505      151.8394     
     79230   139.17725     -5710.0686     -5682.4538      178.97467      49308.324      151.76387    
     79240   139.35572     -5710.0375     -5682.3873      264.58162      49277.849      151.68799    
     79250   139.86743     -5710.0836     -5682.3319      302.02315      49254.11       151.61687    
     79260   138.87315     -5709.839      -5682.2846      345.46116      49238.162      151.55557    
     79270   137.07451     -5709.4409     -5682.2434      372.76468      49230.967      151.51058    
     79280   136.3875      -5709.2633     -5682.2021      362.35079      49233.065      151.48852    
     79290   137.13723     -5709.3629     -5682.1529      288.84755      49244.066      151.49465    
     79300   138.83968     -5709.6445     -5682.0968      172.12515      49262.156      151.5287     
     79310   140.01455     -5709.8192     -5682.0383      29.988457      49284.385      151.58512    
     79320   140.08987     -5709.7742     -5681.9783     -104.59825      49307.236      151.65365    
     79330   140.13604     -5709.7277     -5681.9227     -216.24244      49327.351      151.72067    
     79340   141.01649     -5709.8511     -5681.8714     -265.85356      49342.037      151.7728     
     79350   142.21182     -5710.051      -5681.8342     -283.91222      49349.97       151.80152    
     79360   142.40431     -5710.069      -5681.8139     -269.54156      49350.752      151.80441    
     79370   141.32794     -5709.8632     -5681.8217     -195.17658      49344.866      151.78573    
     79380   140.19567     -5709.6687     -5681.8519     -96.655425      49334.112      151.75503    
     79390   139.8765      -5709.6599     -5681.9064      9.9219552      49320.99       151.72316    
     79400   139.77398     -5709.7152     -5681.982       105.15403      49308.118      151.70065    
     79410   139.24934     -5709.7057     -5682.0766      187.13392      49297.897      151.69606    
     79420   139.04447     -5709.7804     -5682.192       231.98895      49292.343      151.7154     
     79430   138.76988     -5709.8588     -5682.3248      262.23697      49292.597      151.75914    
     79440   138.29078     -5709.9104     -5682.4715      274.3467       49299.435      151.82177    
     79450   138.01201     -5710.0093     -5682.6257      221.34636      49313.005      151.89523    
     79460   136.99573     -5709.9657     -5682.7838      172.01928      49332.141      151.97113    
     79470   135.64952     -5709.8489     -5682.9341      109.36671      49355.496      152.04359    
     79480   135.03741     -5709.8657     -5683.0724      17.563867      49381.429      152.10802    
     79490   135.25803     -5710.032      -5683.1949     -68.206794      49407.724      152.16138    
     79500   136.1405      -5710.3191     -5683.3069     -149.03355      49432.189      152.20538    
     79510   137.01741     -5710.5974     -5683.4112     -220.1352       49452.814      152.24347    
     79520   137.26882     -5710.7494     -5683.5133     -266.24165      49467.848      152.27705    
     79530   136.41852     -5710.6794     -5683.6121     -294.8533       49476.086      152.30485    
     79540   134.87979     -5710.4692     -5683.7072     -283.37568      49476.878      152.32318    
     79550   134.36812     -5710.452      -5683.7915     -256.37218      49470.464      152.32856    
     79560   135.20919     -5710.6952     -5683.8678     -224.16115      49457.535      152.31964    
     79570   135.83802     -5710.8915     -5683.9393     -139.07463      49439.041      152.29589    
     79580   134.78478     -5710.7476     -5684.0043     -10.703768      49417.105      152.25993    
     79590   132.87247     -5710.4227     -5684.0589      119.00108      49394.929      152.21823    
     79600   131.9306      -5710.2773     -5684.1004      210.25289      49375.697      152.17899    
     79610   132.55052     -5710.4227     -5684.1228      271.83726      49361.744      152.14933    
     79620   133.53371     -5710.6289     -5684.1339      307.68539      49354.617      152.13429    
     79630   134.83825     -5710.89       -5684.1362      294.59936      49355.17       152.13646    
     79640   136.62265     -5711.246      -5684.1381      227.44938      49363.076      152.15488    
     79650   137.29307     -5711.3826     -5684.1417      129.1065       49376.622      152.18512    
     79660   136.06872     -5711.146      -5684.148       48.648031      49393.473      152.22104    
     79670   134.43395     -5710.8311     -5684.1574     -20.251507      49411.585      152.25735    
     79680   133.58752     -5710.6622     -5684.1566     -82.943759      49429.155      152.29041    
     79690   132.83644     -5710.504      -5684.1474     -115.20264      49444.658      152.31969    
     79700   132.0398      -5710.3239     -5684.1253     -136.34555      49457.206      152.34669    
     79710   132.23578     -5710.3242     -5684.0867     -144.89468      49466.301      152.37245    
     79720   133.40322     -5710.4985     -5684.0294     -158.50232      49471.698      152.39515    
     79730   135.05499     -5710.7545     -5683.9577     -164.92315      49473.074      152.41022    
     79740   136.29224     -5710.9109     -5683.8686     -173.67017      49470.221      152.41295    
     79750   136.45707     -5710.8519     -5683.7769     -162.78541      49462.994      152.40021    
     79760   136.39252     -5710.7391     -5683.6769     -158.04958      49451.551      152.3706     
     79770   137.27578     -5710.8083     -5683.5709     -162.25997      49436.035      152.32448    
     79780   138.49442     -5710.9398     -5683.4605     -139.20621      49416.444      152.26462    
     79790   138.81641     -5710.8933     -5683.3501     -75.124817      49393.365      152.19668    
     79800   137.70582     -5710.5608     -5683.238       11.654122      49368.385      152.12842    
     79810   136.67384     -5710.2473     -5683.1293      72.968389      49343.586      152.06738    
     79820   137.29868     -5710.2583     -5683.0163      96.287745      49320.531      152.0187     
     79830   137.86438     -5710.2583     -5682.904       102.49066      49299.887      151.98333    
     79840   137.12993     -5710.006      -5682.7974      113.45125      49281.86       151.95811    
     79850   135.84894     -5709.65       -5682.6956      115.69396      49266.662      151.93751    
     79860   134.98557     -5709.3754     -5682.5923      100.973        49254.277      151.91698    
     79870   135.15522     -5709.3029     -5682.4861      99.486464      49244.432      151.89325    
     79880   136.79941     -5709.5145     -5682.3716      99.451245      49237.029      151.8661     
     79890   139.18066     -5709.8749     -5682.2594      116.29545      49232.17       151.83899    
     79900   140.54113     -5710.0422     -5682.1569      118.83541      49230.177      151.81742    
     79910   140.41261     -5709.9309     -5682.071       142.39833      49231.235      151.80607    
     79920   140.38512     -5709.8591     -5682.0047      157.39812      49235.85       151.80902    
     79930   141.00218     -5709.9338     -5681.957       141.56771      49244.339      151.82803    
     79940   141.66542     -5710.0375     -5681.929       96.14962       49256.324      151.8611     
     79950   141.90227     -5710.0803     -5681.9249      39.634212      49270.701      151.90253    
     79960   141.02096     -5709.9247     -5681.9441     -23.540565      49286.051      151.94491    
     79970   139.53498     -5709.6632     -5681.9775     -64.956495      49300.861      151.98025    
     79980   138.76874     -5709.564      -5682.0303     -61.901204      49314.156      152.00354    
     79990   139.02958     -5709.683      -5682.0975     -68.762253      49325.861      152.01539    
     80000   139.40738     -5709.8445     -5682.1841     -69.072652      49335.891      152.01905    
Loop time of 5997.8 on 1 procs for 30000 steps with 1536 atoms

Performance: 0.432 ns/day, 55.535 hours/ns, 5.002 timesteps/s, 7.683 katom-step/s
99.4% CPU use with 1 MPI tasks x 1 OpenMP threads

MPI task timing breakdown:
Section |  min time  |  avg time  |  max time  |%varavg| %total
---------------------------------------------------------------
Pair    | 5981       | 5981       | 5981       |   0.0 | 99.72
Bond    | 0.0094102  | 0.0094102  | 0.0094102  |   0.0 |  0.00
Neigh   | 5.4069     | 5.4069     | 5.4069     |   0.0 |  0.09
Comm    | 0.6696     | 0.6696     | 0.6696     |   0.0 |  0.01
Output  | 8.7943     | 8.7943     | 8.7943     |   0.0 |  0.15
Modify  | 1.7582     | 1.7582     | 1.7582     |   0.0 |  0.03
Other   |            | 0.1615     |            |       |  0.00

Nlocal:           1536 ave        1536 max        1536 min
Histogram: 1 0 0 0 0 0 0 0 0 0
Nghost:           2432 ave        2432 max        2432 min
Histogram: 1 0 0 0 0 0 0 0 0 0
Neighs:              0 ave           0 max           0 min
Histogram: 1 0 0 0 0 0 0 0 0 0
FullNghs:        45712 ave       45712 max       45712 min
Histogram: 1 0 0 0 0 0 0 0 0 0

Total # of neighbors = 45712
Ave neighs/atom = 29.760417
Ave special neighs/atom = 0
Neighbor list builds = 2888
Dangerous builds = 1986
unfix           4

write_data      structure.end.data
System init for write_data ...
write_restart   structure.end
System init for write_restart ...
                    
Total wall time: 2:12:53
