LAMMPS (29 Sep 2021 - Update 3)
OMP_NUM_THREADS environment is not set. Defaulting to 1 thread. (src/comm.cpp:98)
  using 1 OpenMP thread(s) per MPI task
Reading data file ...
  orthogonal box = (0.0000000 0.0000000 0.0000000) to (18.492711 18.368364 83.044081)
  2 by 1 by 8 MPI processor grid
  reading atoms ...
  864 atoms
Finding 1-2 1-3 1-4 neighbors ...
  special bond factors lj:    0        0        0       
  special bond factors coul:  0        0        0       
     0 = max # of 1-2 neighbors
     0 = max # of 1-3 neighbors
     0 = max # of 1-4 neighbors
     1 = max # of special neighbors
  special bonds CPU = 0.008 seconds
  read_data CPU = 0.107 seconds
Neighbor list info ...
  update every 1 steps, delay 10 steps, check yes
  max neighbors/atom: 2000, page size: 100000
  master list distance cutoff = 6.22
  ghost atom cutoff = 6.22
  binsize = 3.11, bins = 6 6 27
  1 neighbor lists, perpetual/occasional/extra = 1 0 0
  (1) pair quip, perpetual
      attributes: full, newton on
      pair build: full/bin
      stencil: full/bin/3d
      bin: standard
Setting up Verlet run ...
  Unit style    : metal
  Current step  : 0
  Time step     : 0.001
Per MPI rank memory allocation (min/avg/max) = 8.888 | 8.895 | 8.900 Mbytes
Step Temp PotEng TotEng Press Volume c_msd[4] 
       0            0   -7973.6696   -7973.6696   -2874.2394    28208.484            0 
      10    41.278351   -7978.2784   -7973.6737   -2959.4518    28208.484 0.00023887099 
      20    117.01377   -7986.7312   -7973.6782   -2971.9336    28208.484 0.0029537371 
      30    174.81925   -7993.1785   -7973.6771   -2824.2466    28208.484  0.010160551 
      40    218.44962    -7998.045   -7973.6766   -2720.6333    28208.484  0.020641735 
      50    256.00476   -8002.2349   -7973.6771   -2700.3711    28208.484  0.032489043 
      60    281.23595   -8005.0509   -7973.6786   -2720.3164    28208.484  0.045481137 
      70    279.84796   -8004.8936   -7973.6762   -2497.2427    28208.484  0.060875411 
      80    275.57271   -8004.4166   -7973.6761   -2346.6282    28208.484  0.078472831 
      90    275.14134   -8004.3684    -7973.676   -2375.5075    28208.484  0.097756432 
     100    277.97329   -8004.6843   -7973.6759   -2450.2098    28208.484   0.11838341 
     110    284.32121   -8005.3929   -7973.6764   -2585.3887    28208.484    0.1397563 
     120    288.42818   -8005.8514   -7973.6768   -2555.7238    28208.484   0.16133553 
     130    287.27066   -8005.7216   -7973.6761   -2379.8786    28208.484   0.18293983 
     140    286.58177   -8005.6454   -7973.6767   -2199.4073    28208.484   0.20440576 
     150    283.09159    -8005.256   -7973.6767   -2058.8623    28208.484   0.22545748 
     160    281.87093     -8005.12   -7973.6769   -2002.9487    28208.484   0.24504756 
     170    281.00839    -8005.024   -7973.6771   -2057.3307    28208.484   0.26222423 
     180    282.68046     -8005.21   -7973.6765   -2118.7926    28208.484   0.27648184 
     190    291.53832   -8006.1995   -7973.6779   -2237.0667    28208.484   0.28923786 
     200    293.64302   -8006.4325   -7973.6762   -2373.3356    28208.484   0.30372277 
     210    298.64228   -8006.9936   -7973.6796   -2435.1957    28208.484   0.32052492 
     220    292.65421   -8006.3221   -7973.6761   -2273.8456    28208.484   0.33666335 
     230    296.18967   -8006.7198   -7973.6794   -2277.4624    28208.484   0.34931106 
     240    282.07352   -8005.1401   -7973.6743   -2198.7147    28208.484   0.36070053 
     250    293.47873    -8006.417    -7973.679   -2346.9356    28208.484   0.37209929 
     260    294.86866   -8006.5718   -7973.6788   -2406.0825    28208.484   0.38456478 
     270    292.66954   -8006.3399   -7973.6921   -2371.6679    28208.484   0.39632792 
     280    288.22645   -8005.8424   -7973.6903   -2343.9303    28208.484   0.40740341 
     290    280.03766   -8004.9272   -7973.6886   -2399.6918    28208.484   0.41930862 
     300    280.42672   -8004.9707   -7973.6886   -2493.7264    28208.484   0.43203295 
     310    287.66524   -8005.7795     -7973.69   -2540.7382    28208.484   0.44617059 
     320    287.59248   -8005.7709   -7973.6895   -2479.6365    28208.484   0.46153129 
     330    287.30367   -8005.7384   -7973.6892   -2430.7941    28208.484   0.47558463 
     340      291.107   -8006.1632   -7973.6897   -2433.3574    28208.484   0.48761679 
     350    290.07985   -8006.0486   -7973.6898   -2407.8749    28208.484   0.49931209 
     360    283.46216   -8005.3096    -7973.689    -2324.857    28208.484   0.51138392 
     370    283.31611   -8005.2933    -7973.689   -2223.9029    28208.484   0.52363749 
     380    293.81781   -8006.4657   -7973.6899   -2201.7975    28208.484   0.53571675 
     390    300.79692   -8007.2454   -7973.6911   -2203.1603    28208.484   0.54763687 
     400    296.63974     -8006.78   -7973.6894   -2207.2978    28208.484   0.55946952 
     410     295.9675   -8006.7055   -7973.6899    -2389.454    28208.484   0.57119336 
     420    296.34311   -8006.7466   -7973.6891   -2528.2941    28208.484   0.58115249 
     430    302.08464   -8007.3879   -7973.6899   -2546.6384    28208.484   0.58802692 
     440    300.89773   -8007.2566    -7973.691   -2408.1467    28208.484   0.59313659 
     450    295.75798   -8006.6815   -7973.6893   -2201.4544    28208.484   0.59704421 
     460    298.71554   -8007.0127   -7973.6905   -2097.6901    28208.484   0.60034051 
     470    293.57038   -8006.4367   -7973.6885   -1853.8963    28208.484   0.60455383 
     480    299.68957   -8007.1205   -7973.6897   -1687.1392    28208.484   0.60898733 
     490    304.28303    -8007.634   -7973.6908   -1569.5251    28208.484   0.61372446 
     500    297.76534   -8006.9049   -7973.6887   -1520.9163    28208.484   0.61909997 
     510     298.0343    -8006.936   -7973.6898   -1578.3555    28208.484     0.624484 
     520    298.51386   -8006.9892   -7973.6895   -1617.2528    28208.484   0.63055005 
     530    299.67651    -8007.119   -7973.6896   -1583.6011    28208.484   0.63765456 
     540    301.93935   -8007.3714   -7973.6896    -1486.536    28208.484   0.64551302 
     550    304.04909   -8007.6074   -7973.6903   -1392.2763    28208.484    0.6536082 
     560    304.32541   -8007.6381   -7973.6901   -1287.1967    28208.484   0.66116979 
     570    303.65289   -8007.5627   -7973.6898   -1155.3607    28208.484   0.66831766 
     580    306.61685   -8007.8931   -7973.6895   -1197.3354    28208.484   0.67540713 
     590    314.13334   -8008.7329   -7973.6909   -1349.2051    28208.484   0.68183493 
     600    314.58012   -8008.7816   -7973.6897   -1383.1623    28208.484   0.68848067 
     610    313.36382   -8008.6461   -7973.6899   -1339.6031    28208.484   0.69624527 
     620     312.9428   -8008.5985   -7973.6893   -1300.0364    28208.484   0.70606469 
     630    317.72028    -8009.132   -7973.6899   -1341.7477    28208.484   0.71807814 
     640    322.57063   -8009.6733   -7973.6901   -1410.5145    28208.484   0.73069429 
     650    323.60168   -8009.7886   -7973.6903   -1540.2113    28208.484   0.74223138 
     660    318.39172   -8009.2068   -7973.6897   -1568.6259    28208.484   0.75263353 
     670    316.27474   -8008.9702   -7973.6892   -1586.0839    28208.484    0.7619451 
     680    320.95534   -8009.4935   -7973.6904   -1558.4885    28208.484   0.77150239 
     690    319.85933   -8009.3708     -7973.69    -1459.468    28208.484   0.78296875 
     700    315.81982   -8008.9199   -7973.6897   -1330.2989    28208.484   0.79605918 
     710    316.18394   -8008.9601   -7973.6893   -1285.6029    28208.484   0.80930055 
     720    321.99795   -8009.6098   -7973.6904   -1374.2337    28208.484   0.82124899 
     730    320.60154   -8009.4538   -7973.6902   -1440.5044    28208.484   0.83277534 
     740    316.58517   -8009.0043   -7973.6888   -1452.0725    28208.484    0.8439361 
     750    321.27163   -8009.5293    -7973.691   -1655.1798    28208.484     0.854338 
     760    314.38368   -8008.7598   -7973.6899   -1838.5562    28208.484   0.86584884 
     770     305.9368   -8007.8166   -7973.6889   -1999.9526    28208.484   0.87941766 
     780    305.71483   -8007.7927   -7973.6897   -2140.7584    28208.484   0.89394007 
     790    305.84031   -8007.8065   -7973.6896   -2209.2571    28208.484   0.90782838 
     800    306.48205   -8007.8784   -7973.6899   -2275.1918    28208.484   0.92026204 
     810    304.33355   -8007.6388   -7973.6899   -2343.4421    28208.484   0.93178116 
     820    297.82924   -8006.9125   -7973.6892   -2314.2529    28208.484    0.9431626 
     830    296.11711   -8006.7216   -7973.6893   -2340.1192    28208.484   0.95457823 
     840    299.50491   -8007.0998   -7973.6896   -2406.4366    28208.484   0.96506277 
     850    304.52466   -8007.6597   -7973.6895   -2460.7845    28208.484   0.97329313 
     860     310.8399   -8008.3649   -7973.6902   -2449.0401    28208.484   0.97916609 
     870    310.67413   -8008.3459   -7973.6897   -2327.6881    28208.484   0.98350092 
     880    309.42712   -8008.2065   -7973.6894   -2225.4629    28208.484   0.98651824 
     890    311.26126   -8008.4116   -7973.6899    -2248.854    28208.484   0.98981853 
     900    313.26109   -8008.6341   -7973.6893   -2271.1415    28208.484     0.995508 
     910    320.18937   -8009.4082   -7973.6906   -2399.0494    28208.484    1.0049166 
     920    319.06768   -8009.2826   -7973.6901    -2517.896    28208.484    1.0179539 
     930    311.48412   -8008.4358   -7973.6893   -2630.8665    28208.484    1.0322955 
     940    307.33364   -8007.9728   -7973.6893   -2692.4224    28208.484    1.0452919 
     950    306.79072   -8007.9125   -7973.6895   -2690.0291    28208.484    1.0559933 
     960    307.40028   -8007.9805   -7973.6895    -2685.778    28208.484    1.0648912 
     970    308.12458   -8008.0613   -7973.6895   -2650.3957    28208.484    1.0729687 
     980    308.40186   -8008.0924   -7973.6897   -2580.8757    28208.484    1.0808973 
     990    307.35297   -8007.9752   -7973.6895    -2481.356    28208.484    1.0887898 
    1000    307.21435     -8007.96   -7973.6898   -2353.6684    28208.484    1.0961224 
    1010    306.76152   -8007.9091   -7973.6894   -2248.7956    28208.484    1.1027335 
    1020    309.26646    -8008.189   -7973.6898   -2286.0041    28208.484    1.1099454 
    1030    310.25342   -8008.2989   -7973.6897   -2305.1256    28208.484    1.1183111 
    1040    307.62812   -8008.0062   -7973.6898    -2294.831    28208.484    1.1271276 
    1050    300.85261   -8007.2498   -7973.6892   -2274.7356    28208.484    1.1353455 
    1060    298.03491   -8006.9356   -7973.6894   -2274.0022    28208.484    1.1412949 
    1070     298.1827   -8006.9525   -7973.6898   -2240.2755    28208.484    1.1449307 
    1080    298.32389   -8006.9674   -7973.6889   -2186.0158    28208.484    1.1478628 
    1090    304.12167   -8007.6156   -7973.6903   -2224.5843    28208.484    1.1507358 
    1100    303.21342   -8007.5135   -7973.6896   -2273.1413    28208.484    1.1542182 
    1110    302.55349   -8007.4391   -7973.6888   -2350.8777    28208.484    1.1583885 
    1120    311.89752   -8008.4827   -7973.6901   -2437.4889    28208.484     1.162828 
    1130    317.78566     -8009.14   -7973.6905   -2446.8483    28208.484     1.167408 
    1140    311.56568   -8008.4454   -7973.6898   -2410.0182    28208.484    1.1717043 
    1150    303.07264   -8007.4971   -7973.6889   -2380.3816    28208.484    1.1751291 
    1160    303.70308   -8007.5677   -7973.6892    -2470.872    28208.484    1.1775178 
    1170    310.51899   -8008.3284   -7973.6895   -2617.7569    28208.484    1.1788381 
    1180    316.91994   -8009.0426   -7973.6898   -2682.3818    28208.484    1.1790698 
    1190    320.34041   -8009.4241   -7973.6896   -2666.8258    28208.484    1.1789053 
    1200    321.06279   -8009.5055   -7973.6905   -2603.0061    28208.484    1.1796194 
    1210    314.26027   -8008.7456   -7973.6894   -2485.4053    28208.484    1.1821764 
    1220    309.32884    -8008.196   -7973.6899    -2464.998    28208.484    1.1865082 
    1230    306.19371   -8007.8458   -7973.6895   -2530.8384    28208.484    1.1911967 
    1240    306.63151   -8007.8948   -7973.6896   -2616.4378    28208.484    1.1944331 
    1250    309.06475   -8008.1663   -7973.6897   -2607.8093    28208.484    1.1957913 
    1260    312.48643   -8008.5482   -7973.6898    -2462.899    28208.484    1.1957707 
    1270    312.94072   -8008.5995   -7973.6905   -2234.5909    28208.484    1.1949586 
    1280    309.44145   -8008.2076   -7973.6889   -2027.1289    28208.484    1.1941489 
    1290    314.87458   -8008.8149   -7973.6902   -1974.2087    28208.484    1.1943163 
    1300    319.36818   -8009.3159   -7973.6899   -1982.4404    28208.484     1.195877 
    1310    321.84143   -8009.5922   -7973.6903   -1943.5386    28208.484    1.1987306 
    1320    321.73486     -8009.58     -7973.69    -1845.706    28208.484    1.2036004 
    1330    320.53672   -8009.4466   -7973.6902   -1700.8294    28208.484    1.2106875 
    1340    314.45984   -8008.7682   -7973.6898   -1509.1942    28208.484    1.2186301 
    1350    308.88407   -8008.1459   -7973.6894   -1443.5528    28208.484    1.2257175 
    1360    308.85021   -8008.1421   -7973.6894   -1546.3935    28208.484    1.2310073 
    1370    314.64585   -8008.7893   -7973.6901   -1721.3694    28208.484     1.234708 
    1380    316.29012   -8008.9734   -7973.6908   -1817.9195    28208.484    1.2377498 
    1390    307.32275   -8007.9718   -7973.6895   -1803.5548    28208.484    1.2409119 
    1400    301.76471   -8007.3515   -7973.6892   -1859.1426    28208.484    1.2443267 
    1410    303.86241   -8007.5861   -7973.6897   -1936.9087    28208.484    1.2481193 
    1420    306.88628   -8007.9231   -7973.6894   -1917.1497    28208.484    1.2526965 
    1430    311.21927   -8008.4068   -7973.6898   -1887.7633    28208.484    1.2583105 
    1440    313.42496   -8008.6528   -7973.6898   -1851.4527    28208.484    1.2642026 
    1450     313.3569   -8008.6451   -7973.6897   -1798.7574    28208.484     1.269636 
    1460    313.21275   -8008.6295   -7973.6901   -1825.1156    28208.484    1.2754342 
    1470    309.64761   -8008.2313   -7973.6896   -1804.0626    28208.484    1.2823313 
    1480    309.40126   -8008.2029   -7973.6887   -1783.0935    28208.484    1.2890305 
    1490    320.42565   -8009.4341   -7973.6901   -1893.3186    28208.484    1.2938055 
    1500    328.10175   -8010.2905   -7973.6903   -1974.4184    28208.484    1.2976917 
    1510    327.81197   -8010.2577   -7973.6898    -1937.058    28208.484    1.3022885 
    1520     324.2243   -8009.8576   -7973.6899   -1828.5619    28208.484    1.3070588 
    1530    318.99753   -8009.2739   -7973.6893   -1744.3097    28208.484    1.3111416 
    1540    315.99968   -8008.9401   -7973.6899   -1679.5222    28208.484    1.3147163 
    1550    311.82694   -8008.4737   -7973.6889   -1676.3191    28208.484     1.318865 
    1560    315.99733   -8008.9396   -7973.6896   -1782.1266    28208.484    1.3245612 
    1570    321.70035   -8009.5765   -7973.6904   -1943.6277    28208.484    1.3315419 
    1580    318.91113   -8009.2648   -7973.6898   -1980.5418    28208.484     1.338424 
    1590    316.40503   -8008.9842   -7973.6888   -1871.1257    28208.484    1.3448929 
    1600    323.69059   -8009.7984   -7973.6903   -1863.2593    28208.484    1.3517889 
    1610    324.55521    -8009.895   -7973.6903   -1926.3043    28208.484    1.3589892 
    1620    317.22283   -8009.0757    -7973.689    -2033.451    28208.484    1.3640281 
    1630    315.56944   -8008.8917   -7973.6895   -2189.5743    28208.484    1.3650114 
    1640          316   -8008.9396   -7973.6894   -2246.5115    28208.484     1.363698 
    1650     317.3618   -8009.0917   -7973.6895   -2167.3771    28208.484    1.3628757 
    1660    317.92845   -8009.1553   -7973.6899   -2101.0814    28208.484    1.3639966 
    1670    314.61233   -8008.7852   -7973.6897   -2010.9785    28208.484    1.3669961 
    1680    312.18324   -8008.5133   -7973.6888   -2055.2147    28208.484     1.371293 
    1690    317.45918   -8009.1028   -7973.6897    -2191.224    28208.484    1.3761955 
    1700    321.08797   -8009.5076   -7973.6898   -2266.1824    28208.484    1.3813209 
    1710    322.36089   -8009.6492   -7973.6893   -2262.0514    28208.484    1.3861808 
    1720    325.18317   -8009.9643   -7973.6896   -2258.3202    28208.484    1.3904451 
    1730    326.15411   -8010.0728   -7973.6898    -2317.316    28208.484     1.394947 
    1740     323.8725   -8009.8181   -7973.6896   -2287.8062    28208.484    1.4007384 
    1750    320.41839   -8009.4325   -7973.6894   -2200.4994    28208.484    1.4075406 
    1760     319.2517   -8009.3028   -7973.6898   -2148.7833    28208.484     1.414045 
    1770    317.70647   -8009.1306     -7973.69    -2060.265    28208.484    1.4199919 
    1780    313.91842   -8008.7076   -7973.6895   -1900.1987    28208.484    1.4259827 
    1790    313.00692   -8008.6058   -7973.6894   -1752.6987    28208.484    1.4322179 
    1800     316.3606   -8008.9805     -7973.69   -1656.4741    28208.484    1.4376798 
    1810    317.06323    -8009.059   -7973.6901   -1611.9912    28208.484    1.4414287 
    1820    314.75826    -8008.801   -7973.6892    -1594.078    28208.484    1.4434919 
    1830    319.39788   -8009.3191   -7973.6898   -1580.2478    28208.484    1.4448335 
    1840    326.94741   -8010.1618   -7973.6903   -1586.0007    28208.484    1.4478206 
    1850     328.2751   -8010.3099   -7973.6903   -1510.9657    28208.484    1.4534245 
    1860    325.54844   -8010.0044    -7973.689   -1434.8489    28208.484    1.4597334 
    1870    330.22766   -8010.5276   -7973.6902   -1485.8246    28208.484    1.4649668 
    1880    331.47708   -8010.6665   -7973.6897   -1548.2944    28208.484    1.4702024 
    1890    330.21474   -8010.5256   -7973.6896   -1516.0861    28208.484    1.4764703 
    1900    331.58833   -8010.6782    -7973.689   -1442.8287    28208.484    1.4834549 
    1910    337.92691   -8011.3872    -7973.691   -1475.0881    28208.484    1.4904186 
    1920     332.3277   -8010.7614   -7973.6897   -1417.3686    28208.484    1.4973123 
    1930    326.40875   -8010.1005   -7973.6891    -1294.946    28208.484    1.5028962 
    1940    327.61985   -8010.2367   -7973.6902   -1344.4187    28208.484    1.5071937 
    1950    326.33555   -8010.0933   -7973.6901   -1454.2005    28208.484    1.5117741 
    1960    320.98412   -8009.4961   -7973.6898    -1539.947    28208.484    1.5179832 
    1970    316.38994    -8008.983   -7973.6892   -1494.5471    28208.484    1.5266599 
    1980    318.66568   -8009.2379   -7973.6903    -1430.619    28208.484     1.537506 
    1990    319.09324   -8009.2848   -7973.6895   -1383.3475    28208.484     1.548395 
    2000    324.20331   -8009.8559   -7973.6905   -1553.3118    28208.484     1.556546 
Loop time of 1474.45 on 16 procs for 2000 steps with 864 atoms

Performance: 0.117 ns/day, 204.784 hours/ns, 1.356 timesteps/s
97.8% CPU use with 16 MPI tasks x 1 OpenMP threads

MPI task timing breakdown:
Section |  min time  |  avg time  |  max time  |%varavg| %total
---------------------------------------------------------------
Pair    | 460.6      | 1196.1     | 1429       | 838.1 | 81.12
Bond    | 0.00016737 | 0.00051342 | 0.0012228  |   0.0 |  0.00
Neigh   | 0.020225   | 0.02417    | 0.028593   |   1.8 |  0.00
Comm    | 41.801     | 274.26     | 1003.8     |1738.1 | 18.60
Output  | 0.58448    | 3.9324     | 9.8561     | 157.1 |  0.27
Modify  | 0.01017    | 0.012191   | 0.014621   |   1.1 |  0.00
Other   |            | 0.07485    |            |       |  0.01

Nlocal:        54.0000 ave          63 max          48 min
Histogram: 5 0 1 2 2 1 1 2 0 2
Nghost:        409.688 ave         449 max         386 min
Histogram: 3 3 1 3 2 1 1 0 0 2
Neighs:         0.00000 ave           0 max           0 min
Histogram: 16 0 0 0 0 0 0 0 0 0
FullNghs:      1604.62 ave        2106 max        1301 min
Histogram: 5 0 2 2 2 0 2 1 1 1

Total # of neighbors = 25674
Ave neighs/atom = 29.715278
Ave special neighs/atom = 0.0000000
Neighbor list builds = 199
Dangerous builds = 198
Setting up Verlet run ...
  Unit style    : metal
  Current step  : 2000
  Time step     : 0.001
Per MPI rank memory allocation (min/avg/max) = 8.893 | 8.897 | 8.900 Mbytes
Step Temp PotEng TotEng Press Volume c_msd[4] 
    2000         1050   -8009.8559   -7892.7268    1512.3889    28208.484     1.556546 
    2010    976.21387    -8001.603   -7892.7049     1910.889    28210.005    1.5621217 
    2020    858.51788   -7988.3144   -7892.5454    2517.8779    28215.202    1.5747472 
    2030    774.87274   -7978.5286   -7892.0904    3008.8979    28225.189     1.589406 
    2040    718.07981   -7971.3592   -7891.2563    3333.2546    28240.907    1.6068382 
    2050    688.17193   -7966.8359   -7890.0693    3311.0583    28262.974    1.6291509 
    2060    682.90952   -7964.8753   -7888.6957    2932.5494    28291.376    1.6566093 
    2070    683.77041   -7963.6589   -7887.3833    2301.2076     28325.44    1.6876298 
    2080     696.1393   -7963.8495   -7886.1942    1424.0001    28363.958    1.7199888 
    2090    690.23542   -7962.0141   -7885.0173    890.10763     28405.37    1.7535693 
    2100    677.90694   -7959.3878   -7883.7662    666.76332     28448.63    1.7883259 
    2110    667.20378   -7956.8119   -7882.3844    765.64488    28493.319    1.8221662 
    2120    671.29142   -7955.7633   -7880.8798    894.74373    28539.558    1.8529143 
    2130    674.70178   -7954.5432   -7879.2792    939.58444    28587.562    1.8809616 
    2140    681.88945   -7953.6955   -7877.6297     804.3959    28637.405    1.9059285 
    2150    711.80845   -7955.3041   -7875.9008    313.36155     28688.75    1.9272766 
    2160    736.69059   -7956.2604   -7874.0814   -121.26048    28740.673    1.9478997 
    2170    752.29256   -7956.1281   -7872.2088   -339.18583    28792.314    1.9711324 
    2180    761.35514   -7955.2353    -7870.305   -452.07478    28843.181    1.9979184 
    2190     767.0801   -7953.9427   -7868.3738   -606.00334    28892.977    2.0262863 
    2200    768.44669   -7952.1371   -7866.4157   -728.81543     28941.38    2.0538812 
    2210    770.81148   -7950.4168   -7864.4317   -885.99326    28988.082    2.0793915 
    2220    763.30464    -7947.577   -7862.4293   -812.25412    29032.798    2.1020977 
    2230    760.61299   -7945.2699   -7860.4223   -694.13346    29075.626    2.1215347 
    2240    769.15908   -7944.1889   -7858.3881   -804.20886     29116.73     2.139456 
    2250    780.63643   -7943.3967   -7856.3155   -766.83513    29155.961    2.1586488 
    2260    788.47387   -7942.1827   -7854.2273   -615.37986     29193.38    2.1795619 
    2270    810.87895   -7942.5678    -7852.113   -759.40052    29229.205    2.2017668 
    2280      834.384   -7943.0337    -7849.957   -943.09707    29263.199    2.2275612 
    2290    838.37298   -7941.3215   -7847.7997   -925.60979    29295.027    2.2587414 
    2300    845.13302   -7939.9423   -7845.6665    -786.8692    29324.717    2.2938788 
    2310    846.91057    -7938.008   -7843.5339   -478.13001    29352.594     2.331264 
    2320    858.80096    -7937.208   -7841.4075   -266.83615    29379.247    2.3686719 
    2330    889.66758   -7938.4889   -7839.2451   -494.29276     29405.04    2.4044258 
    2340    900.68607   -7937.5455   -7837.0726   -571.01263    29429.632    2.4389079 
    2350    902.72608   -7935.6429   -7834.9425   -513.85722    29452.865    2.4713188 
    2360    916.30785   -7935.0469   -7832.8314   -558.88168     29474.82     2.501334 
    2370    915.39727   -7932.8526   -7830.7386   -391.35162     29495.49    2.5310299 
    2380    908.44879   -7930.0218    -7828.683   -190.20425    29515.184    2.5622649 
    2390    904.31289   -7927.5211   -7826.6437   -54.938716    29534.311    2.5980248 
    2400    916.46322    -7926.828   -7824.5951    34.848516    29553.159    2.6400187 
    2410    940.57786   -7927.4429     -7822.52    69.486658    29571.903    2.6863996 
    2420    951.94871   -7926.6449   -7820.4536    221.15706    29590.671    2.7316582 
    2430    950.35096   -7924.4471    -7818.434    403.48984     29609.77    2.7710177 
    2440    962.19965   -7923.7863   -7816.4515    360.31847    29629.525    2.8042748 
    2450    974.12213   -7923.1382   -7814.4734    33.885904    29649.842    2.8364304 
    2460    981.17833   -7921.9751   -7812.5232   -348.26509    29670.067    2.8708461 
    2470     974.8598   -7919.3604   -7810.6133   -468.89651    29689.456    2.9067048 
    2480    960.97618   -7915.9479   -7808.7496   -411.75711     29707.74    2.9435526 
    2490    963.13074   -7914.3391   -7806.9004   -297.45754    29725.026    2.9830719 
    2500    973.36259    -7913.617   -7805.0369   -190.59213    29741.568    3.0271088 
    2510    994.16686   -7914.0688    -7803.168   -224.95058    29757.558    3.0740815 
    2520    1002.5128   -7913.1456   -7801.3138   -102.63452     29772.99    3.1203068 
    2530    1025.5994   -7913.9098   -7799.5026    54.551082    29788.104    3.1598887 
    2540    1063.5257   -7916.3652   -7797.7273    45.549914    29803.181    3.1895913 
    2550    1082.4014   -7916.7936   -7796.0501    202.82523    29818.282    3.2133038 
    2560    1081.6546   -7915.1929   -7794.5327    369.80011    29833.706    3.2379162 
    2570    1081.1017   -7913.7541   -7793.1556    435.53601    29849.794    3.2653084 
    2580    1093.0487   -7913.8329   -7791.9017    499.78217    29866.697    3.2948252 
    2590    1086.3394   -7911.9596   -7790.7768    714.54362    29884.588     3.330145 
    2600    1092.2846   -7911.6285   -7789.7825     862.2143    29903.874    3.3738232 
    2610     1100.279   -7911.6376   -7788.8998    816.00946    29924.846    3.4265278 
    2620    1098.4248   -7910.6773   -7788.1464    563.10097    29947.374    3.4855752 
    2630    1066.4136   -7906.4666   -7787.5066    330.17242    29970.968    3.5466388 
    2640    1056.7552   -7904.8084   -7786.9257   -78.930267    29995.088    3.6027073 
    2650     1070.442   -7905.7639   -7786.3545   -702.93142    30018.827    3.6491143 
    2660    1083.0988   -7906.6299   -7785.8086   -1020.2011    30040.963    3.6890477 
    2670    1094.2633   -7907.4016   -7785.3349    -1128.638    30060.789    3.7263815 
    2680    1083.8457   -7905.8633   -7784.9587    -993.7385    30078.106    3.7633811 
    2690    1062.1854     -7903.15   -7784.6616   -817.62686    30093.171    3.8008767 
    2700    1069.3224   -7903.6913   -7784.4068   -1050.7956    30106.275    3.8390005 
    2710    1074.2088   -7904.0163   -7784.1867   -1281.1134    30117.023    3.8774894 
    2720    1075.7251   -7904.0207    -7784.022   -1365.9587    30124.961    3.9143766 
    2730    1085.8643   -7905.0532   -7783.9234   -1302.9491    30129.922    3.9494456 
    2740    1072.5978   -7903.5486   -7783.8987    -892.0534    30132.103    3.9843693 
    2750    1052.9397   -7901.3818   -7783.9248   -203.89289      30132.4    4.0183049 
    2760    1047.8145   -7900.8484   -7783.9632     238.4978    30132.214    4.0536261 
    2770    1051.9983   -7901.3563   -7784.0043    259.22711    30132.471    4.0924668 
    2780     1054.939    -7901.718   -7784.0379   -37.875837     30133.24    4.1312868 
    2790    1078.8581   -7904.4401   -7784.0919   -616.38853    30133.862    4.1667187 
    2800     1079.915   -7904.6632   -7784.1971   -952.97311    30133.204    4.2007446 
    2810    1081.5247   -7905.0292   -7784.3835   -1195.9868    30130.504    4.2352608 
    2820    1071.7655   -7904.2028   -7784.6457   -1222.4362    30125.288    4.2695558 
    2830    1045.9626   -7901.6283   -7784.9496   -1032.7323    30117.517    4.2991821 
    2840    1040.2688   -7901.2926    -7785.249   -792.43737     30107.58    4.3193564 
    2850    1043.8858   -7901.9725   -7785.5255   -544.59581    30096.022    4.3339195 
    2860    1044.3416   -7902.2901   -7785.7923   -487.78346    30083.334    4.3492306 
    2870    1041.8639   -7902.2664   -7786.0449   -494.66722    30069.681    4.3663986 
    2880    1038.6344   -7902.1416   -7786.2804    -444.3489    30055.072    4.3883522 
    2890    1022.0088   -7900.4904   -7786.4838   -156.31878    30039.657    4.4167783 
    2900    1024.3631   -7900.8986   -7786.6294   -133.87095    30023.954    4.4439101 
    2910    1052.0752   -7904.0964   -7786.7359   -639.61106    30007.953    4.4618178 
    2920    1049.7158   -7903.9409   -7786.8435   -905.76293    29990.741    4.4759301 
    2930    1030.8638   -7901.9441   -7786.9497   -866.28793    29971.754    4.4933285 
    2940    1017.0191   -7900.4646   -7787.0146   -573.50072    29951.087    4.5116768 
    2950    1014.1592   -7900.1339    -7787.003   -163.23416    29929.342    4.5267098 
    2960     1040.112   -7902.9412   -7786.9151   -35.073091    29907.334    4.5390689 
    2970    1069.5816   -7906.1183   -7786.8049   -254.43314     29885.32    4.5511879 
    2980    1064.2364   -7905.4403   -7786.7231   -239.37042    29862.947    4.5632603 
    2990    1046.1646   -7903.3681   -7786.6669    106.71053    29840.277    4.5725202 
    3000    1051.6945   -7903.9239   -7786.6058    462.53433     29817.98    4.5800485 
    3010    1065.4892   -7905.4012   -7786.5443    665.47726    29796.768    4.5917787 
    3020    1060.2864   -7904.7875   -7786.5109    833.48912    29777.082    4.6110989 
    3030    1042.7178   -7902.8163   -7786.4995    1028.7236    29759.276    4.6363352 
    3040    1019.7884   -7900.2284   -7786.4695    1067.2013    29743.724    4.6635797 
    3050    1015.8651   -7899.6996   -7786.3783    1012.5546    29730.498    4.6901638 
    3060    1048.4335    -7903.181   -7786.2266    985.62719    29719.483    4.7166813 
    3070    1066.4514   -7905.0236   -7786.0593    995.11461    29710.627    4.7423379 
    3080    1061.1474    -7904.298   -7785.9254     733.9611    29703.867    4.7691918 
    3090     1047.312   -7902.6468   -7785.8176    244.67253    29698.639    4.8003294 
    3100     1040.476   -7901.7778   -7785.7111   -11.018711    29694.005    4.8330349 
    3110    1038.5833   -7901.4415    -7785.586   -185.53708    29689.382    4.8607718 
    3120    1032.0298   -7900.5559   -7785.4314   -156.23799    29684.436    4.8810866 
    3130    1017.5647   -7898.7442   -7785.2333    51.574528    29679.217    4.8969144 
    3140    1016.9273   -7898.4117    -7784.972     59.58681      29674.1    4.9139236 
    3150    1023.2148   -7898.7776   -7784.6364    -387.2584    29669.044    4.9376074 
    3160    1038.2364   -7900.0608   -7784.2439   -898.51394    29663.182     4.970133 
    3170    1058.5461   -7901.9004    -7783.818    -1388.409    29655.458    5.0080566 
    3180    1082.3371   -7904.1484   -7783.4121   -1698.7369    29644.872    5.0449935 
    3190    1082.3601   -7903.8068    -7783.068   -1422.0577    29630.863    5.0757666 
    3200     1080.722   -7903.3566   -7782.8005   -1074.7359    29613.904    5.0985258 
    3210    1081.1115   -7903.2011   -7782.6015   -888.70054    29594.714    5.1148559 
    3220    1076.9971   -7902.6137   -7782.4731   -846.09582    29573.671    5.1283904 
    3230    1055.6696   -7900.1607   -7782.3992   -598.31001    29550.933    5.1458023 
    3240    1033.7339   -7897.6502   -7782.3357   -279.69573    29526.993    5.1726634 
    3250    1031.0752   -7897.2557   -7782.2377    100.19862     29502.51     5.205352 
    3260    1047.6435   -7898.9616   -7782.0954    567.71738    29478.283    5.2373216 
    3270    1061.0921   -7900.2998   -7781.9334    890.35597    29455.245    5.2677475 
    3280     1079.249   -7902.1897   -7781.7978    929.26078    29434.021    5.3001672 
    3290    1095.6201   -7903.9456   -7781.7275    1020.7564    29414.768      5.33837 
    3300    1105.0572   -7905.0325   -7781.7617    1272.2412    29397.676    5.3839549 
    3310    1109.0021   -7905.6377   -7781.9268    1486.7934    29383.211    5.4351141 
    3320    1097.6384   -7904.6683   -7782.2251    1613.1217    29371.814    5.4858533 
    3330    1087.5841   -7903.9623   -7782.6406    1803.5116    29363.767    5.5308108 
    3340     1073.571   -7902.8965   -7783.1381    2063.8741    29359.471     5.568867 
    3350    1067.9845   -7902.8286   -7783.6933    1867.7815    29359.352    5.6025869 
    3360    1059.8759   -7902.5224   -7784.2916    1508.7738    29363.068    5.6362315 
    3370    1040.3852    -7900.953   -7784.8964    1321.9597    29369.962    5.6690965 
    3380    1040.7227   -7901.5754   -7785.4812    1050.3685    29379.567    5.6993662 
    3390    1042.7712   -7902.3615   -7786.0388    1159.8568    29391.454     5.728032 
    3400     1046.031   -7903.2711   -7786.5848     1298.742    29405.786    5.7558004 
    3410    1034.9035   -7902.5582   -7787.1132    1308.3087    29422.839    5.7827363 
    3420    1038.4498   -7903.4526    -7787.612    986.13078     29442.61    5.8092988 
    3430     1035.637   -7903.6019    -7788.075    535.86764    29464.487    5.8382444 
    3440    1021.2735   -7902.4147   -7788.4902    332.21845    29487.612    5.8701938 
    3450    1020.0459   -7902.6281   -7788.8404     289.6806     29511.54     5.906656 
    3460    1027.3171   -7903.7325   -7789.1337    362.90616    29536.199    5.9517261 
    3470    1031.2565   -7904.4208   -7789.3826    277.97794    29561.677    6.0057027 
    3480    1025.1215   -7903.9442   -7789.5904     249.6541    29587.866    6.0626454 
    3490    1016.7201   -7903.1594   -7789.7427     88.63931    29614.678    6.1157205 
    3500    1016.7285   -7903.2392   -7789.8216   -220.96132     29641.77    6.1617054 
    3510    1010.7995   -7902.5833   -7789.8271   -181.99078    29668.593    6.2022659 
    3520    1003.2591   -7901.6645   -7789.7494   -44.572248    29695.177    6.2414674 
    3530    1021.4721   -7903.5335   -7789.5868   -145.92471    29721.731    6.2820418 
    3540    1020.3886   -7903.1672   -7789.3413    -275.8266    29748.096    6.3271408 
    3550    1018.0769   -7902.5972   -7789.0292   -597.87551     29773.96    6.3789742 
    3560    1002.0359   -7900.4109   -7788.6323   -1036.2223    29798.645    6.4342695 
    3570    983.26226   -7897.8196   -7788.1353   -1272.5727    29821.277    6.4853056 
    3580    975.31248   -7896.3063   -7787.5087   -1170.2241    29841.367    6.5291249 
    3590    991.86162   -7897.3823   -7786.7386      -1105.2    29859.021    6.5672404 
    3600    1012.7565   -7898.8177   -7785.8432   -984.18468    29874.403    6.6064472 
    3610     1014.614   -7898.0609   -7784.8791   -641.14428    29887.798    6.6539881 
    3620    1020.4668   -7897.7137   -7783.8791   -437.53812    29899.865    6.7077365 
    3630    1049.4497   -7899.9164   -7782.8487   -522.65482    29910.999    6.7625226 
    3640    1052.0186    -7899.189   -7781.8348   -372.80581    29921.126    6.8207865 
    3650    1038.6205   -7896.7317    -7780.872   -211.87699    29930.495    6.8825549 
    3660     1046.887   -7896.7148    -7779.933   -355.81895    29939.413    6.9442064 
    3670    1082.4213   -7899.7574   -7779.0116   -947.63571    29947.531    7.0036266 
    3680    1096.8351   -7900.5185   -7778.1649   -1284.6184    29953.719    7.0612167 
    3690    1093.6909   -7899.4456   -7777.4427   -1044.6413    29957.304    7.1173025 
    3700     1094.858   -7898.9735   -7776.8405   -739.83748    29958.676    7.1720538 
    3710     1101.358   -7899.2075   -7776.3493   -471.64746    29958.482    7.2292903 
    3720    1122.6827   -7901.2238   -7775.9869   -310.83668    29957.263    7.2903009 
    3730    1118.7461   -7900.5837   -7775.7859    5.6587966    29955.399    7.3516703 
    3740    1092.3354   -7897.5909   -7775.7392    586.69448    29953.592    7.4113677 
    3750    1081.4299   -7896.4358   -7775.8007    943.14262    29952.985    7.4664171 
    3760    1082.7601   -7896.7214   -7775.9379    1078.3969    29954.373    7.5158963 
    3770    1082.9686   -7896.9525   -7776.1458    956.41877    29958.065    7.5618961 
    3780    1094.5712    -7898.544    -7776.443    518.52295    29963.797    7.6078969 
    3790    1090.9748   -7898.5424   -7776.8426    237.24475    29970.756    7.6583925 
    3800    1067.6473   -7896.4214   -7777.3237    53.151239    29978.328    7.7121072 
    3810    1060.1149   -7896.1088   -7777.8514   -175.74016    29986.108     7.764222 
    3820     1040.333   -7894.4426   -7778.3919   -162.91535    29993.652    7.8150631 
    3830    1013.5152   -7891.9523   -7778.8932    74.433388    30000.984    7.8628534 
    3840    1017.5348   -7892.8292   -7779.3217    121.46414    30008.543    7.9064768 
    3850    1035.5205   -7895.2049   -7779.6911    59.006274    30016.448    7.9499863 
    3860    1044.4959   -7896.5475   -7780.0324    211.44924    30024.656    7.9956635 
    3870    1053.2744   -7897.8648   -7780.3704    161.15211    30033.404    8.0447676 
    3880    1053.6832   -7898.2475   -7780.7076   -68.879922    30042.617    8.0961149 
    3890    1052.1273   -7898.4256   -7781.0592   -138.43282    30051.873    8.1509026 
    3900    1024.3673   -7895.6627    -7781.393    121.23902    30061.062    8.2086313 
    3910    1014.6922   -7894.8624    -7781.672    190.18599    30070.629    8.2651777 
    3920    1016.6966   -7895.2913   -7781.8773    43.445961    30080.744    8.3211284 
    3930    1004.1955   -7894.0237   -7782.0042   -149.65228    30091.127    8.3759203 
    3940    1010.9391   -7894.8119   -7782.0401   -287.19251      30101.4    8.4275915 
    3950    1032.9341    -7897.223   -7781.9976   -406.66989    30111.234    8.4780792 
    3960    1032.6136   -7897.0948   -7781.9052   -152.42449    30120.453    8.5272149 
    3970     1051.101   -7899.0429    -7781.791   -174.74009    30129.451    8.5712573 
    3980    1055.5945   -7899.4173   -7781.6642   -266.99553    30138.241    8.6104778 
    3990    1059.4041   -7899.7285   -7781.5504   -148.55352    30146.684    8.6478716 
    4000    1063.9224   -7900.1375   -7781.4553    -123.5152    30154.979    8.6885685 
    4010    1058.4889   -7899.4644   -7781.3884   -328.79047    30163.149    8.7321949 
    4020     1047.368   -7898.1769   -7781.3414   -519.47851    30170.793    8.7743109 
    4030    1043.9482   -7897.7462   -7781.2922   -671.69562    30177.474    8.8129312 
    4040    1041.1516   -7897.3687   -7781.2266   -606.03762    30182.887    8.8528905 
    4050    1037.5499    -7896.876   -7781.1358   -473.37989    30187.113    8.8970247 
    4060    1032.7313   -7896.2129   -7781.0102   -359.82633    30190.396    8.9431636 
    4070    1026.2542   -7895.3168   -7780.8366   -386.79273    30192.944    8.9905517 
    4080    1033.4922   -7895.9061   -7780.6185   -639.47239    30194.659    9.0380336 
    4090    1027.9268   -7895.0249   -7780.3582   -877.97956    30195.008    9.0835826 
    4100    1029.9918   -7894.9518   -7780.0547   -1084.0981    30193.445     9.125054 
    4110    1048.9522   -7896.7225   -7779.7103   -1316.1301    30189.433    9.1626621 
    4120     1062.837   -7897.9117   -7779.3507   -1095.6153    30182.506    9.1939849 
    4130    1059.3956   -7897.1769   -7778.9997   -647.41125    30173.022    9.2163792 
    4140    1068.7459   -7897.8886   -7778.6684   -467.35677    30161.809    9.2342959 
    4150    1087.5419   -7899.6939   -7778.3769   -572.48535    30149.203    9.2571149 
    4160    1082.4659    -7898.911   -7778.1603   -397.50013    30135.074    9.2883187 
    4170    1052.7615   -7895.4469   -7778.0097   -217.07538    30119.691     9.324177 
    4180    1036.8978    -7893.544   -7777.8765   -203.13726    30103.377    9.3579224 
    4190    1032.3122   -7892.8649   -7777.7089   -160.47497    30086.181    9.3897407 
    4200    1037.3653   -7893.2224   -7777.5028    13.150418    30068.188    9.4213176 
    4210    1022.9097   -7891.3586   -7777.2515    140.17333    30049.709    9.4508228 
    4220    1019.2146   -7890.6409   -7776.9459   -61.796285    30030.949    9.4746309 
    4230    1033.8467    -7891.897   -7776.5698   -289.51306    30011.536    9.4905839 
    4240    1056.2809   -7893.9769   -7776.1472   -436.83653    29990.959    9.4987919 
    4250    1071.0156   -7895.1966   -7775.7232   -113.31092     29968.95    9.5030287 
    4260    1076.7819   -7895.4507    -7775.334    280.11023    29946.087    9.5080081 
    4270    1081.2128    -7895.612   -7775.0011    295.32048    29923.134    9.5148952 
    4280    1069.1593   -7893.9983   -7774.7319    301.02482    29900.208    9.5273992 
    4290    1059.8901   -7892.7413   -7774.5089    100.97057    29877.276    9.5489188 
    4300    1062.1679   -7892.8011   -7774.3147   -88.144072    29853.978    9.5749217 
    4310     1059.401   -7892.3215   -7774.1437   -104.56627     29829.93    9.5967122 
    4320    1059.7086    -7892.201   -7773.9889   -122.93002    29805.035    9.6094746 
    4330    1059.8567   -7892.0652   -7773.8366   -95.316771    29779.275    9.6180423 
    4340     1064.483   -7892.4348   -7773.6901    -3.995859    29752.717    9.6280064 
    4350    1068.8092   -7892.7927   -7773.5655    102.97078    29725.529    9.6413867 
    4360    1048.5797   -7890.4305   -7773.4599    421.15397    29697.993    9.6640059 
    4370    1034.5855   -7888.7475   -7773.3379    811.20685    29670.768    9.6994436 
    4380    1054.0778   -7890.7644   -7773.1804    949.02763    29644.653    9.7403602 
    4390    1067.1176   -7892.0583   -7773.0198    837.38195    29619.983    9.7793767 
    4400    1064.6727   -7891.6633   -7772.8974    533.48416    29596.568    9.8200648 
    4410    1065.3247   -7891.6584   -7772.8199    371.29226    29573.862    9.8659856 
    4420     1056.722   -7890.6503   -7772.7714    549.18685    29551.577    9.9129122 
    4430    1060.1119   -7890.9969   -7772.7399    805.25329    29530.069    9.9551139 
    4440    1066.3985   -7891.6985   -7772.7402    783.24441    29509.813    9.9927348 
    4450      1049.67   -7889.8634   -7772.7712     836.9518    29490.872    10.027291 
    4460    1060.7705   -7891.1506   -7772.8201       708.22    29473.324    10.061212 
    4470    1068.8272   -7892.1296   -7772.9003     696.5979    29456.979    10.096227 
    4480    1055.0551   -7890.7182   -7773.0252    1100.5234    29441.898    10.130041 
    4490    1052.1977   -7890.5551   -7773.1808    1265.9842     29428.82    10.162929 
    4500    1056.0454   -7891.1602   -7773.3568    1212.6284    29418.152    10.198134 
    4510    1062.5279   -7892.0896    -7773.563    1172.7553    29409.857     10.23422 
    4520    1088.4009   -7895.2467   -7773.8339    1138.2529    29403.867    10.265704 
    4530    1099.5289   -7896.8774   -7774.2233    1323.8395    29400.194    10.291256 
    4540    1080.3506   -7895.2638   -7774.7491    1653.0628    29399.249    10.314132 
    4550    1057.1298   -7893.3054    -7775.381    1875.1863    29401.733    10.336508 
    4560    1040.8063   -7892.1726   -7776.0691    1792.4631      29408.1    10.361734 
    4570    1034.0341   -7892.1113   -7776.7633    1693.8742    29418.329    10.388816 
    4580    1050.9679   -7894.6968   -7777.4597     1382.527    29432.231    10.414039 
    4590    1058.3371   -7896.2294   -7778.1702    1120.8219    29449.274    10.436768 
    4600    1050.1649   -7896.0432   -7778.8957    1021.5032    29468.962    10.457912 
    4610    1049.7416   -7896.7154   -7779.6151    882.68916    29491.104    10.478702 
    4620    1062.9433   -7898.8995   -7780.3266    597.94433    29515.435    10.501369 
    4630    1052.6159   -7898.4447   -7781.0238     507.9264    29541.458    10.527661 
    4640    1030.0193    -7896.581   -7781.6808    603.69009    29568.983    10.558041 
    4650    1015.6345   -7895.5521   -7782.2565     691.8775    29598.189    10.595874 
    4660    1008.9655   -7895.2662   -7782.7145    711.03651    29629.291    10.647634 
    4670    1023.5981   -7897.2472   -7783.0633    438.56034    29662.288    10.716037 
    4680    1036.2246   -7898.9225   -7783.3301    150.31955    29696.682    10.799943 
    4690    1034.8284    -7898.973   -7783.5364    -39.83972    29731.894    10.894094 
    4700     1034.544   -7899.0974   -7783.6925   -395.57934    29767.456    10.989238 
    4710    1022.9688   -7897.9087    -7783.795    -739.3296    29802.639    11.075531 
    4720    996.51873   -7894.9855   -7783.8224   -1018.7014    29836.699    11.145364 
    4730    981.65199   -7893.2418    -7783.737   -1413.0611    29868.986    11.195515 
    4740    985.98304   -7893.5041   -7783.5162   -1742.8308    29898.659    11.232814 
    4750    999.25004   -7894.6423   -7783.1745   -1915.7789    29924.958    11.268449 
    4760    992.04404   -7893.3927   -7782.7287   -1880.3352    29947.495    11.308665 
    4770      1004.65   -7894.2632    -7782.193   -2154.6188    29966.166    11.349792 
    4780    1020.7453   -7895.4475   -7781.5819   -2257.7892    29980.432    11.387627 
    4790    1010.4801    -7893.662   -7780.9414   -1929.3666    29990.068     11.42165 
    4800    1004.5435   -7892.3441   -7780.2858   -1582.2476    29995.633    11.451078 
    4810    1001.4406   -7891.3124   -7779.6002   -1180.7122    29997.855    11.479841 
    4820    1012.4526   -7891.8449   -7778.9042   -939.40162    29997.512     11.50927 
    4830    1043.2623   -7894.6078   -7778.2303    -663.7427     29995.16    11.536348 
    4840    1057.8183   -7895.6399   -7777.6386   -405.72911    29991.349    11.564786 
    4850    1057.0569   -7895.0831   -7777.1668   -65.518462    29986.663    11.599158 
    4860    1067.4364   -7895.8805   -7776.8064   -98.337144    29981.718     11.63757 
    4870    1082.2855   -7897.2861   -7776.5555    -391.8812    29976.468     11.67785 
    4880    1078.5515   -7896.7267   -7776.4127   -351.05841    29970.405    11.720483 
    4890    1085.3395    -7897.437   -7776.3658   -234.15211    29963.549    11.761192 
    4900    1086.8265   -7897.6457   -7776.4085   -104.83862    29956.118    11.796569 
    4910    1064.8021   -7895.2986   -7776.5183    206.00195    29948.452    11.825243 
    4920    1067.1023   -7895.6965   -7776.6596    103.55443    29941.081    11.847777 
    4930    1072.4898   -7896.4595   -7776.8217   -119.75588    29933.869     11.86845 
    4940    1055.8131   -7894.7766   -7776.9991   -237.32959     29926.38    11.892943 
    4950    1059.9618    -7895.426   -7777.1857   -514.26623    29918.297    11.930016 
    4960    1062.8842   -7895.9623    -7777.396   -647.88199    29909.091    11.982788 
    4970    1031.1708   -7892.6367   -7777.6081   -350.49269    29898.536    12.044871 
    4980    1034.6683   -7893.2045   -7777.7857   -389.29261    29887.096    12.106126 
    4990    1048.0576    -7894.845   -7777.9326   -532.87291    29874.737     12.16274 
    5000    1056.3769   -7895.9174    -7778.077   -404.17682    29861.233    12.216039 
Loop time of 2230.27 on 16 procs for 3000 steps with 864 atoms

Performance: 0.116 ns/day, 206.507 hours/ns, 1.345 timesteps/s
98.0% CPU use with 16 MPI tasks x 1 OpenMP threads

MPI task timing breakdown:
Section |  min time  |  avg time  |  max time  |%varavg| %total
---------------------------------------------------------------
Pair    | 789.21     | 1905.6     | 2143.2     | 944.4 | 85.44
Bond    | 0.00031042 | 0.00089462 | 0.0014625  |   0.0 |  0.00
Neigh   | 0.029541   | 0.032169   | 0.034499   |   0.7 |  0.00
Comm    | 57.976     | 295.77     | 1392.4     |2346.9 | 13.26
Output  | 0.1859     | 0.18944    | 0.24066    |   3.0 |  0.01
Modify  | 12.437     | 28.638     | 57.431     | 299.6 |  1.28
Other   |            | 0.01569    |            |       |  0.00

Nlocal:        54.0000 ave          62 max          47 min
Histogram: 1 3 2 1 1 1 4 0 1 2
Nghost:        406.000 ave         432 max         375 min
Histogram: 2 1 1 0 2 2 3 0 4 1
Neighs:         0.00000 ave           0 max           0 min
Histogram: 16 0 0 0 0 0 0 0 0 0
FullNghs:      1516.38 ave        1773 max        1256 min
Histogram: 3 0 2 1 2 1 2 1 1 3

Total # of neighbors = 24262
Ave neighs/atom = 28.081019
Ave special neighs/atom = 0.0000000
Neighbor list builds = 300
Dangerous builds = 300
Setting up Verlet run ...
  Unit style    : metal
  Current step  : 5000
  Time step     : 0.001
Per MPI rank memory allocation (min/avg/max) = 8.897 | 8.899 | 8.901 Mbytes
Step Temp PotEng TotEng Press Volume c_msd[4] 
    5000    1056.3769   -7895.9174    -7778.077   -404.17682    29861.233    12.216039 
    5010    1043.9578   -7894.5313   -7778.0762   -292.97699    29860.863    12.268466 
    5020    1050.4282   -7895.2562   -7778.0794    -524.6109    29859.799     12.31862 
    5030    1046.8582   -7894.8459   -7778.0673   -614.94611    29857.677    12.372152 
    5040    1061.1871   -7896.4475   -7778.0705   -773.87552    29854.201     12.42876 
    5050    1046.8187   -7894.8518   -7778.0776   -472.93892    29849.187    12.487969 
    5060    1049.9305   -7895.2106   -7778.0893   -488.60923    29843.099    12.542468 
    5070    1060.3537   -7896.3825   -7778.0984   -863.76134    29835.906    12.585095 
    5080    1063.9525   -7896.8228   -7778.1373   -1100.2753    29826.894     12.61429 
    5090    1042.0077    -7894.436   -7778.1984   -911.03668    29815.626    12.640067 
    5100    1040.4573   -7894.3307   -7778.2661   -913.36444    29802.349    12.676934 
    5110    1029.0873    -7893.108   -7778.3117   -766.37222    29787.131    12.729247 
    5120    1017.2142    -7891.778   -7778.3062   -69.236469    29770.368    12.786651 
    5130    1034.4199   -7893.6218   -7778.2307      555.335    29753.393    12.838263 
    5140    1038.8965   -7893.9754    -7778.085    826.24495    29737.486    12.881246 
    5150    1054.9437   -7895.5712   -7777.8906    728.48688    29723.231    12.921147 
    5160    1078.4452   -7897.9748   -7777.6727    451.67171    29710.426    12.965767 
    5170    1077.5241   -7897.6677   -7777.4683    494.67246     29698.61    13.015628 
    5180    1077.0635     -7897.44   -7777.2919    364.18837    29687.772    13.069424 
    5190    1092.9387   -7899.0816   -7777.1626    60.772014    29677.639    13.123946 
    5200     1078.499   -7897.4074   -7777.0992    45.075717    29667.667     13.17473 
    5210    1067.5293   -7896.1878   -7777.1033    23.576095    29657.744    13.220411 
    5220    1057.2208   -7895.0804   -7777.1458    101.13571    29647.861     13.26824 
    5230    1061.1616   -7895.5928   -7777.2187    63.632707    29638.122    13.323253 
    5240    1077.3432   -7897.5134   -7777.3341   -241.33283    29628.421    13.384996 
    5250     1069.881   -7896.8712   -7777.5244   -300.05824    29618.217    13.453774 
    5260    1032.2493   -7892.9071   -7777.7581   -37.250201    29607.407    13.525354 
    5270    1026.0946   -7892.4477   -7777.9853   -47.252167    29596.407    13.590347 
    5280    1016.1692   -7891.5217   -7778.1665   -152.59558    29585.238    13.646377 
    5290    1009.5871   -7890.9103   -7778.2893   -217.76962    29573.704    13.693866 
    5300    1011.1817   -7891.1302   -7778.3314   -347.08073     29561.65    13.734243 
    5310     1018.786   -7891.9405   -7778.2934   -656.91484     29548.76    13.770939 
    5320    1027.5054   -7892.8077   -7778.1879   -736.75612    29534.472    13.805338 
    5330    1029.1019   -7892.8195   -7778.0217   -545.15732    29518.585    13.838102 
    5340    1034.5516   -7893.1986   -7777.7928   -83.969786    29501.514    13.869128 
    5350    1049.6877    -7894.603   -7777.5087    297.30579    29484.153    13.899946 
    5360    1061.9576   -7895.6579    -7777.195    359.64902    29467.248    13.935145 
    5370    1064.5667   -7895.6365   -7776.8825    172.87147    29450.931    13.976728 
    5380    1059.3573    -7894.758   -7776.5851       31.532     29434.89    14.018727 
    5390    1056.6196   -7894.1657   -7776.2982    -210.0682    29418.782    14.051662 
    5400    1043.2854   -7892.3921    -7776.012   -204.59617    29402.163    14.075513 
    5410    1026.6657   -7890.2231    -7775.697    85.895456    29385.048    14.094503 
    5420    1024.8889   -7889.6428   -7775.3149    448.57803    29368.012    14.114131 
    5430     1029.186   -7889.6609   -7774.8537    634.93401    29351.753    14.136425 
    5440    1027.1697   -7888.9026   -7774.3202    776.59185    29336.668    14.165318 
    5450    1011.5441   -7886.5472   -7773.7079    1091.5892     29323.11    14.200076 
    5460    1012.1088   -7885.9032   -7773.0009    1117.0556    29311.646    14.232303 
    5470    1034.3866   -7887.5837   -7772.1963    913.46795    29302.347    14.257443 
    5480    1038.1655   -7887.1503   -7771.3413    853.57397    29294.882     14.27852 
    5490    1055.5843   -7888.2412   -7770.4892    680.71826    29289.087    14.295717 
    5500    1088.0102   -7891.0497   -7769.6806    575.92815    29284.666    14.312369 
    5510    1094.3831   -7891.0721    -7768.992    572.65067    29281.397    14.335951 
    5520    1082.9287    -7889.251   -7768.4487     678.7127    29279.313    14.364936 
    5530    1096.7122    -7890.375   -7768.0351    456.10875    29278.548      14.3929 
    5540    1114.4644   -7892.0779   -7767.7577    408.62907    29278.759    14.422413 
    5550    1105.2713    -7890.935   -7767.6403    632.74437    29279.853    14.460953 
    5560    1100.5793   -7890.4298   -7767.6585    960.92356    29282.288    14.507553 
    5570     1113.282   -7891.9878   -7767.7995    1153.9435    29286.708      14.5581 
    5580     1110.872   -7891.9972   -7768.0778    1149.1476    29293.527    14.615962 
    5590    1105.1818    -7891.787   -7768.5023    1264.5101    29302.845    14.679265 
    5600    1092.1649   -7890.8713   -7769.0387    1388.4836    29314.923    14.741455 
    5610    1097.4561   -7892.0892   -7769.6663    1210.5949    29329.952    14.803057 
    5620    1094.5625    -7892.468   -7770.3679    982.92884    29347.677    14.870752 
    5630    1083.8669   -7892.0281   -7771.1211    582.39524      29367.6    14.943258 
    5640    1071.6207   -7891.4233   -7771.8824    381.43647    29388.995    15.008291 
    5650    1066.4717   -7891.5799   -7772.6134    168.93072    29411.406     15.06113 
    5660       1061.8   -7891.7436   -7773.2982   -65.412326     29434.39    15.105893 
    5670    1044.9907   -7890.4944   -7773.9241    55.169302    29457.531    15.145609 
    5680    1015.2301    -7887.696   -7774.4456    490.21306    29481.062    15.184059 
    5690    1019.6514   -7888.5844   -7774.8407    680.97054    29505.755    15.222876 
    5700    1033.3434   -7890.3974   -7775.1264    718.67689    29532.037    15.266519 
    5710     1059.703   -7893.5525    -7775.341    396.73628    29559.933    15.319946 
    5720    1098.2821   -7898.0493   -7775.5343   -60.544588    29588.794    15.383704 
    5730    1118.0843   -7900.5188   -7775.7948   -61.790123    29617.741    15.454552 
    5740     1089.504   -7897.6872   -7776.1514    367.07002    29646.742     15.53303 
    5750    1090.5469    -7898.231   -7776.5788    575.41661    29676.523     15.61332 
    5760    1095.9934   -7899.3097     -7777.05    705.96238     29707.55    15.691524 
    5770    1070.6127   -7896.9793   -7777.5508    811.63238    29740.082     15.77122 
    5780    1048.0235   -7894.9398   -7778.0312     647.1232    29774.253    15.854326 
    5790    1037.8422   -7894.2203   -7778.4475    543.41417    29809.765    15.941588 
    5800    1044.9762   -7895.3647   -7778.7961    368.91067     29846.33    16.034124 
    5810    1044.6488   -7895.6196   -7779.0874    135.83216    29883.557    16.131805 
    5820    1035.5626   -7894.8451   -7779.3266    137.09183    29920.968    16.230182 
    5830    1032.2037   -7894.6601   -7779.5162    3.4242679    29958.455     16.32524 
    5840    1045.4415   -7896.2789   -7779.6584   -588.63852    29995.634    16.420112 
    5850    1061.2111    -7898.163   -7779.7833   -1120.6645    30031.324    16.522459 
    5860    1043.2925   -7896.2893   -7779.9085   -1145.0153    30064.474     16.63129 
    5870    1027.3798   -7894.6206   -7780.0149   -1072.8497    30094.933    16.741206 
    5880    1034.5043   -7895.4874   -7780.0868   -1127.8797     30122.82    16.845434 
    5890    1017.4019   -7893.6042   -7780.1114   -1060.0908    30148.089    16.940558 
    5900    1008.6952   -7892.5971   -7780.0757   -1280.8157    30170.795    17.026925 
    5910    1007.6363   -7892.3588   -7779.9555   -1518.6141    30190.546    17.106352 
    5920      1005.77   -7891.9405   -7779.7454   -1876.8296    30206.798    17.184273 
    5930     1011.271   -7892.2519   -7779.4431   -2099.6989    30218.864    17.264078 
    5940    1025.9177   -7893.4965   -7779.0539   -1943.4097    30226.338    17.344741 
    5950    1048.0423    -7895.513   -7778.6023   -1725.2369    30229.517    17.425535 
    5960    1050.6483   -7895.3208   -7778.1194   -1396.4154    30228.947    17.505729 
    5970    1055.0475   -7895.3242    -7777.632   -1224.4977    30225.304    17.583185 
    5980    1052.7581   -7894.5768     -7777.14   -1128.0437    30219.021    17.657557 
    5990    1049.2683   -7893.6954   -7776.6479   -849.53751    30210.381    17.728653 
    6000    1035.2022   -7891.6132   -7776.1348    -440.1419    30200.004    17.792098 
    6010    1047.2368   -7892.4104   -7775.5896   -426.46341    30188.687     17.84779 
    6020    1054.0113   -7892.5828   -7775.0062   -361.93483    30176.559     17.90122 
    6030     1052.133   -7891.7744   -7774.4073   -182.14416    30163.769    17.955237 
    6040     1048.811   -7890.7847   -7773.7882   -92.186811    30150.688    18.009768 
    6050    1051.6745   -7890.4623   -7773.1464   -83.938134    30137.507    18.063332 
    6060    1042.9601   -7888.8314   -7772.4876   -50.812647    30124.252    18.114845 
    6070    1031.8174   -7886.9059   -7771.8051     312.2744    30111.073    18.162489 
    6080    1058.9536   -7889.2208   -7771.0929      313.395    30098.597    18.203346 
    6090     1069.763   -7889.7168   -7770.3832    249.33613    30086.903    18.236985 
    6100    1065.1067   -7888.5493    -7769.735     380.5869    30075.885    18.264948 
    6110    1066.8918   -7888.1633   -7769.1499    557.92692    30065.784    18.290787 
    6120    1078.2177   -7888.9129   -7768.6361    510.00643    30056.939    18.318608 
    6130    1113.6928   -7892.4695   -7768.2354    165.39836    30049.212    18.351941 
    6140    1136.3366   -7894.7596   -7767.9995   -94.967298    30041.937    18.396027 
    6150    1144.0893   -7895.6086   -7767.9837    -239.9388     30034.55    18.452839 
    6160    1134.2352   -7894.7017    -7768.176   -455.95171    30026.712    18.517637 
    6170    1109.3272   -7892.2665   -7768.5194   -637.09608     30017.97    18.585731 
    6180    1065.1993   -7887.7304   -7768.9058   -298.29828    30008.034    18.655172 
    6190    1037.6601     -7884.98   -7769.2275    116.81879     29997.55    18.722588 
    6200    1053.4743   -7886.9859   -7769.4693    176.35723    29987.332    18.783168 
    6210    1069.9322   -7889.0167   -7769.6641    201.21762    29977.587    18.833005 
    6220    1073.8405   -7889.6435    -7769.855    87.086263     29968.32    18.872563 
    6230     1066.154   -7888.9845   -7770.0534    36.008875    29959.317    18.904781 
    6240    1063.1464   -7888.8455     -7770.25    18.872558    29950.452    18.932494 
    6250    1068.9837   -7889.6926   -7770.4458   -20.794827    29941.699    18.963847 
    6260    1080.3131   -7891.1726   -7770.6621    28.509468    29932.984    19.001771 
    6270    1086.1888   -7892.0819   -7770.9159    143.31282    29924.411    19.041868 
    6280     1089.371   -7892.7515   -7771.2306    93.377719    29916.174    19.079483 
    6290    1079.4215   -7892.0212   -7771.6101    192.50837    29908.249      19.1175 
    6300    1078.4329   -7892.3524   -7772.0516    225.78166    29900.782    19.160318 
    6310    1061.4042   -7890.9289   -7772.5277    95.082957    29893.826    19.211977 
    6320    1051.0905   -7890.2605   -7773.0097   -165.66276    29887.089    19.273702 
    6330    1056.3796   -7891.3228   -7773.4821   -290.11116     29880.07    19.341162 
    6340    1049.8481   -7891.0549   -7773.9428   -115.35434    29872.548    19.412564 
    6350    1056.9619      -7892.3   -7774.3943   -232.90714    29864.771    19.485406 
    6360    1067.0373   -7893.8798   -7774.8501   -479.41081    29856.555    19.557887 
    6370     1060.346   -7893.6129   -7775.3297   -688.14902    29847.398    19.630083 
    6380    1046.9904   -7892.6117   -7775.8184   -885.35866    29836.864    19.699113 
    6390    1043.4846   -7892.6992    -7776.297    -970.7366    29824.563    19.763566 
    6400    1048.2891   -7893.6937   -7776.7555   -833.61163    29810.372     19.82879 
    6410    1061.0563   -7895.5784    -7777.216   -763.72871    29794.535    19.898714 
    6420    1051.7818   -7895.0165   -7777.6886   -440.10817    29777.305    19.973302 
    6430     1017.843   -7891.6708   -7778.1289   -206.25591    29759.306    20.044139 
    6440    1002.9259   -7890.3695   -7778.4916   -129.15522    29741.036    20.099886 
    6450    985.45891   -7888.6657   -7778.7363   -74.424877    29722.694    20.140462 
    6460     987.3046   -7888.9799   -7778.8446   -145.05427    29704.408    20.173833 
    6470     1010.277    -7891.523   -7778.8251   -470.59206    29685.991    20.207909 
    6480    1024.6245   -7893.0198   -7778.7214   -657.69554    29666.845    20.242049 
    6490    1035.6963   -7894.0903   -7778.5568   -639.37682    29646.606    20.272081 
    6500     1060.482   -7896.6597   -7778.3613    -433.3207    29625.324    20.303561 
    6510     1064.632   -7896.9292   -7778.1679    62.609898    29603.498    20.341674 
    6520    1049.7903    -7895.095   -7777.9893     399.2489    29582.076    20.384127 
    6530    1032.3228   -7892.9541   -7777.7969    483.78444    29561.757    20.430636 
    6540    1038.4463   -7893.4045   -7777.5642    310.17971    29542.691    20.477917 
    6550    1048.0768   -7894.1989   -7777.2844    208.33208    29524.567     20.52187 
    6560    1047.2143   -7893.7808   -7776.9624    204.05815    29507.169    20.565418 
    6570    1033.9881   -7891.9258   -7776.5829    372.18486    29490.497    20.614839 
    6580    1049.4495   -7893.1957    -7776.128     450.0291    29474.828    20.668416 
    6590     1066.408   -7894.5503   -7775.5908    539.49636    29460.351    20.719279 
    6600    1068.4685   -7894.1887   -7774.9994    837.95959    29447.268    20.770689 
    6610    1068.9181   -7893.6071   -7774.3677    1173.6013    29436.135    20.825061 
    6620    1084.5627   -7894.6848   -7773.7002    1174.1393    29427.543    20.876832 
    6630    1101.5457   -7895.9006   -7773.0215    938.07188    29421.477    20.930335 
    6640    1110.7244   -7896.2842   -7772.3812    874.14969    29417.478    20.998176 
    6650    1122.8775   -7897.0815   -7771.8229    1006.9542    29415.381    21.078639 
    6660    1129.1598    -7897.337   -7771.3776    1083.4393    29415.377    21.163782 
    6670    1131.0296   -7897.2464   -7771.0783    924.49441    29417.554    21.245895 
    6680    1124.7901   -7896.4093   -7770.9372    567.12468    29421.546    21.316547 
    6690    1114.4825   -7895.2805   -7770.9583    405.82309    29426.681    21.374002 
    6700    1116.0372   -7895.6539   -7771.1583    365.50792    29432.568    21.426499 
    6710    1093.4308   -7893.5073   -7771.5334     693.2139    29439.191    21.485439 
    6720    1087.6499   -7893.4112   -7772.0823    991.12041     29447.12    21.553875 
    6730    1094.6856   -7894.9165   -7772.8027     1112.681    29456.922    21.624113 
    6740    1104.2749   -7896.9183   -7773.7348    836.11207    29468.756    21.686466 
    6750    1077.7724   -7895.0814   -7774.8543    540.07824    29482.093    21.743613 
    6760    1055.3688   -7893.7794   -7776.0514    220.25392    29496.287    21.800281 
    6770    1055.8853   -7895.0094   -7777.2238   -76.047698    29510.668    21.854981 
    6780    1078.4995   -7898.6615   -7778.3532   -449.27396      29524.6    21.907537 
    6790     1070.449   -7898.8249   -7779.4147   -774.08534    29537.339    21.962982 
    6800    1038.3625   -7896.1634   -7780.3325   -893.24788    29548.285    22.024749 
    6810    1013.5854   -7894.1239   -7781.0569   -908.94619    29557.199    22.090931 
    6820    996.74012   -7892.7583   -7781.5705   -733.72013    29564.104    22.155609 
    6830    1002.1912   -7893.6934   -7781.8975   -565.39727    29569.376    22.212194 
    6840    1017.9882   -7895.6473   -7782.0892   -633.66823    29573.342    22.266656 
    6850    1003.8425   -7894.1552   -7782.1751    -614.7038    29575.949    22.329802 
    6860    995.99708   -7893.2712   -7782.1662   -537.47246    29577.252    22.401175 
    6870    1015.5851   -7895.3463   -7782.0563    -695.2197    29577.369     22.46935 
    6880    1033.4054    -7897.155   -7781.8771   -710.40251    29576.093    22.529322 
    6890    1034.5413   -7897.0731   -7781.6684     -716.281    29573.368    22.588768 
    6900    1036.3494   -7897.0401   -7781.4338   -545.64895    29569.244    22.649264 
    6910    1053.7942   -7898.7347   -7781.1824   -261.46776    29564.104    22.708616 
    6920    1055.5416   -7898.6818   -7780.9346    57.639786    29558.538    22.763751 
    6930    1063.8527   -7899.3824    -7780.708    375.10639    29553.211    22.805659 
    6940     1083.054   -7901.3388   -7780.5225    454.04775    29548.714    22.830318 
    6950    1068.6274   -7899.6008   -7780.3938    678.46957     29545.29    22.847322 
    6960    1070.1352   -7899.6946   -7780.3194    659.32423    29543.284    22.860771 
    6970    1067.8571      -7899.4   -7780.2789    596.59601    29542.691    22.873272 
    6980    1073.3291   -7900.0152   -7780.2837    441.50495    29543.334    22.892237 
    6990    1074.7539   -7900.2251   -7780.3347    387.99904    29544.912    22.919103 
    7000    1075.1569    -7900.383   -7780.4476    524.39962     29547.31    22.951627 
    7010    1062.3429   -7899.1187   -7780.6128    795.07619    29550.807    22.984463 
    7020    1060.9781   -7899.1804   -7780.8267    816.93675    29555.836    23.017596 
    7030    1049.3961   -7898.1379   -7781.0761    996.23391     29562.51    23.058172 
    7040    1048.0265   -7898.2686   -7781.3597    983.57408    29571.099    23.111332 
    7050     1058.592    -7899.759   -7781.6714    637.05374    29581.538    23.176859 
    7060    1066.7259   -7901.0353   -7782.0404    264.63843    29593.124    23.244636 
    7070    1066.1056   -7901.4201   -7782.4944    11.432099    29605.085    23.305174 
    7080    1038.2478    -7898.831   -7783.0129   -158.06534    29616.885    23.360333 
    7090    1007.5578   -7895.9384   -7783.5438   -240.64596    29628.179    23.414645 
    7100    1000.5113   -7895.6426    -7784.034    -312.6508    29638.786    23.469311 
    7110    1006.8217   -7896.7841   -7784.4717   -349.32916    29648.561    23.524226 
    7120     989.6841   -7895.2424   -7784.8416   -97.589969    29657.489    23.579525 
    7130    1003.6235   -7897.0844   -7785.1287   -95.925123     29665.99    23.629431 
    7140    1025.3921   -7899.7206   -7785.3365   -94.863031    29674.159    23.677923 
    7150    1037.3669   -7901.2323   -7785.5125   -231.07177    29681.953    23.727878 
    7160    1040.7427   -7901.7749   -7785.6785   -501.83901    29689.084    23.775917 
    7170    1020.8612   -7899.7103   -7785.8317   -377.14946    29695.121    23.824487 
    7180    1006.8622   -7898.2591   -7785.9421   -336.86128    29700.239    23.874348 
    7190    995.24578   -7896.9845   -7785.9634   -479.96368    29704.516    23.925848 
    7200    983.37765   -7895.5549   -7785.8577   -695.04371    29707.699     23.98243 
    7210    986.66034   -7895.6571   -7785.5937   -966.62007    29709.364     24.04487 
    7220    980.02161   -7894.4636   -7785.1407   -951.07432    29709.046    24.107528 
    7230    989.39405   -7894.8425   -7784.4741   -992.49726    29706.728    24.162603 
    7240     1025.207   -7897.9486   -7783.5853   -881.07101    29702.423    24.208914 
    7250    1059.4908   -7900.7267   -7782.5389   -467.97456    29696.437    24.250753 
    7260    1072.1402   -7901.0581   -7781.4592   -75.273749    29689.593    24.292356 
    7270    1072.1614   -7900.0448   -7780.4436    472.00052     29682.78    24.340767 
    7280    1071.7656   -7899.0866   -7779.5296    971.07918    29677.103    24.402057 
    7290    1085.2742   -7899.7987   -7778.7347    1166.3128    29673.525    24.477387 
    7300    1077.6852   -7898.2895   -7778.0721    1409.0838    29672.484    24.562726 
    7310    1069.5977   -7896.8623   -7777.5471    1508.0798    29674.376    24.651763 
    7320    1059.9348   -7895.3541   -7777.1168    1533.9011    29679.376    24.739604 
    7330    1061.6605   -7895.1818   -7776.7519    1403.1668    29687.458    24.817932 
    7340     1068.056    -7895.586   -7776.4427    1194.9796    29698.305    24.880611 
    7350     1058.109    -7894.221   -7776.1874    1019.0367    29711.443    24.936419 
    7360    1057.2377   -7893.9024   -7775.9659    786.34675    29726.425    24.996574 
    7370    1051.3648    -7893.052   -7775.7706    772.49456    29742.799    25.064978 
    7380    1038.6765   -7891.4481   -7775.5821    599.33496    29760.419    25.139012 
    7390    1044.2763   -7891.8688   -7775.3782    211.99722    29778.884    25.209543 
    7400    1047.5476   -7892.0061   -7775.1506    4.0903544    29797.461     25.27193 
    7410    1055.5577    -7892.671   -7774.9219   -179.79811    29815.657    25.331812 
    7420    1051.0375   -7891.9475   -7774.7026   -28.792264    29833.185      25.3987 
    7430    1055.7641   -7892.2723   -7774.5002   -15.782883    29850.262    25.473257 
    7440    1049.9372   -7891.4309   -7774.3089    -160.7888    29866.917    25.549858 
    7450    1048.4585   -7891.0784   -7774.1213   -114.56882    29882.938    25.620811 
    7460     1049.675    -7891.017   -7773.9242    32.000952    29898.433    25.679175 
    7470    1046.2725   -7890.4292   -7773.7159    9.8023256    29913.667    25.727668 
    7480    1042.4077   -7889.7719   -7773.4898   -94.196218    29928.613    25.775987 
    7490    1033.2879   -7888.4972   -7773.2324   -298.99901    29943.059    25.829529 
    7500    1036.0977   -7888.5059   -7772.9276   -573.67345    29956.601    25.892706 
    7510    1046.3566   -7889.2814   -7772.5587   -848.29895    29968.668    25.970452 
    7520    1062.3146    -7890.644   -7772.1412   -1060.9638    29978.708    26.063098 
    7530    1070.8328   -7891.1521   -7771.6991   -1004.1149    29986.364    26.167546 
    7540    1082.3951   -7891.9993   -7771.2565   -964.00585    29991.744    26.275111 
    7550    1093.9609   -7892.8637   -7770.8308   -1092.4749    29994.949    26.372505 
    7560    1110.9892    -7894.386   -7770.4534   -1032.6414    29995.828    26.449805 
    7570    1110.8716    -7894.079   -7770.1596   -844.24542    29994.515     26.51572 
    7580    1111.7003   -7893.9877   -7769.9758   -475.60944     29991.46    26.583744 
    7590     1100.485   -7892.6699   -7769.9091    57.313999    29987.482    26.653881 
    7600    1102.4127   -7892.9427   -7769.9669    459.10379    29983.672     26.72197 
    7610    1090.1481   -7891.7751   -7770.1674    708.51084     29980.88     26.79701 
    7620    1076.4183   -7890.5892   -7770.5131    730.08561      29979.6    26.890338 
    7630    1076.6176   -7891.1086   -7771.0103    535.57067    29979.846    26.985179 
    7640    1056.9726   -7889.5507   -7771.6438    464.89109    29981.276    27.062859 
    7650    1058.4814   -7890.4829   -7772.4077    141.51905    29983.613    27.119501 
    7660    1041.9316   -7889.4907   -7773.2616    55.916529     29986.29    27.157044 
    7670     1025.606   -7888.5639    -7774.156   -120.98146    29989.032    27.183501 
    7680    1018.6991   -7888.6611   -7775.0237    -278.8408    29991.507    27.214829 
    7690    1037.2578   -7891.5521   -7775.8444   -484.50653    29993.341    27.257106 
    7700    1053.4508   -7894.1558   -7776.6417   -467.79265    29994.167    27.301879 
    7710    1042.2758   -7893.6768   -7777.4093   -291.20047    29994.009    27.337699 
    7720    1033.4137    -7893.403   -7778.1242   -165.14669    29993.203    27.364723 
    7730    1026.9912   -7893.3167   -7778.7543    32.120491    29992.076    27.393528 
    7740    1045.7802   -7895.9663    -7779.308   -141.36521    29990.947    27.422498 
    7750    1069.1274   -7899.0989   -7779.8362    -384.9667     29989.53    27.453526 
    7760    1067.0692    -7899.404   -7780.3708   -574.46386    29987.335    27.499806 
    7770    1056.6412   -7898.7839   -7780.9139   -827.37218    29983.923    27.565657 
    7780    1027.1088   -7895.9977   -7781.4221   -821.94831    29978.828    27.654637 
    7790     1004.503   -7893.9004   -7781.8466   -530.58466    29972.087    27.762751 
    7800    994.86194   -7893.1262   -7782.1478   -232.89535    29964.266     27.87218 
    7810    1017.7816   -7895.8656   -7782.3305   -289.56789    29955.928    27.964065 
    7820    1039.4626   -7898.3979   -7782.4443   -324.03834    29947.036      28.0357 
    7830    1019.0208   -7896.1917   -7782.5184    94.013261    29937.628    28.096047 
    7840    1020.6189   -7896.3832   -7782.5316    223.57594    29928.428    28.152903 
    7850    1042.8632   -7898.8197   -7782.4867    75.884166    29919.702    28.212704 
    7860    1039.0109   -7898.3191   -7782.4158    191.06251    29911.251    28.276839 
    7870    1037.1329   -7898.0084   -7782.3147    278.09416    29903.264     28.33639 
    7880    1078.8015   -7902.5483   -7782.2063   -77.614114    29895.815    28.384998 
    7890    1085.2167   -7903.1977   -7782.1401   -368.37344    29888.267    28.437899 
    7900    1057.9022   -7900.1564   -7782.1458    -572.1853    29879.984    28.498204 
    7910     1053.141   -7899.6633   -7782.1839     -696.806    29870.536    28.550251 
    7920    1046.9911   -7899.0194    -7782.226   -526.14541    29859.701    28.587686 
    7930    1026.2154   -7896.7264   -7782.2505   -191.73479     29847.83    28.620391 
    7940    1017.4637   -7895.7262   -7782.2266   -291.08154    29835.525    28.655456 
    7950    1016.1865   -7895.4877   -7782.1306   -655.22646    29822.602    28.697175 
    7960    1028.7872   -7896.7101   -7781.9473   -868.06669    29808.385    28.745768 
    7970    1056.0672   -7899.4927   -7781.6868    -991.2631    29792.387    28.801991 
    7980    1061.5221   -7899.7912   -7781.3768   -661.02069     29774.44    28.861056 
    7990    1054.1434   -7898.6183    -7781.027   -306.16058    29755.177    28.914865 
    8000    1058.1472   -7898.6602   -7780.6223   -162.80222    29735.309    28.961552 
    8010    1056.6458    -7898.016   -7780.1455    165.08836    29715.215    29.007461 
    8020    1064.3929   -7898.3319   -7779.5973    347.83769    29695.508      29.0527 
    8030    1055.8662   -7896.7571   -7778.9737    648.88317    29676.639     29.09461 
    8040    1043.1681   -7894.6393   -7778.2723    1144.4115    29659.252    29.137103 
    8050    1041.8823   -7893.6887   -7777.4651    1350.5578    29644.292    29.189284 
    8060    1058.4964   -7894.6424   -7776.5655     1094.849    29632.137    29.255521 
    8070    1067.5739   -7894.7092   -7775.6197     957.8905    29622.362    29.326369 
    8080    1057.0437   -7892.6015   -7774.6867    1064.7792     29614.68    29.392948 
    8090    1060.6346   -7892.1076   -7773.7922    1219.9363    29609.261    29.453028 
    8100    1073.6405   -7892.7103   -7772.9441    1253.6031    29606.376    29.508238 
    8110    1072.5931   -7891.8245   -7772.1752    1387.8163    29606.165    29.561136 
    8120    1073.7476   -7891.2865   -7771.5084    1405.5387    29608.847    29.611368 
    8130    1091.7041   -7892.7292   -7770.9479    1091.6116    29614.404    29.662828 
    8140    1093.3434   -7892.4753   -7770.5112    1021.4344    29622.306    29.719323 
    8150    1085.2905   -7891.2703   -7770.2045    1237.8435    29632.391    29.779989 
    8160    1084.5312   -7890.9848   -7770.0037    1420.4524    29645.067    29.844537 
    8170    1101.2192   -7892.7491   -7769.9064    1266.6697    29660.656    29.914446 
    8180     1113.714   -7894.1632   -7769.9267    1127.6119    29678.919     29.98337 
    8190    1115.2706   -7894.5042    -7770.094    1097.7462    29699.571    30.040142 
    8200    1099.4308   -7893.0397   -7770.3966    1203.5944    29722.586    30.088406 
    8210    1094.2606    -7892.884   -7770.8176    1153.2061    29748.123    30.139953 
    8220    1088.6011   -7892.7656   -7771.3305      1000.87    29776.085    30.205959 
    8230     1079.456    -7892.331    -7771.916    834.64065    29806.163    30.289823 
    8240    1057.7077   -7890.5299    -7772.541    767.59854    29838.041    30.391196 
    8250    1032.8175   -7888.3632   -7773.1509    810.90523    29871.577    30.502384 
    8260    1039.0108   -7889.6099   -7773.7066    550.24426    29906.768    30.606983 
    8270    1047.2963   -7891.0349   -7774.2074    109.67361    29943.086    30.696807 
    8280    1045.9415   -7891.3449   -7774.6685   -173.25022    29979.653    30.780156 
    8290     1047.815   -7891.9795   -7775.0942   -494.09008    30015.794    30.864408 
    8300    1049.5686   -7892.5653   -7775.4844   -811.83704    30050.809    30.949859 
    8310    1048.9071   -7892.8497   -7775.8425   -1003.2957    30084.037    31.035955 
    8320    1043.0494   -7892.5188   -7776.1651   -1056.4017    30115.055    31.122325 
    8330     1041.973   -7892.6817    -7776.448   -1025.1424    30143.731    31.214805 
    8340    1042.5973   -7892.9924   -7776.6891   -1057.8739      30170.1    31.316911 
    8350    1051.0462   -7894.1467   -7776.9009   -1256.5745    30194.059    31.429617 
    8360    1044.0291   -7893.5509   -7777.0879   -1604.5829    30215.179    31.552505 
    8370    1027.0896   -7891.8173   -7777.2439   -2001.8354    30232.739    31.668978 
    8380    997.90346   -7888.6497   -7777.3321   -2311.7092    30245.904    31.763159 
    8390    977.54212   -7886.3591   -7777.3128     -2404.97    30254.019    31.833176 
    8400    971.91781   -7885.5802   -7777.1613   -2423.5241    30256.861    31.886696 
    8410     974.4662   -7885.5764   -7776.8732   -2570.9481    30254.378    31.940694 
    8420    996.17043   -7887.6051   -7776.4808   -2868.2197    30246.264     32.00733 
    8430    1008.2105   -7888.4918   -7776.0244    -2963.651    30231.967    32.082866 
    8440    1012.5024   -7888.4972    -7775.551   -2730.5276    30211.312     32.15605 
    8450    1011.2737   -7887.8831    -7775.074   -2126.8554    30184.872    32.217457 
    8460    1027.0412   -7889.1723   -7774.6043    -1669.484    30153.876    32.263961 
    8470    1038.2472    -7889.979    -7774.161   -1120.6536    30119.426    32.296247 
    8480    1045.3997   -7890.3833   -7773.7674   -707.14867    30082.693     32.31969 
    8490    1052.3354    -7890.826   -7773.4364   -490.01045    30044.585    32.341561 
    8500    1041.0509    -7889.288   -7773.1572   -132.50788    30005.675    32.368497 
    8510    1041.8054   -7889.1222   -7772.9072    124.32501    29966.687    32.402713 
    8520     1046.687   -7889.4339   -7772.6744    318.83237    29928.207    32.442353 
    8530    1038.7684   -7888.3369   -7772.4607    405.58966    29890.649    32.481366 
    8540    1051.9806    -7889.608    -7772.258    243.89552    29854.165    32.516502 
    8550    1075.7037   -7892.0824    -7772.086    74.239352     29818.44     32.54854 
    8560     1070.873    -7891.422   -7771.9645    315.47208    29783.206    32.581458 
    8570     1089.698    -7893.472   -7771.9146    356.39228    29748.826    32.618033 
[...]
   22890    1070.8105   -7893.2941   -7773.8436   -1084.4151    30054.052    97.430118 
   22900    1079.4796   -7894.6643   -7774.2467   -1238.8511    30064.638    97.442633 
   22910    1071.3588   -7894.2811   -7774.7694   -1166.9073    30072.513    97.431985 
   22920    1065.9262   -7894.3219   -7775.4163   -1088.5118    30077.812    97.404794 
   22930    1065.9496   -7895.1076   -7776.1993   -1131.2218    30080.696    97.366829 
   22940     1064.851   -7895.9192   -7777.1335   -1181.8036    30081.135    97.335142 
   22950    1064.8671   -7897.0142   -7778.2266   -1273.1828    30079.019    97.319634 
   22960    1052.9254   -7896.8962   -7779.4408   -1027.1957    30074.249    97.322335 
   22970    1046.4958   -7897.4371   -7780.6989   -767.73825    30067.303    97.334619 
   22980    1029.6836   -7896.7678    -7781.905   -537.07126    30058.763    97.354987 
   22990    1012.9893    -7895.936   -7782.9355   -550.95904    30049.096    97.374953 
   23000    1030.4816   -7898.7197   -7783.7679   -905.86556    30038.265    97.377612 
   23010    1036.1561   -7900.0086   -7784.4238   -1341.0949    30025.576    97.365877 
   23020    1027.8246   -7899.5825   -7784.9271   -1725.6554    30010.139    97.370606 
   23030    1008.0361   -7897.7333   -7785.2853   -1552.9237    29991.246    97.403584 
   23040    994.16661   -7896.3845   -7785.4838   -1198.9146    29969.219    97.451808 
   23050    994.30276   -7896.4557   -7785.5397   -999.05789    29944.804    97.503634 
   23060    987.41961   -7895.6204   -7785.4723   -1001.4051    29918.457     97.55057 
   23070    998.93211   -7896.7349   -7785.3026   -1331.8647    29890.185     97.58368 
   23080    1027.1431    -7899.646   -7785.0666   -1599.8516    29859.382    97.597986 
   23090    1030.2673   -7899.7298   -7784.8019   -1385.3124    29825.598    97.601674 
   23100    1017.9267   -7898.0673   -7784.5161   -1070.4531    29789.266    97.609616 
   23110    1022.5736    -7898.264   -7784.1944   -931.50625    29751.052    97.628746 
   23120    1018.5929   -7897.4504   -7783.8249   -576.30054    29711.388    97.655193 
   23130    1023.5132   -7897.5854    -7783.411   -175.45702        29671    97.674979 
   23140    1026.1315   -7897.4081   -7782.9416    308.59901    29630.797    97.671866 
   23150    1041.3926   -7898.6063   -7782.4374    584.89841     29591.74    97.643815 
   23160    1046.2274   -7898.6247   -7781.9164    804.92369    29554.434    97.602595 
   23170     1058.306   -7899.4579   -7781.4022    1050.8659    29519.344    97.560451 
   23180    1078.8579   -7901.2652    -7780.917    1421.9833     29486.98    97.512784 
   23190    1091.9622    -7902.309    -7780.499    1862.9698    29458.043    97.460676 
   23200     1099.436    -7902.827   -7780.1833    2240.7653    29433.369    97.409334 
   23210    1106.4696   -7903.4218   -7779.9935    2202.4771    29413.607    97.360669 
   23220    1100.1607   -7902.6586    -7779.934    2094.8273    29398.702    97.320438 
   23230     1079.018   -7900.3619   -7779.9958    2091.0049    29388.344    97.284098 
   23240    1063.6956   -7898.7829   -7780.1261    2210.5081    29382.464    97.245092 
   23250    1068.5886   -7899.5131   -7780.3105    2225.3961    29381.194    97.204929 
   23260    1042.1458   -7896.7801   -7780.5271    2218.5511    29384.508    97.151052 
   23270    1039.7718   -7896.7372   -7780.7491    2208.2674    29392.338    97.076045 
   23280    1058.8823   -7899.0891   -7780.9692    2000.8048    29404.567    97.004406 
   23290    1073.2862   -7900.9545   -7781.2278    1639.7699    29420.708    96.957795 
   23300    1083.7673   -7902.4519    -7781.556    1327.6651    29440.016    96.937297 
   23310    1076.6577    -7902.083   -7781.9802    1127.3242    29461.813    96.940057 
   23320    1038.8807   -7898.3613   -7782.4726    1171.8983    29485.699    96.962699 
   23330    1027.6942   -7897.6171   -7782.9762    1174.7229    29511.675    96.999558 
   23340     1035.791   -7899.0247   -7783.4807    1023.7171    29539.676    97.055422 
   23350    1021.5675   -7897.9321   -7783.9747    811.33243    29569.406    97.133197 
   23360    1016.4369   -7897.8302   -7784.4451    439.22898    29600.362    97.220449 
   23370    1005.6602   -7897.0476   -7784.8647    111.62755    29631.793    97.322346 
   23380    998.84822   -7896.6399   -7785.2169   -321.09129    29662.981    97.437284 
   23390    992.83393   -7896.2348   -7785.4827   -733.70907     29693.05    97.538928 
   23400    997.50509   -7896.9225   -7785.6493   -1057.3111    29721.138    97.602464 
   23410    1012.1985   -7898.6423     -7785.73   -1075.6753    29746.625    97.617064 
   23420    1002.3346   -7897.5468   -7785.7349   -537.49117     29769.56    97.590779 
   23430    990.27086   -7896.1125   -7785.6463    276.44103    29791.068    97.555629 
   23440    985.65772   -7895.3689   -7785.4173    834.45972    29812.774    97.550751 
   23450    998.20063   -7896.3494   -7784.9986    737.07973    29835.779    97.584287 
   23460    1020.4877   -7898.1964   -7784.3594    259.30193    29859.903    97.640318 
   23470    1020.4614   -7897.3486   -7783.5146    22.625813    29884.251    97.710858 
   23480    1020.1968    -7896.293   -7782.4885   -329.25314    29908.224    97.796002 
   23490    1030.3079   -7896.2444    -7781.312   -588.14214    29931.123    97.885669 
   23500    1038.3589   -7895.8941   -7780.0636   -523.76522    29952.455     97.97141 
   23510    1034.9154   -7894.2974    -7778.851   -87.365437    29972.404     98.04863 
   23520    1033.6714   -7893.0535   -7777.7459    304.34239     29991.83    98.116966 
   23530     1047.917   -7893.6702   -7776.7735    249.53019    30011.486    98.187906 
   23540    1041.6897   -7892.1426   -7775.9405   -34.492285    30031.321     98.27164 
   23550    1036.4395   -7890.8563   -7775.2399   -468.15468     30050.71    98.361285 
   23560     1036.848   -7890.2842   -7774.6223   -771.56764    30068.777    98.437014 
   23570    1065.8168    -7892.966   -7774.0725   -1085.6023    30084.864    98.487285 
   23580    1075.1327   -7893.5401   -7773.6074   -1274.2747     30098.36    98.526584 
   23590     1055.629   -7890.9947   -7773.2377   -1091.5482    30108.977    98.572312 
   23600    1060.3069   -7891.2118    -7772.933   -1132.4874    30116.998     98.62276 
   23610     1050.819   -7889.8826   -7772.6622   -988.30264     30122.48     98.66482 
   23620    1029.6276   -7887.2666   -7772.4101   -630.51389    30125.778    98.684406 
   23630    1031.0626   -7887.1567   -7772.1401   -505.76461    30127.603    98.666306 
   23640    1037.6513   -7887.5889   -7771.8374   -329.28254    30128.334    98.612783 
   23650    1032.0129   -7886.6334   -7771.5108   -55.527757    30128.371    98.542034 
   23660     1032.053   -7886.2801    -7771.153    106.61311    30128.274    98.476501 
   23670    1046.9831    -7887.554   -7770.7615    176.14062    30128.393    98.439233 
   23680    1062.7144   -7888.9102   -7770.3628    219.88779    30128.896    98.427808 
   23690    1062.5766   -7888.5162   -7769.9842    119.83888     30129.85    98.414433 
   23700    1071.2666   -7889.1397   -7769.6383   -164.39209    30131.013    98.384378 
   23710    1077.4919   -7889.5273   -7769.3315   -350.30785    30131.825      98.3332 
   23720    1097.2995    -7891.497   -7769.0916   -327.46688    30131.903    98.249799 
   23730    1108.2986   -7892.5824   -7768.9501   -118.34806    30131.324    98.151252 
   23740    1106.2273   -7892.3457   -7768.9443   -76.973299    30130.467    98.066813 
   23750    1097.6095     -7891.51     -7769.07   -278.57982    30129.422    98.014043 
   23760    1090.5161   -7890.9665   -7769.3178   -698.90409    30127.749    97.987529 
   23770    1063.2477   -7888.2657   -7769.6589   -674.26092    30124.714    97.962399 
   23780    1044.9099   -7886.6073   -7770.0461   -826.97027    30120.238    97.923776 
   23790    1043.7395   -7886.8769   -7770.4462   -1179.1908    30114.031    97.876549 
   23800    1042.0049   -7887.0948   -7770.8576   -1307.4347    30105.443    97.832633 
   23810    1032.1122   -7886.3986   -7771.2649   -1221.5938    30094.226    97.797551 
   23820    1041.6527   -7887.8671   -7771.6691   -1010.4406    30080.596    97.767629 
   23830    1038.4698   -7887.9177   -7772.0748   -593.92827    30065.054    97.737201 
   23840    1027.5872   -7887.1041   -7772.4752   -26.031137    30048.518    97.711013 
   23850    1022.2805   -7886.8854   -7772.8484    523.14872    30032.192    97.695014 
   23860    1027.4814   -7887.8095   -7773.1924    773.30749    30017.182     97.67925 
   23870     1019.703   -7887.2563   -7773.5069    814.19684    30004.024    97.653703 
   23880    1016.2321   -7887.1497   -7773.7875     761.2744     29992.79     97.62506 
   23890     1015.325   -7887.2788   -7774.0178    876.08285    29983.405    97.607089 
   23900    1032.8155   -7889.4188   -7774.2067    881.50161    29976.012    97.610164 
   23910    1038.4519   -7890.2214   -7774.3806     1017.051    29970.634    97.624635 
   23920    1032.3776   -7889.7107   -7774.5474    1320.7359    29967.558    97.627561 
   23930    1052.8311   -7892.1576   -7774.7127    1270.4582    29967.286    97.604156 
   23940    1071.2803   -7894.4108   -7774.9079    958.84071    29969.683    97.559723 
   23950    1083.8608   -7896.0963     -7775.19    753.02616     29974.13    97.513456 
   23960    1083.7396   -7896.4996   -7775.6068    835.35748    29980.201    97.479514 
   23970    1070.8659   -7895.6266   -7776.1699    852.90446    29987.975    97.472744 
   23980    1058.0627   -7894.9029   -7776.8745     864.6177    29997.483     97.49345 
   23990    1037.4553   -7893.4092   -7777.6795    893.03485    30008.727    97.528826 
   24000    1019.6604   -7892.2762   -7778.5315    1057.5031    30021.773    97.569466 
   24010    1016.1661    -7892.728   -7779.3731    1038.2796    30036.905    97.603447 
   24020    1014.4167    -7893.342   -7780.1823    834.99752    30054.064    97.626825 
   24030    1007.8326   -7893.3446   -7780.9193    482.92397    30072.784    97.645042 
   24040    1001.9905   -7893.3256   -7781.5521   -60.281158    30092.289    97.649956 
   24050    1000.5214   -7893.6677   -7782.0581   -449.95124    30111.484     97.64643 
   24060    1021.9519    -7896.463   -7782.4627   -983.92539    30129.436    97.642513 
   24070    1018.0278   -7896.3536   -7782.7911   -1277.6633    30145.098    97.627543 
   24080    1022.2219   -7897.0809   -7783.0505   -1347.9659    30157.847     97.59969 
   24090    1040.7795   -7899.3583   -7783.2578   -1368.4318    30167.525    97.568983 
   24100    1033.2331    -7898.699   -7783.4403   -1118.6137    30174.174    97.544763 
   24110    1013.2054   -7896.6028   -7783.5782   -576.58139    30178.388    97.527957 
   24120    1031.6693   -7898.7473   -7783.6631   -311.01231    30181.239    97.513985 
   24130    1043.1834    -7900.072   -7783.7033   -431.16633    30183.326    97.511175 
   24140    1046.8549   -7900.5095   -7783.7313   -808.13095    30184.408    97.522278 
   24150    1057.6132   -7901.7395   -7783.7611   -1178.5351    30183.723    97.537576 
   24160    1060.1819   -7902.0761   -7783.8113   -1235.7512    30180.561    97.552294 
   24170    1051.8706   -7901.2302   -7783.8925   -1080.0959    30174.808    97.564658 
   24180    1038.9072   -7899.8806   -7783.9889   -813.72194    30166.808    97.569216 
   24190    1030.6074   -7899.0406   -7784.0748    -481.7664    30157.159    97.566671 
   24200    1025.7705   -7898.5581   -7784.1318    -350.6642    30146.544    97.562991 
   24210     1019.624   -7897.8772   -7784.1366   -332.15467    30135.291    97.542348 
   24220    1013.3097   -7897.1065   -7784.0703   -365.39882    30123.446    97.501534 
   24230    1010.4378   -7896.6213   -7783.9055   -459.46963    30110.949    97.471189 
   24240     1027.455   -7898.2308   -7783.6166   -574.61233    30097.607    97.469567 
   24250    1040.9699   -7899.3298   -7783.2081   -453.38036    30083.207    97.494561 
   24260     1023.861   -7896.8916   -7782.6783   -33.065094    30068.052    97.531592 
   24270    1003.9008   -7894.0002   -7782.0135    250.34336    30052.944    97.566108 
   24280    974.92754   -7889.9134   -7781.1588    536.35283     30038.55    97.596966 
   24290    985.40417   -7890.0101   -7780.0868    626.45427     30025.43     97.62217 
   24300    1027.1533   -7893.3957   -7778.8152     483.6596    30013.738    97.648509 
   24310    1062.8876   -7896.0592   -7777.4925    408.17538    30003.223    97.687175 
   24320    1080.8482   -7896.8696   -7776.2993    304.67785    29993.683    97.738897 
   24330    1083.1134   -7896.1498   -7775.3268    272.65699    29984.903    97.793446 
   24340    1073.0903   -7894.2765   -7774.5717    347.61502    29976.809    97.835311 
   24350    1063.9228   -7892.6651   -7773.9829    483.87797    29969.551    97.859519 
   24360    1057.5594   -7891.4803   -7773.5079     541.7411    29963.379    97.877171 
   24370    1041.7261   -7889.3059   -7773.0998    624.56243     29958.44     97.89599 
   24380    1060.9449   -7891.0784   -7772.7284    517.19111    29954.847    97.912036 
   24390     1091.114   -7894.1194    -7772.404    479.05072     29952.41    97.925446 
   24400    1113.6331   -7896.4219   -7772.1944    728.01665    29951.078    97.943815 
   24410    1109.0957   -7895.8445   -7772.1232    1097.9469    29951.342    97.972432 
   24420    1098.4131   -7894.7242   -7772.1946    1351.6496    29953.933    98.013616 
   24430    1090.1898   -7893.9852   -7772.3729    1314.9632    29959.339    98.070063 
   24440    1092.8395   -7894.5533   -7772.6454    1162.6057    29967.504    98.146229 
   24450    1106.6405   -7896.4754    -7773.028    971.43386    29978.115    98.235054 
   24460     1119.025   -7898.3823   -7773.5533    892.40677    29990.775    98.316189 
   24470    1113.1298   -7898.4032   -7774.2319    1028.3085    30005.339     98.37156 
   24480    1116.0328   -7899.5589   -7775.0637    856.33023    30021.954    98.405094 
   24490     1091.138   -7897.7219   -7776.0038    955.37627    30040.397    98.442169 
   24500    1069.5127   -7896.2751   -7776.9694    1139.4626    30060.823    98.494342 
   24510    1072.6378   -7897.5662   -7777.9119    1095.7056    30083.558    98.554546 
   24520    1068.0304   -7897.9499   -7778.8095    1019.5439    30108.551    98.617014 
   24530     1061.063   -7898.0002    -7779.637    1099.5969    30135.676    98.673856 
   24540    1067.8567   -7899.5102   -7780.3892    913.46689    30165.008    98.726026 
   24550    1075.4757   -7901.0577   -7781.0868    378.56788    30196.103    98.777612 
   24560    1056.1647   -7899.5437   -7781.7269   -36.695337    30227.902    98.836688 
   24570    1022.5778   -7896.3429   -7782.2728   -233.21494    30259.517    98.916083 
   24580    1007.0082   -7895.0225   -7782.6892   -373.34181    30290.483    99.025509 
   24590    1010.0974   -7895.6464   -7782.9685   -624.69486    30320.464    99.168472 
   24600    1020.5873   -7896.9842   -7783.1362   -1104.7477    30348.877    99.333026 
   24610    1016.7153   -7896.6345   -7783.2184   -1300.5484    30374.803    99.498089 
   24620    1002.4541   -7895.0485   -7783.2232    -1134.999    30397.807    99.646003 
   24630    990.37479   -7893.6088    -7783.131   -888.25417    30418.197    99.771654 
   24640    1008.2875   -7895.4089   -7782.9329    -850.5481    30436.494    99.884665 
   24650    1026.2333   -7897.1202   -7782.6423   -955.63894    30452.804    99.991228 
   24660    1029.9361   -7897.1941   -7782.3032   -974.60647    30466.949    100.08921 
   24670    1022.6541   -7895.9999   -7781.9213   -965.71632    30478.892    100.16904 
   24680    1026.9235   -7896.0474   -7781.4925   -1168.5846    30488.602    100.22626 
   24690    1031.6846   -7896.1001   -7781.0141   -1422.4151    30495.676    100.27528 
   24700    1030.0632   -7895.4041    -7780.499   -1531.1869    30499.612    100.33087 
   24710    1026.6802   -7894.4752   -7779.9475   -1611.7172    30500.141    100.39279 
   24720    1030.4732   -7894.3115   -7779.3606   -1632.8874    30497.106    100.45179 
   24730    1048.0693   -7895.6602   -7778.7465   -1731.1322    30490.457    100.50095 
   24740    1062.5208    -7896.668   -7778.1422   -1996.1117     30479.95    100.53078 
   24750    1055.8426   -7895.3698    -7777.589   -2391.8092    30465.027    100.52553 
   24760    1041.6685   -7893.2931   -7777.0934   -2700.3421    30444.889    100.48457 
   24770    1017.6582   -7890.1483    -7776.627   -2772.1366    30418.874    100.41675 
   24780    1000.9831   -7887.7991    -7776.138   -2380.1385    30386.924    100.33743 
   24790    1011.0477   -7888.3715   -7775.5876   -1684.1197    30349.915    100.25395 
   24800    1033.8427   -7890.3058   -7774.9791   -1022.3119    30309.348    100.16501 
   24810    1058.7942     -7892.48   -7774.3699   -698.57942    30266.636    100.07694 
   24820    1074.3359    -7893.664   -7773.8202   -403.15635    30222.605     99.98389 
   24830    1090.6488   -7895.0342   -7773.3707   -80.668001    30177.944    99.878014 
   24840    1094.3709   -7895.1295   -7773.0508    149.88045    30133.319    99.772871 
   24850    1081.0593   -7893.4436   -7772.8498    421.65018    30089.284    99.669459 
   24860    1084.0589   -7893.6684     -7772.74    471.06912    30046.397    99.557159 
   24870    1097.6819   -7895.1725   -7772.7244    361.97914    30004.784    99.441309 
   24880    1099.1503   -7895.4226   -7772.8107    238.21871    29964.246    99.348466 
   24890    1098.2636   -7895.5147   -7773.0017   -251.16667    29924.436    99.293239 
   24900    1096.2764   -7895.5862   -7773.2949   -655.25756     29884.41    99.258101 
   24910    1083.0746    -7894.478   -7773.6594   -550.91573    29843.413    99.240823 
   24920    1070.0374   -7893.4281   -7774.0639   -327.21067    29801.597    99.246485 
   24930    1046.9974   -7891.2487   -7774.4546   -187.18096    29759.429    99.259596 
   24940     1048.352   -7891.7543    -7774.809   -167.07297    29717.221    99.261995 
   24950    1053.0198   -7892.5924   -7775.1264    124.20388    29675.117    99.247619 
   24960      1043.88   -7891.8516   -7775.4052    633.20021    29633.719    99.213227 
   24970    1042.1549   -7891.8905   -7775.6366    1052.8072    29594.037    99.159993 
   24980    1048.6762   -7892.8071   -7775.8257     1213.769    29556.903    99.108022 
   24990    1065.6687   -7894.8808   -7776.0039    1355.0074     29522.68    99.080424 
   25000      1070.39   -7895.5983   -7776.1947    1629.2876    29491.648    99.077796 
Loop time of 14025.6 on 16 procs for 20000 steps with 864 atoms

Performance: 0.123 ns/day, 194.800 hours/ns, 1.426 timesteps/s
98.0% CPU use with 16 MPI tasks x 1 OpenMP threads

MPI task timing breakdown:
Section |  min time  |  avg time  |  max time  |%varavg| %total
---------------------------------------------------------------
Pair    | 5110.3     | 11827      | 13520      |2365.4 | 84.33
Bond    | 0.0023308  | 0.0056924  | 0.011389   |   2.8 |  0.00
Neigh   | 0.20531    | 0.21635    | 0.22744    |   1.3 |  0.00
Comm    | 315.58     | 2050       | 8814.8     |5681.6 | 14.62
Output  | 1.3932     | 1.4293     | 1.946      |  11.2 |  0.01
Modify  | 98.219     | 146.6      | 191.03     | 274.1 |  1.05
Other   |            | 0.1149     |            |       |  0.00

Nlocal:        54.0000 ave          59 max          48 min
Histogram: 1 1 2 2 0 3 2 1 2 2
Nghost:        399.375 ave         413 max         376 min
Histogram: 1 0 1 1 2 0 3 5 0 3
Neighs:         0.00000 ave           0 max           0 min
Histogram: 16 0 0 0 0 0 0 0 0 0
FullNghs:      1539.88 ave        1790 max        1293 min
Histogram: 1 2 1 2 2 1 4 1 0 2

Total # of neighbors = 24638
Ave neighs/atom = 28.516204
Ave special neighs/atom = 0.0000000
Neighbor list builds = 2000
Dangerous builds = 2000
Total wall time: 4:55:42
