LAMMPS (29 Sep 2021 - Update 3)
OMP_NUM_THREADS environment is not set. Defaulting to 1 thread. (src/comm.cpp:98)
  using 1 OpenMP thread(s) per MPI task
Reading data file ...
  orthogonal box = (0.0000000 0.0000000 0.0000000) to (18.491378 18.491378 36.982757)
  2 by 1 by 4 MPI processor grid
  reading atoms ...
  432 atoms
Finding 1-2 1-3 1-4 neighbors ...
  special bond factors lj:    0        0        0       
  special bond factors coul:  0        0        0       
     0 = max # of 1-2 neighbors
     0 = max # of 1-3 neighbors
     0 = max # of 1-4 neighbors
     1 = max # of special neighbors
  special bonds CPU = 0.002 seconds
  read_data CPU = 0.018 seconds
Neighbor list info ...
  update every 1 steps, delay 10 steps, check yes
  max neighbors/atom: 2000, page size: 100000
  master list distance cutoff = 6.22
  ghost atom cutoff = 6.22
  binsize = 3.11, bins = 6 6 12
  1 neighbor lists, perpetual/occasional/extra = 1 0 0
  (1) pair quip, perpetual
      attributes: full, newton on
      pair build: full/bin
      stencil: full/bin/3d
      bin: standard
Setting up Verlet run ...
  Unit style    : metal
  Current step  : 0
  Time step     : 0.001
Per MPI rank memory allocation (min/avg/max) = 8.920 | 8.921 | 8.921 Mbytes
Step Temp PotEng TotEng Press Volume c_msd[4] 
       0          300   -4305.7808   -4289.0675   -34020.192    12645.554            0 
      10    301.33321   -4306.8097   -4290.0221    -33486.56    12600.274 0.0027933084 
      20    299.60329   -4309.4133    -4292.722   -31648.337    12467.605  0.014101324 
      30    294.54697   -4313.0385   -4296.6289   -28391.729    12259.364  0.041439962 
      40    287.12139   -4316.8756   -4300.8797   -24125.285     11999.61  0.092464797 
      50    284.01186   -4320.4819   -4304.6593   -19783.188    11722.252   0.16814715 
      60    303.75287   -4324.4704    -4307.548   -15955.985    11459.536   0.25951773 
      70    339.78087   -4328.5133   -4309.5838   -12969.287    11229.977     0.354216 
      80     367.1318   -4331.4692   -4311.0159   -10501.702    11036.147    0.4444005 
      90    359.12734   -4332.0844    -4312.077   -8166.0036    10871.898   0.52904646 
     100    321.85583   -4330.8173   -4312.8863   -6058.8163     10729.89   0.60929713 
     110    306.89779   -4330.6045   -4313.5069    -4565.011    10604.689   0.68393615 
     120    316.34012   -4331.6436   -4314.0199   -3430.0095    10492.612   0.75335525 
     130    343.34973   -4333.6042   -4314.4758   -2645.2372    10391.425   0.81912146 
     140    385.19131   -4336.4233   -4314.9639   -2481.1697    10299.591   0.88219108 
     150     405.3284   -4338.1015   -4315.5202   -2202.1157     10215.58   0.94327964 
     160    402.33059   -4338.5072   -4316.0929   -1884.9223    10138.445    1.0019219 
     170     384.5493   -4338.0182   -4316.5945   -1379.5722    10067.695    1.0579556 
     180    383.32242   -4338.3689   -4317.0136   -1336.8999    10003.138    1.1104102 
     190    393.76883   -4339.3611   -4317.4238   -1673.4242    9944.0193    1.1611185 
     200    386.00434   -4339.3639   -4317.8592   -1838.3447    9889.1753    1.2134604 
     210    376.49634    -4339.287   -4318.3119   -1788.8682    9837.8222    1.2678921 
     220     372.7996   -4339.5465   -4318.7774   -1723.9777    9789.5772    1.3238884 
     230    374.30921   -4340.1127   -4319.2595   -1743.3326    9744.1437    1.3806788 
     240    382.67076   -4341.0903   -4319.7713   -1943.7678    9701.1179    1.4374017 
     250    381.15034    -4341.552   -4320.3177   -1991.2453     9659.948    1.4935972 
     260    366.65939   -4341.2877   -4320.8607   -1803.3616    9620.3663    1.5477101 
     270    375.00841   -4342.2893   -4321.3972   -2198.3181    9582.3247    1.5976107 
     280    391.13017    -4343.765   -4321.9747   -2861.1551     9545.101    1.6459287 
     290    389.94094   -4344.3199   -4322.5958   -3113.4346     9507.732    1.6969482 
     300    381.19133   -4344.4625   -4323.2259   -3146.4621    9469.8575    1.7509824 
     310    372.65263   -4344.6053   -4323.8444    -3115.694    9431.4876    1.8053976 
     320    376.12964   -4345.4096    -4324.455   -3097.6973    9392.7271    1.8565172 
     330    385.67016   -4346.5708   -4325.0847    -3320.682    9353.6432     1.902414 
     340    387.34618   -4347.3309   -4325.7514   -3601.5785    9314.0213    1.9438815 
     350    386.75337   -4347.9907   -4326.4442   -3754.4717    9273.6055    1.9832908 
     360    395.79948   -4349.2179   -4327.1674   -4213.6921    9232.2684    2.0224283 
     370    421.86853   -4351.4666   -4327.9638   -5015.1936    9189.5661    2.0619326 
     380    441.32484   -4353.4768   -4328.8901   -5927.7085    9144.6793    2.1043735 
     390    428.62177   -4353.7716   -4329.8926   -6193.7264    9096.8912    2.1521071 
     400    413.32697   -4353.8967   -4330.8698   -5975.4495    9046.3295     2.203942 
     410    405.65089   -4354.3936   -4331.7944   -5669.3611    8993.7462    2.2583558 
     420    407.97704   -4355.4166   -4332.6877   -5625.8159     8939.962    2.3136264 
     430    419.11176   -4356.9484   -4333.5993     -5900.02    8885.3727    2.3688463 
     440    426.86988   -4358.3352   -4334.5538   -5671.8671     8830.029    2.4261365 
     450    425.41539   -4359.2248   -4335.5244   -4804.0419    8774.5217    2.4882816 
     460    427.92271   -4360.3387   -4336.4986   -4172.1074    8719.9996    2.5549499 
     470    441.20264   -4362.0862   -4337.5063   -3750.7379    8667.2477    2.6242846 
     480    451.59467   -4363.7202   -4338.5613   -3269.5516    8616.6754    2.6956626 
     490    455.25152   -4365.0234   -4339.6608   -2739.8684    8568.6574    2.7683785 
     500      460.042   -4366.4298   -4340.8003   -2315.4054     8523.523    2.8412585 
     510    469.95293   -4368.1511   -4341.9695   -1692.4204    8481.4635    2.9141958 
     520    477.20162   -4369.7298   -4343.1443   -448.33635    8442.8798    2.9867285 
     530    464.36437    -4370.146   -4344.2757    899.20999     8408.655    3.0557099 
     540    454.54779   -4370.6567   -4345.3334    1833.4954     8379.686    3.1146849 
     550    464.83923   -4372.2871   -4346.3904    1549.8998    8356.1901    3.1574466 
     560    473.97627   -4373.9141   -4347.5083    883.73175     8337.213    3.1823415 
     570    464.92618   -4374.5515   -4348.6499    490.90981    8321.4845    3.1954057 
     580     446.8075   -4374.6217   -4349.7295    271.10416    8308.1378    3.2045612 
     590    443.77573   -4375.4617   -4350.7384   -215.18745    8296.5775    3.2128889 
     600    441.92971   -4376.3532   -4351.7328    40.407098    8286.1437    3.2212205 
     610    411.99132   -4375.6317   -4352.6792    1662.8663    8277.0455    3.2273688 
     620    394.51196   -4375.5179   -4353.5392    3012.8704    8270.7204    3.2255263 
     630    399.75508   -4376.6557   -4354.3849    2691.1255    8268.1534    3.2139672 
     640    408.25663   -4378.0108   -4355.2663     2096.368    8268.7502    3.1965489 
     650    400.84913   -4378.4912   -4356.1594    2156.9334    8271.6391    3.1774668 
     660    380.84088   -4378.2232   -4357.0061    2452.3614      8276.64    3.1578711 
     670    361.11961   -4377.8973    -4357.779    2214.0207    8283.8069    3.1374073 
     680    348.93173   -4377.9061   -4358.4667    1045.2205    8292.6477    3.1174075 
     690    352.12911   -4378.7102   -4359.0926   -1100.5365    8301.7422     3.101097 
     700    358.61496   -4379.6785   -4359.6997   -3470.6911    8308.7847     3.092015 
     710    356.08975   -4380.1573   -4360.3192   -4876.0153    8311.4578    3.0921613 
     720     343.7058   -4380.0967   -4360.9485   -5176.1873    8308.6087    3.1012252 
     730     338.0057   -4380.4062   -4361.5755   -4818.3748    8300.3497    3.1179917 
     740    339.87505   -4381.1321   -4362.1972   -4005.9786     8287.512     3.140592 
     750    332.97836   -4381.3435   -4362.7929    -2233.782    8271.4465    3.1665412 
     760    321.78447   -4381.2509   -4363.3239    119.69496    8254.3405    3.1932292 
     770    314.42184   -4381.3023   -4363.7855    1888.6826    8238.7349    3.2169075 
     780    323.00851   -4382.2143   -4364.2192    1988.4403    8226.3059    3.2341375 
     790    342.64655   -4383.7779   -4364.6886    580.87488    8216.8864    3.2464102 
     800    341.41411   -4384.2231   -4365.2025   -834.71496    8208.8322    3.2584508 
     810    328.64463    -4384.028   -4365.7189   -1258.2262    8200.5997    3.2732658 
     820    326.58736   -4384.4158   -4366.2213    -1391.087    8191.6562    3.2915325 
     830    327.51423   -4384.9604   -4366.7142   -1185.5264    8181.9304    3.3124878 
     840    324.36894   -4385.2637   -4367.1927   -694.97486    8171.6869    3.3339779 
     850     317.0028    -4385.313   -4367.6525   -448.37168    8161.4336    3.3553533 
     860    312.92592   -4385.5265   -4368.0931   -757.19977    8151.4089    3.3772779 
     870    315.95531   -4386.1255   -4368.5233   -1594.7151    8141.2657     3.399565 
     880    320.35883   -4386.8014   -4368.9538   -2404.0423    8130.1625    3.4220721 
     890    319.82913   -4387.2032   -4369.3851   -2416.8675    8117.3817    3.4453415 
     900    312.53033   -4387.2154    -4369.804   -2058.0932    8102.9844    3.4694951 
     910    313.80275   -4387.6923     -4370.21   -1771.8153    8087.4461    3.4933798 
     920    328.59854    -4388.938   -4370.6314   -1781.4654    8071.1303    3.5158817 
     930    344.63411   -4390.3003   -4371.1004   -1555.0415     8054.146    3.5376444 
     940    349.01083    -4391.062   -4371.6182   -796.85339    8036.8097    3.5602601 
     950    347.12285   -4391.4954   -4372.1568    -19.72724    8019.8918    3.5832787 
     960    348.40358   -4392.1128   -4372.7029    540.64182    8004.1467    3.6041986 
     970    342.88567   -4392.3396    -4373.237     1601.317    7990.1532    3.6219387 
     980    330.44183   -4392.1389   -4373.7297    2626.1148    7978.8205    3.6354529 
     990    328.29942   -4392.4788   -4374.1889    2839.4792    7970.9264    3.6425314 
    1000    326.99401    -4392.858   -4374.6408    2831.0313    7966.4921    3.6420382 
    1010    314.41851    -4392.596   -4375.0794    3133.6456    7965.3046    3.6323748 
    1020    304.39013   -4392.4611   -4375.5032    3170.6784    7967.3918     3.611777 
    1030    298.56083   -4392.5577   -4375.9245    2704.0347    7972.5551     3.581348 
    1040    291.05386   -4392.5453   -4376.3304    1805.5878     7980.122    3.5441125 
    1050    289.84656   -4392.8451   -4376.6974    279.07509    7988.9892    3.5046052 
    1060    284.40312    -4392.848   -4377.0036    -1265.148    7997.5615    3.4695411 
    1070    278.03056   -4392.7322   -4377.2428   -2566.7515     8004.286    3.4437761 
    1080     283.9522   -4393.2644   -4377.4451    -3833.292    8007.9013    3.4293903 
    1090    287.73358   -4393.6739   -4377.6439   -4103.2232    8007.4016    3.4287368 
    1100    282.29357   -4393.5686   -4377.8417   -3434.2558    8002.7663    3.4440237 
    1110    293.23081   -4394.3788   -4378.0426   -2677.6638    7994.8779    3.4751615 
    1120    299.81924   -4394.9514   -4378.2481   -1444.5201    7984.7792    3.5198346 
    1130    291.11458   -4394.6492   -4378.4309    327.99495    7973.8849     3.571917 
    1140    281.99177   -4394.2784   -4378.5683    2209.8706    7964.0546    3.6231902 
    1150    280.05598   -4394.2719   -4378.6696     3291.965    7957.0496    3.6666589 
    1160    279.38804    -4394.321    -4378.756    4095.2635    7953.8511    3.6990612 
    1170    274.35588   -4394.1251   -4378.8404    4581.4123    7955.0282    3.7192667 
    1180    272.00368   -4394.0815   -4378.9278    4311.4888    7960.7778    3.7251649 
    1190    280.38103    -4394.629   -4379.0087    3216.4812    7970.5532    3.7146884 
    1200    285.87026    -4394.991   -4379.0648    1887.9279    7983.0687    3.6890477 
    1210    272.88355   -4394.2836    -4379.081    594.34295    7996.8103    3.6531323 
    1220    261.06456   -4393.5872    -4379.043   -852.47928    8010.3614    3.6134883 
    1230    270.11294   -4393.9896   -4378.9413   -2947.6287    8022.1686    3.5766389 
    1240    278.68004   -4394.3231   -4378.7975   -4510.1041    8030.2511     3.548703 
    1250    266.11416   -4393.4806   -4378.6551   -4582.2986     8033.273    3.5336223 
    1260    252.61411   -4392.5952   -4378.5218   -3940.5706    8031.3824    3.5323906 
    1270    264.06402   -4393.0867   -4378.3754   -3631.1811    8025.4422    3.5444645 
    1280    288.42278    -4394.265   -4378.1966   -3384.0298    8016.0396    3.5686563 
    1290    298.72078   -4394.6261    -4377.984   -2185.6088    8003.7466    3.6014335 
    1300    293.61075   -4394.0975   -4377.7401   -254.23649    7989.9706    3.6362094 
    1310    283.73497   -4393.2719   -4377.4647    1654.8192    7976.7519    3.6655565 
    1320     284.4398   -4393.0172   -4377.1707    2791.8254    7965.9658    3.6826953 
    1330    298.69642   -4393.5183   -4376.8775    3043.1425    7958.6186     3.684842 
    1340    308.26249   -4393.7756   -4376.6019    3177.7142    7954.8253    3.6740674 
    1350    306.12997   -4393.4102   -4376.3553    3622.0133    7954.5488    3.6534743 
    1360    302.74886   -4393.0038   -4376.1373    3755.2824     7957.997    3.6251983 
    1370     305.9877    -4392.982   -4375.9351    3328.2251    7965.0915    3.5917465 
    1380    304.68064   -4392.7114   -4375.7373    2674.3873    7975.2291     3.556557 
    1390    293.97024   -4391.9181   -4375.5407    1556.5984    7987.5579    3.5215531 
    1400    294.35817   -4391.7312   -4375.3322   -495.62851     8000.755    3.4882134 
    1410    302.85742   -4391.9765    -4375.104   -2763.5671     8012.712    3.4611485 
    1420    307.83544   -4392.0326   -4374.8827   -4418.7308    8021.1841    3.4455532 
    1430    308.30752   -4391.8732    -4374.697   -4959.2709     8024.682    3.4450433 
    1440    308.11063   -4391.7084   -4374.5432   -4600.7772    8022.8727    3.4608637 
    1450    306.83153   -4391.4931   -4374.3992   -3242.2548    8016.4387    3.4919555 
    1460    307.95217   -4391.4015   -4374.2452   -1473.6116    8007.0075     3.534821 
    1470    319.79951   -4391.8968   -4374.0804    239.57537    7996.5605    3.5843291 
    1480    328.12091   -4392.2056   -4373.9257    1781.7397    7986.9176    3.6348111 
    1490     322.5415   -4391.7737   -4373.8045    3409.3774    7979.6719    3.6783174 
    1500    314.62173   -4391.2539   -4373.7259    4334.6312    7976.2946    3.7070798 
    1510    321.79815   -4391.6157    -4373.688    4049.1731    7977.4748    3.7177662 
    1520    332.83297   -4392.2295    -4373.687    3242.8507     7982.748    3.7117588 
    1530    325.87609   -4391.8756   -4373.7207    2626.3571    7991.1582    3.6937698 
    1540    319.67058   -4391.5876   -4373.7784    1489.1886    8001.8367    3.6695475 
    1550      322.478    -4391.811   -4373.8454   -235.00407    8013.4923    3.6446299 
    1560    317.84846   -4391.6304   -4373.9227   -1694.8922    8024.3458     3.622568 
    1570    305.80951   -4391.0503   -4374.0133   -2610.2135    8032.9294    3.6029709 
    1580     301.9131   -4390.9314   -4374.1115   -3372.1084    8038.3722    3.5838523 
    1590    311.80068   -4391.5925   -4374.2218    -4234.824    8039.9728    3.5670934 
    1600     314.0883   -4391.8571   -4374.3589   -4170.5951    8037.1069    3.5599599 
    1610    299.95413   -4391.2285   -4374.5177   -2815.6597    8030.1109     3.567183 
    1620    291.65775   -4390.9196   -4374.6711   -1152.8057    8020.5384    3.5856784 
    1630    304.10877   -4391.7545   -4374.8123   -315.69053    8010.1595    3.6082134 
    1640    316.48296   -4392.5881   -4374.9564    335.16289    7999.9598    3.6290025 
    1650     315.7261   -4392.6998   -4375.1104    1390.2095    7990.6516    3.6433583 
    1660    310.69228   -4392.5797   -4375.2707    2542.2257    7983.2528    3.6477259 
    1670    308.55501   -4392.6305   -4375.4406    3426.8368    7978.8421    3.6413095 
    1680    307.30363   -4392.7492    -4375.629    3555.5441    7978.1437    3.6263353 
    1690    301.80083   -4392.6423   -4375.8287    3133.7035    7981.1458    3.6060778 
    1700    295.78861   -4392.5027    -4376.024      1996.89    7987.2238    3.5821467 
    1710    295.91482   -4392.6918    -4376.206      -2.0878    7995.0403    3.5556732 
    1720    302.90419   -4393.2508   -4376.3757   -2493.4536    8002.4442    3.5302919 
    1730    303.61506   -4393.4587   -4376.5439   -4081.9185    8006.9963    3.5120752 
    1740    296.39908   -4393.2311   -4376.7184   -4129.7833    8007.2111    3.5055145 
    1750    287.12099   -4392.8869   -4376.8911   -3081.9991     8003.189     3.511572 
    1760    280.52194    -4392.673   -4377.0448   -1690.0235    7996.1516    3.5283511 
    1770    284.50681   -4393.0207   -4377.1705   -206.62193    7987.6733    3.5508792 
    1780    297.79963   -4393.8694   -4377.2787    959.16808    7979.3283    3.5730663 
    1790    295.96369   -4393.8727   -4377.3842    1891.4945    7972.3271     3.591729 
    1800    282.89489   -4393.2421   -4377.4817    2920.5304    7967.6179     3.605656 
    1810    280.26153   -4393.1753   -4377.5616    3421.5543    7966.1162    3.6141413 
    1820     286.1421   -4393.5676   -4377.6263    2937.1822    7968.1665    3.6168854 
    1830    290.25291   -4393.8483    -4377.678    1676.2346    7973.1234    3.6150415 
    1840    287.22959   -4393.7163   -4377.7144     666.9762    7979.6668     3.611718 
    1850    289.33072   -4393.8528   -4377.7339   -478.96338    7986.6359    3.6087268 
    1860    303.32427   -4394.6402   -4377.7416   -1866.7309    7992.8088    3.6074288 
    1870    307.66089   -4394.8938   -4377.7536    -2504.965    7996.8501    3.6097152 
    1880     291.3326   -4394.0072   -4377.7768    -1677.317    7998.2609    3.6167636 
    1890    274.04307   -4393.0608   -4377.7936   -750.86083    7997.8708    3.6286956 
    1900    279.34154   -4393.3544   -4377.7919    -521.2139    7996.6404    3.6442179 
    1910    288.78659   -4393.8577   -4377.7691   -462.93353    7994.8962    3.6615789 
    1920    283.57864   -4393.5202   -4377.7217    272.59741    7992.8076    3.6776041 
    1930    278.95809   -4393.1874   -4377.6463    1179.9197     7991.104    3.6876032 
    1940    285.05719   -4393.4301   -4377.5493     1708.859    7990.6803    3.6887183 
    1950    291.61626   -4393.6887   -4377.4424    1496.6052    7991.9888    3.6805116 
    1960    294.42374   -4393.7386   -4377.3359    1014.6423    7994.8003    3.6648091 
    1970    286.55239   -4393.1945   -4377.2303      305.059    7998.5573    3.6459552 
    1980    282.12049   -4392.8286   -4377.1114   -877.44413    8002.4466    3.6276783 
    1990     289.1888   -4393.0753   -4376.9643   -2254.7339     8005.248    3.6123329 
    2000    289.99523   -4392.9508   -4376.7948   -3040.1449    8005.6314    3.6017494 
    2010    292.73965   -4392.9272   -4376.6184   -3081.7744    8002.8723     3.596209 
    2020    304.09239   -4393.3831   -4376.4418   -2742.8116    7996.9961    3.5958529 
    2030    308.67921   -4393.4674   -4376.2705   -1301.9101    7988.5657     3.600436 
    2040    306.08834   -4393.1589   -4376.1063    943.54583    7979.1655    3.6075085 
    2050    301.28623   -4392.7333   -4375.9483    3092.3656    7971.0809    3.6146377 
    2060    296.13944   -4392.2985   -4375.8002    4574.5086    7966.4513    3.6203922 
    2070    304.02425   -4392.6021   -4375.6646    4750.2828    7966.6442    3.6218553 
    2080    310.92469   -4392.8556   -4375.5336    3720.7023    7971.6862    3.6160938 
    2090    301.39903   -4392.1949   -4375.4036    2486.8534    7980.4506    3.6026407 
    2100    295.79452   -4391.7512   -4375.2721    724.42673    7991.4808    3.5827091 
    2110    298.71371   -4391.7763   -4375.1346   -1399.5303    8002.8818    3.5602561 
    2120    312.70265   -4392.4157   -4374.9947   -3458.8866    8012.4282    3.5409416 
    2130    326.67101   -4393.0672    -4374.868   -4514.5886    8018.0955    3.5298998 
    2140    319.77038   -4392.5935   -4374.7787    -3752.834    8018.9745    3.5287854 
    2150    300.37362   -4391.4517   -4374.7175   -2071.4192    8015.9438    3.5351273 
    2160    290.10355   -4390.8119   -4374.6499   -892.27527    8010.7828     3.546028 
    2170    299.71148   -4391.2619   -4374.5647   -480.92139    8004.7784    3.5606082 
    2180    312.44558   -4391.8866   -4374.4799   -112.74373     7998.478    3.5795722 
    2190    310.44582   -4391.7109   -4374.4156    719.03526    7992.3277    3.6034312 
    2200    310.84339   -4391.6868   -4374.3694     1479.014    7987.1384    3.6302525 
    2210    322.98547   -4392.3292   -4374.3353    1703.5968    7983.6277    3.6560593 
    2220    328.43044   -4392.6182    -4374.321    1740.0807    7982.0027    3.6774972 
    2230    321.80562   -4392.2606   -4374.3324    2056.2912    7982.2928     3.693105 
    2240    314.95137   -4391.9136   -4374.3674     2102.409    7984.7071    3.7016564 
    2250     313.5959   -4391.8966   -4374.4259    1538.9411    7989.1969    3.7013253 
    2260    316.54663   -4392.1436   -4374.5084    422.60324     7995.111    3.6914879 
    2270    312.86901   -4392.0413    -4374.611   -618.76633    8001.3029    3.6757054 
    2280    309.52527   -4391.9721   -4374.7281   -1401.5888    8006.6769    3.6580098 
    2290    313.29258   -4392.3115   -4374.8576   -1992.3461    8010.4271    3.6410364 
    2300    309.34121   -4392.2284   -4374.9947   -1964.5164    8012.0144    3.6271435 
    2310    305.19737   -4392.1357   -4375.1328    -1205.832    8011.5454    3.6171315 
    2320    301.55696   -4392.0693   -4375.2693   -387.26011    8009.8231    3.6107929 
    2330    296.46821   -4391.9216    -4375.405    183.30689    8007.7308    3.6071163 
    2340    292.75453   -4391.8514   -4375.5417    332.95151    8005.8675    3.6048685 
    2350    293.81868   -4392.0495   -4375.6805   -210.61159    8004.3497     3.603535 
    2360    301.16542   -4392.6003    -4375.822   -1152.9455    8002.6172    3.6038868 
    2370    304.19378    -4392.913    -4375.966   -1540.6766    7999.7707    3.6085162 
    2380    299.04059    -4392.766   -4376.1061   -1054.0774    7995.4713    3.6184349 
    2390    294.94848   -4392.6611   -4376.2292   -477.50484    7990.1988    3.6310364 
    2400    302.09797   -4393.1653   -4376.3351    -198.7739    7984.5503     3.642649 
    2410    307.31319   -4393.5587   -4376.4379     551.9695    7978.9088    3.6505674 
    2420    299.98936   -4393.2633   -4376.5506    2224.8667    7974.1189    3.6520913 
    2430    293.00476   -4393.0045   -4376.6809    3143.1026    7971.7265    3.6444121 
    2440    294.37911   -4393.2244   -4376.8242    2746.9559    7972.5765    3.6278936 
    2450    303.45631   -4393.8745   -4376.9686    1924.5508    7976.2475    3.6062719 
    2460    304.98253   -4394.0938   -4377.1029    1179.1327    7981.8382    3.5837196 
    2470     292.7917   -4393.5273   -4377.2156     718.0175    7988.5509    3.5628589 
    2480    279.82746   -4392.8885    -4377.299     93.89774      7995.83    3.5446604 
    2490    282.18018   -4393.0784   -4377.3579   -1515.9267    8002.8976    3.5295394 
    2500      286.269   -4393.3531   -4377.4047    -3214.508    8008.1644    3.5203541 
    2510     277.7646   -4392.9266    -4377.452   -4283.7714    8009.9428    3.5212872 
    2520    276.72705   -4392.9192   -4377.5025   -4593.6591    8007.2068    3.5343153 
    2530    288.64634   -4393.6262   -4377.5454   -3832.7081    7999.7826    3.5596493 
    2540    291.46926   -4393.7962   -4377.5581   -1556.8055    7988.6793    3.5956826 
    2550    287.19113   -4393.5273   -4377.5276     1486.816    7976.3611    3.6362563 
    2560    286.10121    -4393.403    -4377.464    4038.7068    7965.9378    3.6740447 
    2570    285.23074   -4393.2788   -4377.3883    5692.5624    7959.9773    3.7043356 
    2580    283.60735   -4393.1193   -4377.3192    6252.2134    7960.0579    3.7226396 
    2590    289.48474   -4393.3888   -4377.2613    5053.0145    7966.5195    3.7245706 
    2600    297.36375   -4393.7654   -4377.1989    2776.4401     7978.001    3.7095234 
    2610    288.82795   -4393.2097   -4377.1188    558.20972    7992.1061    3.6799612 
    2620    284.76435    -4392.875   -4377.0104   -2025.7122    8006.3812    3.6399921 
    2630    285.95843   -4392.7955   -4376.8645   -4436.9787    8018.1329    3.5998908 
    2640    292.53204    -4392.999   -4376.7017    -5524.782    8024.9736    3.5711121 
    2650    292.58447   -4392.8451   -4376.5448   -4781.3328    8025.9272     3.559587 
    2660    282.43367   -4392.1304   -4376.3957   -2899.8364    8021.8846    3.5629284 
    2670    285.81869   -4392.1624   -4376.2391   -1305.8159    8014.8717     3.573103 
    2680    309.02861   -4393.2891   -4376.0728   -887.31854    8006.5702    3.5847528 
    2690    320.60331   -4393.7745   -4375.9134    -435.9321    7997.5863    3.5975467 
    2700    303.94191   -4392.7031   -4375.7701    1132.3216    7988.5243    3.6113501 
    2710    289.86017    -4391.777   -4375.6286    2274.4401    7980.8765    3.6249001 
    2720    308.76202   -4392.6801   -4375.4786    2175.3273    7975.7259    3.6375614 
    2730    316.05881   -4392.9359   -4375.3279    2264.6271    7973.0309    3.6495502 
    2740    302.65832   -4392.0614   -4375.1999    2625.9917    7972.8116     3.657255 
    2750    303.46934   -4392.0027    -4375.096    2254.8501    7975.2863    3.6552171 
    2760    307.30232   -4392.1248   -4375.0047    1292.7702    7980.0055    3.6420751 
    2770    304.92319   -4391.9061   -4374.9185    522.04773    7985.9857    3.6205874 
    2780    308.22587   -4392.0026    -4374.831   -218.61795    7992.3648    3.5956169 
    2790    314.21743   -4392.2483   -4374.7429   -978.60512    7998.3474    3.5729668 
    2800    315.00636   -4392.2141   -4374.6647   -1400.5069    8003.1827    3.5579522 
    2810    314.45474   -4392.1263   -4374.6077    -1733.453    8006.4269     3.553173 
    2820     318.0839   -4392.2974   -4374.5766   -2274.1849    8007.7249    3.5575681 
    2830    311.54877   -4391.9241   -4374.5674   -2252.4448    8006.6489    3.5682378 
    2840    305.58703   -4391.5968   -4374.5722   -1750.5686    8003.2728    3.5811647 
    2850    306.06096   -4391.6353   -4374.5843   -829.99894    7998.1848    3.5945604 
    2860    302.88277   -4391.4707   -4374.5968    582.74068     7992.421    3.6088202 
    2870    308.82753   -4391.8156   -4374.6105    1655.3968    7987.3997    3.6237828 
    2880    317.85058   -4392.3458    -4374.638    1805.5366    7984.1666    3.6394285 
    2890    315.60572   -4392.2724   -4374.6897    1295.3074    7982.8564    3.6545355 
    2900    310.42214   -4392.0537   -4374.7597    532.77288    7982.9346    3.6662115 
    2910    316.98402   -4392.5028   -4374.8433   -220.49741    7983.5787    3.6724772 
    2920    317.08556   -4392.6106   -4374.9454   -453.82757    7984.0239    3.6738967 
    2930    310.28676   -4392.3512   -4375.0648   -27.796729    7984.0453    3.6712189 
    2940    313.43815   -4392.6605   -4375.1985    572.48324    7984.0512    3.6640151 
    2950    315.02354    -4392.899   -4375.3487    1436.3691    7984.6899    3.6529052 
    2960     306.3796   -4392.5828    -4375.514    2377.2863    7986.8592    3.6386051 
    2970    294.45928   -4392.0877    -4375.683    2392.1176    7991.4145    3.6223919 
    2980    290.98603   -4392.0526   -4375.8415    1308.4432    7998.3037    3.6060029 
    2990    293.14525   -4392.3083   -4375.9769   -219.27051    8006.3992    3.5908115 
    3000    295.01273   -4392.5266   -4376.0911   -1580.2184    8014.1142    3.5786042 
    3010    298.95607   -4392.8522    -4376.197   -2953.9013    8019.9882    3.5695286 
    3020    302.84611   -4393.1792   -4376.3073    -3917.343    8022.6343    3.5634353 
    3030    294.93198   -4392.8586   -4376.4276   -3804.8139    8021.1612    3.5634931 
    3040    289.55061   -4392.6805   -4376.5493   -3233.0347     8015.708    3.5729207 
    3050    300.91278   -4393.4326   -4376.6684   -2579.3326     8006.945    3.5925783 
    3060    302.27366    -4393.624    -4376.784   -1203.3734    7995.7117    3.6215429 
    3070    284.41394   -4392.7212   -4376.8762    889.02386    7983.5244     3.654121 
    3080    283.54243   -4392.7291   -4376.9327     2447.009     7972.491    3.6808729 
    3090    305.68036   -4394.0061   -4376.9763    3294.0556    7964.2071    3.6956713 
    3100    313.37067   -4394.4954   -4377.0372    4209.2776    7959.5796    3.6975855 
    3110     299.0644   -4393.7867   -4377.1255    4826.3489    7959.4471    3.6881342 
    3120    287.43326    -4393.239   -4377.2257    4102.9711    7964.2567     3.669959 
    3130    292.43981   -4393.6118   -4377.3197    2258.6733    7973.1846    3.6466521 
    3140    287.06092   -4393.3842   -4377.3917    320.56335     7984.314    3.6216827 
    3150    269.91323    -4392.464   -4377.4269   -1558.2222    7995.5783    3.5976287 
    3160    269.04627   -4392.4086   -4377.4198   -3485.2145    8004.9648    3.5779018 
    3170    282.45875   -4393.1209   -4377.3848    -4516.524    8010.5714    3.5661377 
    3180    294.46239   -4393.7535   -4377.3487   -4627.8915    8011.3465    3.5646776 
    3190    300.33449   -4394.0575   -4377.3255   -3802.5227    8007.2715    3.5750627 
    3200    303.56367    -4394.218   -4377.3062   -2394.3243     7999.288    3.5974311 
    3210     295.8114   -4393.7501   -4377.2701   -440.67826    7989.0062    3.6292272 
    3220    285.44713   -4393.1097   -4377.2071    1300.0007    7978.4599    3.6633499 
    3230    279.70116   -4392.7017   -4377.1193    2696.0907     7969.481    3.6921971 
    3240    279.91779    -4392.608   -4377.0135    3663.6239    7963.4994    3.7095617 
    3250    289.98337   -4393.0553      -4376.9    3944.2246    7961.4393    3.7105957 
    3260    298.06305   -4393.3941   -4376.7887    3391.6806    7963.4811    3.6947578 
    3270    304.83444   -4393.6685   -4376.6859    2786.7486    7969.0508    3.6683366 
    3280     314.3619   -4394.1048   -4376.5913     1981.321    7977.4317    3.6389455 
    3290    318.02796   -4394.2203   -4376.5026    1138.7777    7987.7502     3.611361 
    3300    301.77122   -4393.2276   -4376.4156    752.75591    7999.1313      3.58792 
    3310    284.05508   -4392.1432   -4376.3182   -7.4522094    8011.0655        3.568 
    3320    288.93458   -4392.2957   -4376.1988   -2144.7799    8022.6424    3.5495483 
    3330    298.77767   -4392.7134   -4376.0682   -4786.6122    8031.6625    3.5343989 
    3340    290.59638   -4392.1483   -4375.9589   -6147.1902    8035.5122    3.5290432 
    3350    283.43872   -4391.6658   -4375.8751   -5796.3778    8032.8735    3.5389588 
    3360    292.43992    -4392.079   -4375.7868   -4277.4627    8024.2058     3.564357 
    3370    300.49705   -4392.4124   -4375.6714   -1913.1029    8011.2584    3.6001012 
    3380    298.38061   -4392.1486   -4375.5255    999.53496    7996.6401    3.6368115 
    3390    303.79732    -4392.284   -4375.3591    3221.3071    7983.3571    3.6627758 
    3400    322.77452   -4393.1828   -4375.2007    3791.3363    7973.6219    3.6723327 
    3410    333.83245   -4393.6843   -4375.0861    3321.3991    7967.9959    3.6692772 
    3420    326.72409   -4393.2367   -4375.0345    2921.7711    7965.9977    3.6598427 
    3430    309.65257   -4392.2808   -4375.0297    2594.6975    7967.1357    3.6479934 
    3440    301.31762   -4391.8202   -4375.0334    1543.8703    7970.9074    3.6348516 
    3450    307.18775   -4392.1371   -4375.0234    580.61741     7976.243    3.6212308 
    3460    309.58551   -4392.2571   -4375.0097     45.10663     7982.114    3.6081344 
    3470    303.15009   -4391.8944   -4375.0056   -64.996254    7987.9592    3.5954568 
    3480    305.08681   -4392.0106   -4375.0138   -313.41174    7993.6056    3.5828285 
    3490    309.66022   -4392.2889   -4375.0374   -797.88309    7998.7874     3.573062 
    3500    308.19963   -4392.2465   -4375.0764   -983.60949    8003.0524    3.5678394 
    3510    302.66664   -4391.9832   -4375.1213   -1124.2718     8006.197    3.5665184 
    3520    304.13076     -4392.11   -4375.1666   -1689.7376     8008.045    3.5692596 
    3530    309.08716    -4392.438   -4375.2185   -2271.0447    8008.0612    3.5779642 
    3540    313.45509   -4392.7515   -4375.2886   -2268.0023    8005.7114    3.5931903 
    3550    313.45431   -4392.8457   -4375.3828   -1358.5993    8001.0919    3.6125893 
    3560    304.51589   -4392.4597   -4375.4948    124.61597    7995.1902     3.631566 
    3570    292.08823   -4391.8823   -4375.6097    1315.0259    7989.5087     3.646438 
    3580     288.9825   -4391.8198   -4375.7202     1665.562     7985.265    3.6563959 
    3590    300.19687   -4392.5582   -4375.8339    1299.3305    7982.8008    3.6612639 
    3600    313.25159   -4393.4161   -4375.9645    1113.6112    7981.7823    3.6600776 
    3610    314.01475   -4393.6153   -4376.1212    1392.8187    7981.9971     3.651322 
    3620    305.26342    -4393.301   -4376.2944    2056.1105    7983.7293    3.6341294 
    3630    298.37625   -4393.0872   -4376.4644    2123.4783    7987.5487    3.6097997 
    3640    287.77658   -4392.6476   -4376.6153    1561.8887    7993.4947    3.5834996 
    3650    278.62448   -4392.2599   -4376.7374    269.83045    8000.9262     3.561306 
    3660    283.73181   -4392.6406   -4376.8336   -1656.5118    8008.4698     3.546641 
    3670    289.44997   -4393.0424   -4376.9168   -3513.5772    8014.1282     3.541346 
    3680     287.7545   -4393.0309   -4376.9997   -4246.8093    8016.0563    3.5470236 
    3690    286.13274   -4393.0147   -4377.0739    -4081.926     8013.518    3.5637358 
    3700    293.51283   -4393.4798   -4377.1278    -3483.023    8006.7115     3.588368 
    3710    301.54409   -4393.9619   -4377.1625   -1840.0227    7996.4383    3.6157911 
    3720    291.40109   -4393.4114   -4377.1772    501.32534    7984.4858    3.6417698 
    3730    279.62678     -4392.75   -4377.1717    2426.1693    7973.2589    3.6626194 
    3740    283.62523   -4392.9505   -4377.1495    3485.2441    7964.7394    3.6763287 
    3750    298.37157   -4393.7439   -4377.1212    3725.1256    7959.9783    3.6838913 
    3760    298.70337   -4393.7393   -4377.0982    3619.9185    7959.1895    3.6859454 
    3770    293.70323   -4393.4437   -4377.0812    3161.3393     7962.196    3.6792527 
    3780    306.32854   -4394.1272   -4377.0613    1575.4244    7968.3588    3.6622653 
    3790     314.3624   -4394.5545   -4377.0411    20.355875     7976.091     3.639934 
    3800    291.14772   -4393.2475   -4377.0273   -444.21659    7983.8345    3.6187097 
    3810     272.3919   -4392.1792   -4377.0039   -754.69621    7991.0039    3.6010639 
    3820    288.13448   -4393.0079   -4376.9556   -1679.1348    7997.2053    3.5884086 
    3830    303.38053   -4393.7948   -4376.8931   -2390.1792    8001.5393    3.5836274 
    3840     294.7602   -4393.2578   -4376.8363   -1901.0905    8003.3811    3.5875704 
    3850    284.81439   -4392.6463    -4376.779   -1110.7676     8003.198    3.5970701 
    3860    293.83002   -4393.0783   -4376.7087   -926.55838    8001.7825    3.6082143 
    3870    308.30291    -4393.804   -4376.6281   -870.76173    7999.3921    3.6190693 
    3880    305.51148   -4393.5666   -4376.5462    7.4572684       7996.2    3.6282061 
    3890    287.38984   -4392.4731   -4376.4622    1303.9733    7993.1142    3.6333887 
    3900    283.61998   -4392.1709   -4376.3701    1720.0072    7991.3832    3.6324195 
    3910    293.69419   -4392.6263   -4376.2642    1130.1475    7991.4136     3.625482 
    3920    299.40176   -4392.8299   -4376.1499    347.29515     7992.635    3.6141152 
    3930    299.84599    -4392.736   -4376.0313   -212.41678    7994.2282    3.5991083 
    3940    293.97469   -4392.2687    -4375.891   -103.78864    7995.6525     3.582681 
    3950     293.5326   -4392.0683   -4375.7153    139.53204    7996.9529    3.5674503 
    3960     301.9444    -4392.329   -4375.5073    239.51687    7998.3768    3.5553091 
    3970    309.40682   -4392.5215   -4375.2841   -106.92394    7999.9906    3.5484923 
    3980     314.9295   -4392.6162   -4375.0711   -484.22365    8001.4639     3.548663 
    3990    315.97992   -4392.4869   -4374.8833   -469.67098    8002.4512    3.5579049 
    4000     312.2794   -4392.1115   -4374.7141    -381.0492    8002.9362    3.5765421 
    4010    314.99465   -4392.0935   -4374.5448     -654.405    8002.9686     3.600386 
    4020    326.49078     -4392.57   -4374.3808   -924.13131    8002.3085    3.6251789 
    4030    326.52845   -4392.4418   -4374.2505   -851.65214    8000.7056    3.6483473 
    4040     313.7741    -4391.647   -4374.1662   -506.38396    7998.2458    3.6670889 
    4050    309.19632   -4391.3446    -4374.119    51.164771    7995.3186      3.67905 
    4060    311.52472   -4391.4563   -4374.1009    659.20082    7992.4934    3.6835826 
    4070    303.63019   -4391.0194   -4374.1038    1270.8618    7990.4137    3.6812856 
    4080     295.3083   -4390.5653   -4374.1133     1625.017    7989.6946    3.6717087 
    4090    306.03396   -4391.1722   -4374.1227    1323.2909    7990.6584    3.6540967 
    4100    322.68121   -4392.1129   -4374.1359    562.62857    7992.9803    3.6307253 
    4110    326.39699   -4392.3451   -4374.1612    -244.5086    7995.8829    3.6063877 
    4120    322.07528   -4392.1439   -4374.2007   -1680.9782    7998.4219    3.5861155 
    4130    323.63073   -4392.2873   -4374.2575   -2915.3376    7999.1649    3.5746544 
    4140    333.97374   -4392.9562   -4374.3501   -2811.6792    7996.9219    3.5746096 
    4150    326.82233   -4392.6874   -4374.4798   -594.80793    7991.9233    3.5849906 
    4160    299.55357   -4391.3022   -4374.6138    2742.6312    7986.4804     3.598623 
    4170    291.30334    -4390.965   -4374.7361    4498.2304    7983.8751    3.6060722 
    4180    309.24276   -4392.0875   -4374.8593    3504.2841    7985.8231    3.6039459 
    4190    320.52893   -4392.8432   -4374.9862    1233.5295    7991.3651    3.5956746 
    4200    321.87858   -4393.0546   -4375.1224   -828.48847    7998.1721    3.5866523 
    4210    317.35978    -4392.956   -4375.2755   -2069.9885    8004.1044    3.5803955 
    4220    305.88828   -4392.4838   -4375.4424   -2365.5277     8007.859    3.5768572 
    4230    294.26372   -4392.0002   -4375.6064   -1844.2026    8009.1366    3.5728858 
    4240    292.76874   -4392.0629   -4375.7524   -1343.8263     8008.435    3.5663178 
    4250    299.72096   -4392.5802   -4375.8824   -1059.5549    8006.2822    3.5602364 
    4260    299.25676   -4392.6768   -4376.0049   -616.05939    8003.0333    3.5594136 
    4270      290.393   -4392.2942   -4376.1161    70.374658    7999.1893    3.5654746 
    4280    290.62809   -4392.4012     -4376.21    268.15325    7995.4075    3.5772966 
    4290    301.45588   -4393.0912   -4376.2967    7.2242279     7991.905    3.5939339 
    4300    301.37302   -4393.1792   -4376.3893    160.18467    7988.4773    3.6132848 
    4310    292.79835   -4392.7904   -4376.4783    1098.4752    7985.3304    3.6308601 
    4320    302.14378    -4393.389   -4376.5562    1430.4774    7983.3195    3.6443784 
    4330    316.43486   -4394.2611   -4376.6321    758.86227    7982.7506    3.6561492 
    4340    314.65575   -4394.2484   -4376.7186    341.46018    7983.0274    3.6688825 
    4350    299.68199   -4393.5109   -4376.8153    386.94618    7983.7069     3.682059 
    4360    288.44386   -4392.9833   -4376.9138    397.46879    7984.7869    3.6930855 
    4370    287.51912   -4393.0303   -4377.0123    301.97697    7986.2765    3.6991489 
    4380    282.95572   -4392.8641   -4377.1003    121.48358    7988.0708     3.697107 
    4390    281.68001   -4392.8573   -4377.1646    -279.3568     7989.968    3.6860541 
    4400    288.34133   -4393.2678    -4377.204   -919.55912    7991.5366     3.669759 
    4410     293.7512   -4393.5899   -4377.2247   -1108.9033    7992.1602     3.652826 
    4420    287.46561   -4393.2443   -4377.2292   -611.29335    7991.6736    3.6382742 
    4430    283.48022    -4393.012    -4377.219   -312.11322    7990.5233    3.6278205 
    4440    289.02303   -4393.3019   -4377.2001   -618.51704    7988.9901    3.6220891 
    4450     292.0098   -4393.4423   -4377.1741   -894.52264    7986.8193    3.6192402 
    4460    288.19907   -4393.1945   -4377.1386   -428.45243    7983.7893    3.6166169 
    4470    286.08132   -4393.0247   -4377.0868    252.38282     7980.356    3.6125809 
    4480    301.48552   -4393.8138   -4377.0177     516.4978    7977.1814    3.6075084 
    4490    312.48516   -4394.3515   -4376.9426    1210.1417    7974.6173    3.6042435 
    4500    299.25441   -4393.5451   -4376.8733    2639.8301      7973.44     3.604149 
    4510    288.87786   -4392.8985   -4376.8048    3331.7876    7975.0194     3.604753 
    4520    296.05614   -4393.2174   -4376.7237    2246.1395    7979.9646    3.6027468 
    4530    299.24033   -4393.2929   -4376.6219    265.86067    7987.1961    3.5968701 
    4540    289.38183    -4392.622   -4376.5002    -1505.485    7994.6921    3.5878263 
    4550    285.61527    -4392.272     -4376.36   -2723.7789    8000.5966    3.5776173 
    4560    300.75287   -4392.9557   -4376.2004   -3146.2098      8003.64    3.5691778 
    4570    313.45627   -4393.4955   -4376.0325   -2180.5988    8003.4361     3.565794 
    4580    307.67812   -4393.0143   -4375.8732    -177.7098    8001.0123    3.5687077 
    4590    298.15548   -4392.3339   -4375.7233    1308.4526    7998.3642    3.5757592 
    4600    293.95657    -4391.952   -4375.5753    1334.2729    7996.9939    3.5846957 
    4610    296.67695   -4391.9545   -4375.4262     280.4791    7996.9628    3.5947225 
    4620    299.28406   -4391.9507   -4375.2773   -779.50092    7997.2348    3.6056343 
    4630    302.32625   -4391.9761   -4375.1332   -1154.0523    7996.7406    3.6167227 
    4640    309.02664    -4392.217   -4375.0008   -929.78415    7995.0717    3.6262916 
    4650    316.34832   -4392.5205   -4374.8964    64.720536     7992.503    3.6328663 
    4660    320.43916   -4392.6851   -4374.8331    1490.3397    7990.0631    3.6359178 
    4670    316.56577   -4392.4397   -4374.8034    2439.8149    7989.1802    3.6357113 
    4680    317.76345   -4392.4962   -4374.7933    2169.0649    7990.7909    3.6320696 
    4690    318.10547   -4392.5091   -4374.7871    1059.9287    7994.6391    3.6257783 
    4700     308.8121   -4391.9837   -4374.7794   -54.321901    7999.6167    3.6188686 
    4710    304.57817   -4391.7493   -4374.7809   -1431.0083    8004.5029    3.6134639 
    4720    313.05125   -4392.2473   -4374.8069   -2655.3186    8007.8562    3.6113802 
    4730     318.2004   -4392.5911   -4374.8638   -2542.1553    8008.4932    3.6141188 
    4740    312.95245   -4392.3715   -4374.9365   -1345.3335    8006.5089    3.6214593 
    4750    306.17005   -4392.0584   -4375.0014    14.782455    8003.1213    3.6312247 
    4760    310.56679   -4392.3552   -4375.0532    267.34243    7999.6654    3.6410502 
    4770    318.20289   -4392.8362   -4375.1087    61.434378    7996.4718    3.6506233 
    4780    306.50027   -4392.2501   -4375.1747    382.68744    7993.4198    3.6594278 
    4790    302.87784   -4392.1201   -4375.2464    379.32726    7990.7567    3.6650098 
    4800    309.39563   -4392.5576   -4375.3208    430.67675    7988.5238    3.6659655 
    4810    311.10328   -4392.7326   -4375.4006    801.90978    7986.7877    3.6604437 
    4820     309.8667   -4392.7472   -4375.4842    1006.9423    7985.8996    3.6475337 
    4830    308.32748   -4392.7412    -4375.564      853.589    7986.0572    3.6309977 
    4840    300.07563   -4392.3556   -4375.6381    692.00585    7987.1313    3.6168781 
    4850    298.17712     -4392.32   -4375.7082    408.15777    7988.9388    3.6086763 
    4860     297.4141   -4392.3391   -4375.7698    19.975034    7991.1665    3.6066977 
    4870    294.86923   -4392.2487   -4375.8212    8.2079723    7993.4506    3.6081366 
    4880    298.16705   -4392.4759   -4375.8647   -67.118163    7995.7418    3.6095627 
    4890     299.9322   -4392.6103   -4375.9007   -546.35383    7997.9255    3.6099351 
    4900    300.67017   -4392.6809   -4375.9303   -1029.0104     7999.533    3.6094244 
    4910    308.74021   -4393.1609   -4375.9606   -1533.3829     8000.032    3.6085819 
    4920    308.58089   -4393.1917   -4376.0003   -1459.1868    7998.9444     3.609466 
    4930     296.1069   -4392.5423   -4376.0459   -581.20954    7996.3828    3.6127829 
    4940     290.8121   -4392.2871   -4376.0856   -156.09096    7993.1465    3.6167076 
    4950    302.19176    -4392.953   -4376.1176    -174.3737    7989.6962    3.6196982 
    4960     311.7992   -4393.5212   -4376.1505    226.83698    7986.1041    3.6214239 
    4970    299.31164   -4392.8623   -4376.1873    1230.4074    7982.8155    3.6216466 
    4980    286.64576   -4392.1871   -4376.2178    1758.8794    7980.8047    3.6199265 
    4990    293.90822   -4392.6106   -4376.2367    1150.1968    7980.5577    3.6178327 
    5000    306.18835   -4393.3083   -4376.2502    465.06622    7981.5381    3.6186872 
Loop time of 2820.06 on 8 procs for 5000 steps with 432 atoms

Performance: 0.153 ns/day, 156.670 hours/ns, 1.773 timesteps/s
93.8% CPU use with 8 MPI tasks x 1 OpenMP threads

MPI task timing breakdown:
Section |  min time  |  avg time  |  max time  |%varavg| %total
---------------------------------------------------------------
Pair    | 2130.2     | 2476.2     | 2731.7     | 400.3 | 87.81
Bond    | 0.0005641  | 0.0010087  | 0.0027738  |   2.2 |  0.00
Neigh   | 0.069219   | 0.076935   | 0.083058   |   1.7 |  0.00
Comm    | 82.958     | 322.33     | 634.41     |1003.7 | 11.43
Output  | 4.5607     | 4.5745     | 4.6702     |   1.7 |  0.16
Modify  | 0.69708    | 16.825     | 50.795     | 482.8 |  0.60
Other   |            | 0.01885    |            |       |  0.00

Nlocal:        54.0000 ave          63 max          45 min
Histogram: 1 0 0 1 1 4 0 0 0 1
Nghost:        650.000 ave         659 max         641 min
Histogram: 1 0 0 0 3 2 1 0 0 1
Neighs:         0.00000 ave           0 max           0 min
Histogram: 8 0 0 0 0 0 0 0 0 0
FullNghs:      3028.25 ave        3544 max        2524 min
Histogram: 1 0 0 1 1 4 0 0 0 1

Total # of neighbors = 24226
Ave neighs/atom = 56.078704
Ave special neighs/atom = 0.0000000
Neighbor list builds = 498
Dangerous builds = 484
System init for write_data ...
Total wall time: 0:47:05
