LAMMPS (29 Sep 2021 - Update 3)
OMP_NUM_THREADS environment is not set. Defaulting to 1 thread. (src/comm.cpp:98)
  using 1 OpenMP thread(s) per MPI task
units	metal
atom_style	full

read_data	mixed.data
Reading data file ...
  orthogonal box = (0.0000000 0.0000000 0.0000000) to (16.534670 17.767358 74.594796)
  1 by 2 by 8 MPI processor grid
  reading atoms ...
  864 atoms
Finding 1-2 1-3 1-4 neighbors ...
  special bond factors lj:    0        0        0       
  special bond factors coul:  0        0        0       
     0 = max # of 1-2 neighbors
     0 = max # of 1-3 neighbors
     0 = max # of 1-4 neighbors
     1 = max # of special neighbors
  special bonds CPU = 0.001 seconds
  read_data CPU = 0.021 seconds

pair_style	quip
pair_coeff	* * /ocean/projects/cts180021p/wuziqi/clease/mint-PD/PhaseDiagram-Clease/Liquid/GAP_potential/gap_LiKCl.xml "Potential xml_label=GAP_2021_9_27_0_1_17_37_618" 17 19 3

neighbor	0.3 bin
neigh_modify	delay 10

timestep	0.001
compute	msd all msd
thermo_style	custom step temp pe etotal press vol c_msd[4]
thermo	10
dump	1 all custom 10 xyz-mix.dump type id x y z
dump	2 all custom 10 force-mix.dump type id fx fy fz

fix     1 all nve
run     2000
Neighbor list info ...
  update every 1 steps, delay 10 steps, check yes
  max neighbors/atom: 2000, page size: 100000
  master list distance cutoff = 6.22
  ghost atom cutoff = 6.22
  binsize = 3.11, bins = 6 6 24
  1 neighbor lists, perpetual/occasional/extra = 1 0 0
  (1) pair quip, perpetual
      attributes: full, newton on
      pair build: full/bin
      stencil: full/bin/3d
      bin: standard
Per MPI rank memory allocation (min/avg/max) = 8.894 | 8.906 | 8.915 Mbytes
Step Temp PotEng TotEng Press Volume c_msd[4] 
       0            0   -8413.4292   -8413.4292   -12531.916    21914.265            0 
      10    63.367096   -8420.5059   -8413.4372   -13062.757    21914.265 0.00028900792 
      20    162.23389   -8431.5423   -8413.4448   -13580.932    21914.265 0.0035442006 
      30    203.76318   -8436.1707   -8413.4406   -13263.999    21914.265  0.011998633 
      40     225.5427      -8438.6   -8413.4404   -13091.981    21914.265  0.023619499 
      50    238.39464   -8440.0352   -8413.4419   -13192.953    21914.265  0.036411648 
      60    237.91747   -8439.9798   -8413.4397    -13151.82    21914.265  0.049420327 
      70    242.25882   -8440.4649   -8413.4405   -12986.142    21914.265  0.062561747 
      80    243.33226   -8440.5825   -8413.4384   -12841.846    21914.265  0.075987004 
      90     256.1439    -8442.014   -8413.4408   -12985.089    21914.265  0.088683986 
     100    260.92723   -8442.5467   -8413.4399   -13129.532    21914.265   0.10092572 
     110    263.36735   -8442.8185   -8413.4395   -13314.209    21914.265   0.11296329 
     120    267.45703   -8443.2754   -8413.4402   -13403.997    21914.265   0.12509928 
     130    267.20277   -8443.2463   -8413.4395   -13198.457    21914.265   0.13819283 
     140    269.21359   -8443.4705   -8413.4393   -12839.711    21914.265   0.15259322 
     150     276.3754   -8444.2699   -8413.4398   -12564.061    21914.265   0.16775295 
     160    282.09052   -8444.9077   -8413.4401   -12400.914    21914.265   0.18315323 
     170    283.74907   -8445.0928   -8413.4402     -12430.3    21914.265    0.1989762 
     180    279.57367   -8444.6271   -8413.4402   -12727.353    21914.265   0.21536827 
     190    272.01519   -8443.7829   -8413.4391   -12943.608    21914.265   0.23180139 
     200    272.98877   -8443.8921   -8413.4397   -13066.814    21914.265    0.2476891 
     210    278.28656   -8444.4833     -8413.44   -13119.162    21914.265   0.26290373 
     220    281.61115   -8444.8543   -8413.4402    -13052.65    21914.265   0.27743582 
     230    283.45537   -8445.0589    -8413.439   -12948.839    21914.265   0.29133107 
     240    292.81696   -8446.1046   -8413.4404   -13016.029    21914.265    0.3048675 
     250    295.20203   -8446.3705   -8413.4402   -13077.887    21914.265   0.31931215 
     260    290.46684   -8445.8415   -8413.4394   -13040.528    21914.265   0.33532684 
     270    290.61991    -8445.858   -8413.4389   -13235.455    21914.265   0.35239777 
     280    301.25443   -8447.0456   -8413.4402   -13515.282    21914.265   0.36952956 
     290    308.28623   -8447.8304   -8413.4406   -13611.572    21914.265   0.38667041 
     300    309.20907   -8447.9319   -8413.4392   -13455.868    21914.265    0.4041006 
     310     314.5316   -8448.5273   -8413.4408   -13198.597    21914.265   0.42152557 
     320    312.09261   -8448.2546   -8413.4402   -12968.083    21914.265   0.43866959 
     330    305.84421   -8447.5573   -8413.4399   -12657.381    21914.265   0.45536472 
     340    303.20988   -8447.2632   -8413.4397   -12498.026    21914.265   0.47172581 
     350    307.13857   -8447.7018     -8413.44   -12492.368    21914.265   0.48754232 
     360    312.15901   -8448.2619   -8413.4401   -12369.505    21914.265   0.50223919 
     370     318.6847   -8448.9898     -8413.44   -12195.898    21914.265   0.51545083 
     380    326.66636   -8449.8808   -8413.4407   -12030.164    21914.265   0.52751087 
     390    328.67292   -8450.1043   -8413.4403   -11786.931    21914.265   0.53983918 
     400    329.42172   -8450.1875     -8413.44   -11529.418    21914.265   0.55338123 
     410    329.12824   -8450.1558   -8413.4411   -11363.621    21914.265   0.56856317 
     420    321.17839   -8449.2675   -8413.4396   -11329.503    21914.265   0.58578319 
     430    319.73313   -8449.1067     -8413.44   -11645.546    21914.265   0.60460993 
     440    321.87014   -8449.3455   -8413.4404   -12168.872    21914.265   0.62482739 
     450    321.69175   -8449.3257   -8413.4405   -12517.526    21914.265   0.64605131 
     460    321.58625   -8449.3131   -8413.4397   -12738.117    21914.265   0.66602281 
     470    327.73765   -8450.0009   -8413.4413    -13118.13    21914.265   0.68222539 
     480    325.78012   -8449.7811   -8413.4399   -13518.975    21914.265   0.69547134 
     490    325.26696   -8449.7242   -8413.4402   -13912.333    21914.265   0.70709849 
     500    326.02809   -8449.8096   -8413.4407    -14245.82    21914.265    0.7181905 
     510     321.8067   -8449.3384   -8413.4404   -14358.421    21914.265   0.73031831 
     520    314.82643   -8448.5595   -8413.4401   -14393.561    21914.265   0.74493886 
     530    311.55922   -8448.1945   -8413.4396    -14504.26    21914.265   0.76206346 
     540    316.52181   -8448.7487   -8413.4402   -14692.451    21914.265   0.78048733 
     550    323.45997   -8449.5224     -8413.44   -14675.954    21914.265   0.79880458 
     560    332.20295   -8450.4987   -8413.4409    -14432.97    21914.265   0.81596428 
     570    332.37528   -8450.5179   -8413.4409   -14008.452    21914.265   0.83234674 
     580    324.44532    -8449.632   -8413.4397   -13682.622    21914.265   0.84880328 
     590    322.54654   -8449.4211   -8413.4405   -13611.186    21914.265   0.86493346 
     600    320.03229     -8449.14   -8413.4399   -13618.158    21914.265   0.88136827 
     610     322.0694   -8449.3667   -8413.4393   -13770.866    21914.265   0.89972436 
     620    332.97088   -8450.5844    -8413.441   -14040.679    21914.265   0.91979176 
     630    336.52886   -8450.9806   -8413.4403   -14106.634    21914.265    0.9400978 
     640    340.63169   -8451.4378   -8413.4399   -14084.373    21914.265   0.95883362 
     650     349.6267   -8452.4431   -8413.4417   -14126.089    21914.265   0.97518253 
     660     345.3101   -8451.9607   -8413.4408    -13925.09    21914.265   0.98949595 
     670    335.30236   -8450.8431   -8413.4396   -13541.064    21914.265    1.0025057 
     680    335.35657   -8450.8495     -8413.44   -13120.509    21914.265    1.0157598 
     690    342.86707   -8451.6878   -8413.4405   -12807.122    21914.265    1.0306556 
     700    350.61517   -8452.5527    -8413.441   -12613.893    21914.265    1.0481195 
     710    351.61871   -8452.6647   -8413.4411    -12558.63    21914.265     1.067876 
     720    346.37378   -8452.0785     -8413.44   -12478.274    21914.265    1.0873947 
     730    347.79156   -8452.2373   -8413.4406   -12593.955    21914.265    1.1041491 
     740    351.02442    -8452.599   -8413.4417   -12781.856    21914.265    1.1188548 
     750    344.89782   -8451.9145   -8413.4406   -12888.282    21914.265     1.133643 
     760      340.342   -8451.4064   -8413.4407   -13050.736    21914.265    1.1491825 
     770    340.04955   -8451.3737   -8413.4407   -13326.749    21914.265    1.1643304 
     780      345.357   -8451.9656   -8413.4405   -13558.373    21914.265    1.1777023 
     790    357.12317   -8453.2788   -8413.4411   -13831.043    21914.265    1.1886997 
     800    366.64045   -8454.3407   -8413.4414   -14129.874    21914.265    1.1976392 
     810    368.68447   -8454.5688   -8413.4415   -14063.484    21914.265    1.2056605 
     820    366.60174   -8454.3361   -8413.4411   -13908.726    21914.265    1.2141717 
     830    365.85586   -8454.2531   -8413.4413   -13853.131    21914.265    1.2243585 
     840     368.4524   -8454.5423   -8413.4409   -13972.673    21914.265    1.2365636 
     850    371.87492   -8454.9262    -8413.443    -14131.16    21914.265    1.2503596 
     860     358.1746   -8453.3954   -8413.4405     -13818.7    21914.265    1.2649975 
     870    354.45705   -8452.9806   -8413.4404   -13465.958    21914.265     1.278191 
     880    366.65296   -8454.3425   -8413.4418   -13399.092    21914.265    1.2880847 
     890    376.93995   -8455.4909   -8413.4426    -13274.53    21914.265    1.2959326 
     900    375.96913   -8455.3817   -8413.4418   -13062.805    21914.265    1.3041818 
     910    374.01489   -8455.1632   -8413.4413   -12824.206    21914.265    1.3130528 
     920    378.94842   -8455.7136   -8413.4414   -12747.174    21914.265    1.3222121 
     930    388.54983   -8456.7859   -8413.4426   -12880.601    21914.265    1.3329508 
     940    389.80019   -8456.9258    -8413.443   -12981.003    21914.265    1.3457299 
     950    382.52604   -8456.1127   -8413.4413   -12918.004    21914.265    1.3587946 
     960    381.75271   -8456.0275   -8413.4424   -13120.356    21914.265    1.3710856 
     970    380.20365    -8455.854   -8413.4417   -13297.868    21914.265    1.3835601 
     980    384.06597   -8456.2848   -8413.4416    -13360.21    21914.265    1.3967998 
     990    391.39252    -8457.104   -8413.4436    -13319.56    21914.265    1.4114384 
    1000    385.55287   -8456.4508   -8413.4418   -13032.957    21914.265    1.4285977 
    1010    381.98963   -8456.0536   -8413.4421   -12900.345    21914.265    1.4480597 
    1020    382.08452   -8456.0644   -8413.4423   -12891.786    21914.265    1.4678099 
    1030    380.66666   -8455.9065   -8413.4425   -12820.478    21914.265    1.4859085 
    1040    378.02017   -8455.6107    -8413.442   -12814.774    21914.265    1.5012686 
    1050    381.70997   -8456.0224   -8413.4421   -12925.622    21914.265    1.5119118 
    1060    391.42566   -8457.1073   -8413.4432    -13146.33    21914.265    1.5173209 
    1070    396.24192   -8457.6441   -8413.4428   -13102.084    21914.265    1.5196151 
    1080    397.63032   -8457.7993    -8413.443   -12889.784    21914.265    1.5211703 
    1090    396.12759   -8457.6308   -8413.4422   -12537.537    21914.265    1.5231683 
    1100    400.33119   -8458.1002   -8413.4426   -12299.668    21914.265    1.5256834 
    1110    407.17314   -8458.8635   -8413.4428   -12099.612    21914.265    1.5296348 
    1120    413.19804   -8459.5369    -8413.444   -11926.861    21914.265    1.5369315 
    1130    409.94165   -8459.1721   -8413.4425   -11927.354    21914.265    1.5487344 
    1140    411.69689   -8459.3679   -8413.4425   -12274.932    21914.265    1.5644715 
    1150    417.92932   -8460.0654   -8413.4448   -12599.199    21914.265    1.5822789 
    1160    409.45399   -8459.1175   -8413.4423   -12608.558    21914.265    1.6004412 
    1170    405.75202   -8458.7057   -8413.4435   -12496.116    21914.265    1.6169469 
    1180    399.97271   -8458.0606    -8413.443   -12466.412    21914.265    1.6317671 
    1190    393.04741   -8457.2883   -8413.4433   -12618.331    21914.265    1.6460138 
    1200    381.93867   -8456.0489   -8413.4431   -12576.103    21914.265    1.6602667 
    1210    376.72969   -8455.4667   -8413.4419   -12745.258    21914.265    1.6726433 
    1220     387.4652   -8456.6661   -8413.4437   -13270.317    21914.265    1.6819979 
    1230    392.11995   -8457.1848   -8413.4433   -13698.725    21914.265    1.6894908 
    1240    392.35374   -8457.2109   -8413.4432   -14054.078    21914.265    1.6958816 
    1250    387.63167   -8456.6848   -8413.4439   -14383.659    21914.265    1.7022745 
    1260    377.01437   -8455.4984   -8413.4419   -14780.957    21914.265    1.7098627 
    1270    380.16106   -8455.8505   -8413.4429    -15291.91    21914.265    1.7186286 
    1280    386.65141    -8456.575   -8413.4435   -15684.863    21914.265    1.7280931 
    1290    386.45138   -8456.5524   -8413.4431   -15669.118    21914.265    1.7377267 
    1300    384.49318   -8456.3333   -8413.4425   -15192.167    21914.265    1.7465203 
    1310    389.16883   -8456.8559   -8413.4435   -14748.802    21914.265    1.7543822 
    1320    395.91985   -8457.6092   -8413.4437   -14540.669    21914.265    1.7626209 
    1330    402.24128   -8458.3144   -8413.4438   -14482.176    21914.265    1.7719127 
    1340    406.72312   -8458.8138   -8413.4433   -14593.779    21914.265    1.7822942 
    1350    413.88937   -8459.6138   -8413.4438   -14633.206    21914.265    1.7929881 
    1360    418.26368   -8460.1021   -8413.4441   -14272.723    21914.265    1.8043383 
    1370    412.53709   -8459.4628   -8413.4437   -13640.472    21914.265    1.8173742 
    1380    404.03017    -8458.513   -8413.4428   -13053.663    21914.265    1.8314414 
    1390    402.11865   -8458.3013   -8413.4444   -12796.252    21914.265    1.8446224 
    1400    396.75786   -8457.7017   -8413.4428   -12890.081    21914.265    1.8555613 
    1410     401.1626   -8458.1945   -8413.4442   -13251.623    21914.265    1.8625402 
    1420    405.53922    -8458.683   -8413.4445   -13540.901    21914.265    1.8651673 
    1430    404.12534   -8458.5245   -8413.4437   -13662.885    21914.265    1.8648977 
    1440    405.72045   -8458.7027    -8413.444   -13771.634    21914.265    1.8643414 
    1450    406.67484   -8458.8092    -8413.444   -13873.149    21914.265    1.8661066 
    1460    406.94702   -8458.8395   -8413.4439   -13898.845    21914.265    1.8707341 
    1470    405.99802   -8458.7335   -8413.4438    -13583.81    21914.265    1.8783175 
    1480    405.25435   -8458.6503   -8413.4436   -13097.342    21914.265    1.8881067 
    1490    408.19865    -8458.979   -8413.4439   -12662.726    21914.265    1.8977467 
    1500    414.56579   -8459.6887   -8413.4433   -12296.863    21914.265    1.9065246 
    1510    429.03716   -8461.3044   -8413.4447   -11735.577    21914.265    1.9156573 
    1520    435.43303   -8462.0188   -8413.4456   -11140.275    21914.265    1.9269758 
    1530    420.46896   -8460.3486   -8413.4446     -10759.3    21914.265    1.9420002 
    1540    404.55727   -8458.5707   -8413.4417   -10562.297    21914.265    1.9594173 
    1550     414.5371   -8459.6878   -8413.4456   -10873.945    21914.265    1.9756145 
    1560    415.64167   -8459.8093   -8413.4438    -11180.84    21914.265    1.9896674 
    1570    417.51903   -8460.0192   -8413.4444   -11574.862    21914.265      2.00287 
    1580    420.71133   -8460.3754   -8413.4444   -12084.028    21914.265    2.0173903 
    1590    422.23753   -8460.5459   -8413.4446   -12650.323    21914.265    2.0354221 
    1600    420.26548   -8460.3254   -8413.4441   -13157.964    21914.265    2.0567995 
    1610    418.97614   -8460.1816   -8413.4442   -13379.664    21914.265    2.0784503 
    1620    422.99101    -8460.629   -8413.4437   -13476.483    21914.265    2.0978277 
    1630    431.41255   -8461.5707    -8413.446   -13473.665    21914.265     2.115193 
    1640    426.28653   -8460.9963   -8413.4434   -13430.412    21914.265    2.1338075 
    1650    431.13487   -8461.5387    -8413.445   -13658.596    21914.265       2.1559 
    1660    436.17822   -8462.1019   -8413.4456   -13638.641    21914.265    2.1797337 
    1670    428.12023   -8461.2022   -8413.4447   -13252.346    21914.265    2.2035441 
    1680    422.66155   -8460.5919   -8413.4434   -13022.696    21914.265    2.2262152 
    1690    430.34848   -8461.4521    -8413.446   -12966.155    21914.265    2.2464937 
    1700    426.21611   -8460.9896   -8413.4446   -12849.343    21914.265    2.2649593 
    1710    421.63281   -8460.4781   -8413.4443    -12902.06    21914.265    2.2822078 
    1720    425.52952   -8460.9136   -8413.4451   -13254.993    21914.265    2.2992296 
    1730    433.21398   -8461.7705   -8413.4448   -13760.925    21914.265    2.3170264 
    1740    441.86781   -8462.7372   -8413.4461   -14050.542    21914.265    2.3352522 
    1750    438.27813    -8462.336   -8413.4454   -13921.401    21914.265    2.3528289 
    1760    429.17186   -8461.3192   -8413.4444   -13408.002    21914.265    2.3694072 
    1770    428.81898   -8461.2807   -8413.4453    -12917.73    21914.265    2.3858611 
    1780    433.34916   -8461.7857    -8413.445   -12638.931    21914.265    2.4026666 
    1790     441.0669   -8462.6474   -8413.4457   -12705.172    21914.265     2.419074 
    1800    447.24535   -8463.3359    -8413.445   -12842.309    21914.265    2.4345236 
    1810    451.04914   -8463.7611   -8413.4459   -13058.485    21914.265    2.4502124 
    1820    445.08252   -8463.0941   -8413.4445   -13035.825    21914.265    2.4671851 
    1830    441.70858   -8462.7187   -8413.4454   -12922.342    21914.265    2.4853863 
    1840    432.65555   -8461.7082   -8413.4449   -13058.866    21914.265    2.5046773 
    1850    428.24526   -8461.2146   -8413.4432   -13494.155    21914.265    2.5239509 
    1860    442.70809   -8462.8312   -8413.4464     -14052.9    21914.265    2.5417036 
    1870    445.34398   -8463.1238   -8413.4451   -14177.248    21914.265    2.5577578 
    1880    449.56383   -8463.5931   -8413.4436   -14088.107    21914.265    2.5732932 
    1890    469.70151   -8465.8424   -8413.4465   -13965.821    21914.265    2.5900107 
    1900    475.61979   -8466.5029   -8413.4468   -13338.709    21914.265    2.6092547 
    1910    460.77113   -8464.8444   -8413.4447   -12266.897    21914.265    2.6300063 
    1920    453.29076   -8464.0097   -8413.4444   -11600.031    21914.265    2.6488623 
    1930    455.01355   -8464.2038   -8413.4464   -11532.276    21914.265     2.664581 
    1940    446.57627   -8463.2611   -8413.4448   -11610.068    21914.265    2.6787843 
    1950    442.24787   -8462.7779   -8413.4445    -12067.88    21914.265     2.691974 
    1960    445.34565   -8463.1243   -8413.4453   -12574.104    21914.265    2.7033659 
    1970     445.3849   -8463.1293   -8413.4459   -12683.518    21914.265    2.7130116 
    1980    438.45896   -8462.3558    -8413.445   -12521.804    21914.265    2.7223802 
    1990    435.82997    -8462.062   -8413.4445   -12590.151    21914.265    2.7312795 
    2000    445.20858   -8463.1089   -8413.4452   -13039.215    21914.265    2.7384799 
Loop time of 1340.22 on 16 procs for 2000 steps with 864 atoms

Performance: 0.129 ns/day, 186.142 hours/ns, 1.492 timesteps/s
96.9% CPU use with 16 MPI tasks x 1 OpenMP threads

MPI task timing breakdown:
Section |  min time  |  avg time  |  max time  |%varavg| %total
---------------------------------------------------------------
Pair    | 514.79     | 820.18     | 1323.8     | 803.9 | 61.20
Bond    | 0.0001545  | 0.00038971 | 0.00075555 |   0.0 |  0.00
Neigh   | 0.01788    | 0.030232   | 0.055018   |   6.4 |  0.00
Comm    | 14.822     | 462.71     | 728.87     | 984.6 | 34.53
Output  | 0.84591    | 37.848     | 81.411     | 504.5 |  2.82
Modify  | 0.0098214  | 0.011503   | 0.01552    |   1.3 |  0.00
Other   |            | 19.44      |            |       |  1.45

Nlocal:        54.0000 ave          84 max          36 min
Histogram: 3 3 4 0 0 2 1 0 1 2
Nghost:        477.750 ave         592 max         348 min
Histogram: 2 0 2 1 3 3 1 0 0 4
Neighs:         0.00000 ave           0 max           0 min
Histogram: 16 0 0 0 0 0 0 0 0 0
FullNghs:      2234.12 ave        4892 max        1038 min
Histogram: 5 5 0 0 2 0 2 0 0 2

Total # of neighbors = 35746
Ave neighs/atom = 41.372685
Ave special neighs/atom = 0.0000000
Neighbor list builds = 199
Dangerous builds = 198
unfix   1

velocity    all create 525.0 1312343 dist gaussian
fix     2 all npt temp 525.0 525.0 $(100.0*dt) aniso 0.0 1.01325 $(1000.0*dt)
fix     2 all npt temp 525.0 525.0 0.10000000000000000555 aniso 0.0 1.01325 $(1000.0*dt)
fix     2 all npt temp 525.0 525.0 0.10000000000000000555 aniso 0.0 1.01325 1
run     3000
Per MPI rank memory allocation (min/avg/max) = 8.894 | 8.907 | 8.916 Mbytes
Step Temp PotEng TotEng Press Volume c_msd[4] 
    2000          525   -8463.1089   -8404.5444   -12605.381    21914.265    2.7384799 
    2010    507.39961    -8461.333   -8404.7318   -12365.615    21899.757    2.7368876 
    2020    485.27855   -8459.3508   -8405.2172   -11390.855    21857.086    2.7325483 
    2030    493.19394   -8460.8839   -8405.8674   -10270.815    21788.669    2.7250856 
    2040    497.53961   -8462.0482   -8406.5469   -8445.5969    21697.928    2.7157843 
    2050    502.63614   -8463.2037   -8407.1339   -6420.1366    21590.143    2.7069047 
    2060    512.09489   -8464.6573   -8407.5324    -4171.023    21471.677    2.7010331 
    2070    503.18313   -8463.7775   -8407.6466   -1706.6177    21349.609    2.6985268 
    2080    512.18371   -8464.6052   -8407.4703    330.18572     21231.15    2.6969363 
    2090    528.36099   -8466.0175    -8407.078    1490.8945    21121.954    2.6953289 
    2100     539.0595   -8466.7609    -8406.628    1652.1121    21024.919    2.6939352 
    2110    552.73028   -8467.9024   -8406.2445    1228.4841    20940.195    2.6923714 
    2120     555.7045   -8467.9681   -8405.9784    800.64839    20866.365    2.6916414 
    2130    561.46753   -8468.4774   -8405.8449    53.931626    20801.645    2.6946877 
    2140    564.78958   -8468.8475   -8405.8444   -1060.8397    20743.642    2.7035757 
    2150    564.50466   -8468.9357   -8405.9644   -1702.2697    20689.591    2.7168654 
    2160    567.80806   -8469.5094   -8406.1695   -1566.5627    20637.785    2.7311099 
    2170    568.49862   -8469.8487   -8406.4318   -1071.0738    20587.992    2.7449577 
    2180    565.87802   -8469.8603   -8406.7358   -416.27477    20540.762    2.7586553 
    2190    569.47424   -8470.6056   -8407.0799    50.426077    20496.838    2.7717478 
    2200    576.01718   -8471.7357   -8407.4801     534.2756    20456.642    2.7847609 
    2210    573.86599   -8471.9522   -8407.9365    1084.8107    20420.591    2.7998931 
    2220    575.20292   -8472.6004   -8408.4357    1141.3548    20389.102    2.8164725 
    2230    573.06555   -8472.8846   -8408.9583     1082.516    20361.881    2.8312902 
    2240    574.36473   -8473.5485   -8409.4773    1321.3845    20338.474     2.842714 
    2250    577.18101   -8474.3665   -8409.9811    1829.5753    20319.002    2.8521502 
    2260    570.40896   -8474.0886   -8410.4586    2349.2154    20304.128    2.8629491 
    2270    575.52024   -8475.1308   -8410.9306    2202.0889    20294.421    2.8764757 
    2280    595.23769    -8477.858   -8411.4583    1519.1224    20289.356    2.8919076 
    2290    583.52103   -8477.1598   -8412.0672    1076.3696    20287.493    2.9082788 
    2300     556.3278   -8474.7543   -8412.6951    1347.8787    20287.926    2.9246806 
    2310    552.49515   -8474.9143   -8413.2826    1356.4744    20290.884    2.9419846 
    2320    567.30634   -8477.1348   -8413.8509    1016.1262    20296.261    2.9633818 
    2330    569.57743   -8477.9674   -8414.4301    1180.5329    20303.504    2.9891241 
    2340    565.27744   -8478.0897   -8415.0322    1305.9069    20312.779    3.0169899 
    2350    574.58725   -8479.7696   -8415.6735    761.33454    20324.143    3.0449771 
    2360    580.70403   -8481.1446   -8416.3662    188.21333    20336.584    3.0725096 
    2370    574.22394   -8481.1462   -8417.0907   -163.65242    20348.988    3.1017124 
    2380     573.0124   -8481.7439   -8417.8235   -329.03714    20360.687    3.1333482 
    2390    568.84619   -8482.0034   -8418.5478   -184.59594    20371.393    3.1657581 
    2400    567.11881   -8482.5179   -8419.2549    199.14968    20381.401    3.1977384 
    2410    561.89215   -8482.6328   -8419.9529    506.09028    20391.432    3.2306615 
    2420    546.12856   -8481.5369   -8420.6155    760.40403    20402.116    3.2654125 
    2430    554.75849   -8483.1307   -8421.2465    407.51577    20413.809     3.299555 
    2440    571.96601   -8485.6863   -8421.8827   -379.98662    20425.834     3.331153 
    2450    577.96741   -8487.0275   -8422.5543   -1220.3261    20436.689    3.3605659 
    2460    567.65004   -8486.5773   -8423.2551    -1650.379    20444.844    3.3883395 
    2470    554.29305   -8485.7944   -8423.9622   -1732.2246    20449.534    3.4154806 
    2480    550.06248   -8486.0195   -8424.6592   -1853.5111    20450.637    3.4437763 
    2490    554.85866   -8487.2468   -8425.3515   -1885.3094    20448.081    3.4737198 
    2500    550.70718   -8487.4742    -8426.042   -1556.7468     20441.99    3.5038114 
    2510    535.90359   -8486.4716   -8426.6907    -876.1697    20433.148    3.5335314 
    2520    541.92943   -8487.7306   -8427.2775   -748.71745     20422.81     3.563858 
    2530    544.70719   -8488.5903   -8427.8274   -523.79424     20411.44    3.5948486 
    2540    535.59938   -8488.0947   -8428.3478    75.440088    20399.572    3.6242594 
    2550     537.7595   -8488.8437   -8428.8559    548.60088    20388.289    3.6500966 
    2560    532.45267   -8488.7469    -8429.351    1349.3713    20378.633    3.6726902 
    2570    531.56189   -8489.1292   -8429.8327    2044.1993    20371.983    3.6940437 
    2580    538.14613   -8490.3341   -8430.3031    2453.5047    20369.549     3.717604 
    2590    550.78892   -8492.2268   -8430.7855    2342.5795    20371.887    3.7457599 
    2600    552.53981   -8492.9384   -8431.3017    2000.3785    20378.647    3.7791534 
    2610    539.28127   -8491.9912   -8431.8336    1720.6397    20389.046    3.8160755 
    2620    533.51894   -8491.8655   -8432.3507    1576.6284    20402.423    3.8543454 
    2630    545.57834   -8493.7188   -8432.8587    1042.6221    20418.308    3.8925554 
    2640    551.81078   -8494.9379   -8433.3826    477.62751    20435.617    3.9298919 
    2650    539.50993    -8494.104   -8433.9209    475.29535    20453.307    3.9665303 
    2660    525.91675   -8493.0995   -8434.4327   -71.679527    20471.146    4.0012645 
    2670    536.16988   -8494.7145   -8434.9039   -1334.2147    20488.035    4.0318782 
    2680    533.67714   -8494.8848   -8435.3523   -1903.1522    20501.797    4.0584993 
    2690    521.12959   -8493.9093   -8435.7765   -1848.6011     20511.39    4.0819465 
    2700    525.01758    -8494.744   -8436.1775   -1702.1083    20516.999    4.1035159 
    2710    532.03709   -8495.9155   -8436.5659   -1558.7085     20519.04    4.1257524 
    2720     548.6635   -8498.1686   -8436.9644   -1404.1585    20517.921    4.1494799 
    2730    561.64599   -8500.0663   -8437.4138   -1036.8012    20514.081    4.1744744 
    2740    556.58275   -8500.0113   -8437.9236   -77.633898     20508.44     4.199831 
    2750    549.39284   -8499.7571   -8438.4715    875.82133     20502.84    4.2232378 
    2760    549.71235   -8500.3575   -8439.0363     1335.065    20499.076    4.2436998 
    2770    544.67206    -8500.372    -8439.613    1881.1679    20498.103    4.2632945 
    2780     519.4164   -8498.0977    -8440.156    2824.8085    20500.944    4.2850946 
    2790     512.1317   -8497.7683   -8440.6392    3375.3713    20509.219    4.3115721 
    2800    520.34023   -8499.1226   -8441.0778    2943.0168    20523.744    4.3419777 
    2810    520.91938    -8499.592   -8441.4827    2014.7822    20543.583    4.3749262 
    2820    532.51459   -8501.2679   -8441.8651    882.58041    20566.791    4.4125756 
    2830    536.92698   -8502.1438   -8442.2488     1.574119    20591.099    4.4571503 
    2840    526.96486   -8501.4207    -8442.637   -771.37992    20614.679    4.5079667 
    2850    523.45734   -8501.4162   -8443.0237   -1702.2606    20635.936    4.5621648 
    2860    507.88086   -8500.0417   -8443.3868   -2074.8965    20653.209    4.6179334 
    2870     497.7922     -8499.23   -8443.7006   -2101.1064    20665.804    4.6738213 
    2880    501.26823   -8499.8611   -8443.9439   -2070.4387    20673.772    4.7267182 
    2890    512.92172   -8501.3355   -8444.1183   -1903.5262    20677.347    4.7739607 
    2900    525.51642   -8502.8724   -8444.2502   -1581.1252     20677.01    4.8160243 
    2910    530.08058   -8503.4995   -8444.3682    -1078.213    20673.539    4.8552461 
    2920     528.3501   -8503.4274   -8444.4892   -400.14743    20668.066     4.892379 
    2930    531.07799   -8503.8638   -8444.6213    284.40826    20662.001    4.9250438 
    2940     539.2617   -8504.9294    -8444.774    715.57122    20656.698    4.9548749 
    2950    543.49332   -8505.5912   -8444.9637    867.41176     20652.99    4.9850859 
    2960    537.73202   -8505.1737   -8445.1889    727.60769     20651.13     5.017959 
    2970    547.59339   -8506.5464   -8445.4615    201.35477    20650.705    5.0532172 
    2980    534.87706   -8505.4561   -8445.7898    358.57523    20650.847    5.0906298 
    2990    524.76889   -8504.6919   -8446.1531     511.0963    20651.712    5.1318771 
    3000    542.55178   -8507.0752   -8446.5527   -68.908049    20653.413     5.178934 
    3010     538.8272   -8507.0883   -8446.9813   -482.69393    20654.951     5.231503 
    3020    527.71062   -8506.2777   -8447.4108   -920.72638    20655.441    5.2858136 
    3030    522.33073   -8506.0782   -8447.8115   -1185.4732    20654.116    5.3355303 
    3040     519.9611   -8506.1656   -8448.1631    -1174.636    20650.536     5.375512 
    3050     529.3919   -8507.5336   -8448.4791   -1122.7948    20644.748    5.4055894 
    3060    525.00684   -8507.3424   -8448.7771   -780.03663    20637.011    5.4296776 
    3070    513.71672   -8506.3583   -8449.0524    -396.4468    20628.037    5.4516986 
    3080    513.11062   -8506.5415   -8449.3032   -9.4663609     20618.65    5.4754697 
    3090     510.8704   -8506.5137   -8449.5253    250.31998    20609.599    5.5052446 
    3100    519.15051   -8507.6373   -8449.7253    230.76184    20601.364    5.5438041 
    3110    526.94285   -8508.6958   -8449.9145   -34.822241    20593.867    5.5876355 
    3120    529.54469   -8509.1672   -8450.0957   -134.78535    20586.644    5.6273821 
    3130    533.78304   -8509.8196   -8450.2753   -277.60604     20579.43    5.6580017 
    3140    529.26589   -8509.5014    -8450.461   -310.61258    20571.986    5.6807232 
    3150    520.93029   -8508.7517   -8450.6412   -216.01735    20564.253    5.6985101 
    3160    532.36556   -8510.2017   -8450.8155   -552.85561    20556.309    5.7128413 
    3170    548.62544   -8512.2201   -8451.0201   -1057.6179    20547.569    5.7234586 
    3180     540.3078   -8511.5566   -8451.2844   -1351.0801    20537.115      5.72932 
    3190    527.36772    -8510.422   -8451.5933   -1560.0229    20524.377    5.7288238 
    3200    535.55605   -8511.6708   -8451.9288   -1684.7846    20509.038    5.7218594 
    3210    538.55269   -8512.3672   -8452.2909   -1456.5158    20491.008    5.7106594 
    3220    520.48912   -8510.7113   -8452.6499   -958.44351    20470.824    5.6973169 
    3230    524.50068   -8511.4946   -8452.9858   -1271.3009    20449.312    5.6816492 
    3240    536.08377   -8513.1279   -8453.3269   -1922.2311    20426.036    5.6621698 
    3250    528.47742   -8512.6298   -8453.6774    -1851.467    20399.995    5.6393915 
    3260    531.19239   -8513.2807   -8454.0254   -1144.5912    20371.379    5.6166462 
    3270    528.51313   -8513.3088   -8454.3524   -34.008005    20341.658    5.5966073 
    3280    534.40862   -8514.2746   -8454.6605     955.5712    20312.948    5.5800837 
    3290    539.91479    -8515.201   -8454.9727    1901.7279    20287.171     5.567863 
    3300    531.01643   -8514.5246   -8455.2889     2846.208    20266.035    5.5604974 
    3310    539.53525    -8515.785    -8455.599    3053.3351    20251.055    5.5571813 
    3320    552.37534   -8517.5368   -8455.9185    2547.5308    20242.401    5.5581324 
    3330    546.68089   -8517.2402   -8456.2571    2061.3481    20238.973    5.5642802 
    3340    541.63466   -8517.0145   -8456.5944    1305.4699    20239.579    5.5752287 
    3350     539.3984    -8517.093   -8456.9223    639.61291    20242.683    5.5893445 
    3360    517.83668   -8514.9787   -8457.2133    387.62286    20246.983    5.6049044 
    3370    519.64505   -8515.4088   -8457.4416   -151.37924    20251.823    5.6205217 
    3380     535.4057   -8517.3588   -8457.6334   -636.22201    20256.206    5.6378291 
    3390      519.488   -8515.7557    -8457.806   -380.52135    20259.359    5.6591292 
    3400     517.8832   -8515.7273   -8457.9566   -277.55025    20261.629    5.6811345 
    3410    532.71028   -8517.5105   -8458.0859    -509.3462    20263.238    5.6993376 
    3420    537.56935   -8518.1818   -8458.2152   -725.49348    20263.816    5.7147415 
    3430    539.05345   -8518.4968   -8458.3646    -548.6701    20263.039    5.7291266 
    3440    540.63332   -8518.8455    -8458.537   -464.94448    20261.197    5.7443923 
    3450    540.79821   -8519.0615   -8458.7347   -487.34743    20258.477    5.7610264 
    3460     534.5665   -8518.5809   -8458.9492   -146.81433    20254.993    5.7787271 
    3470    538.50098   -8519.2416    -8459.171   -3.9295033    20251.343    5.7981912 
    3480    559.45889   -8521.8349   -8459.4264   -481.87333    20247.705    5.8192295 
    3490    560.45634   -8522.2757   -8459.7559   -759.27776     20243.31    5.8408639 
    3500    528.44321   -8519.0764   -8460.1278   -380.90867    20237.731    5.8638439 
    3510    526.31306   -8519.2014   -8460.4904   -207.60557    20231.564    5.8889437 
    3520    550.98681   -8522.3242   -8460.8608   -295.69514    20225.144     5.914449 
    3530    551.61866   -8522.7952   -8461.2613    354.47033      20218.5    5.9416819 
    3540    538.30482   -8521.7193   -8461.6706    1227.8112     20212.81    5.9746328 
    3550     522.5353   -8520.3415   -8462.0519    1502.2658    20209.577    6.0154851 
    3560    518.44266    -8520.204    -8462.371    1210.7231    20209.267    6.0641729 
    3570    541.09776   -8523.0058   -8462.6456    491.82166    20211.218    6.1181029 
    3580    543.63681   -8523.5534   -8462.9099    209.58771    20214.121    6.1734363 
    3590    527.27959   -8521.9795   -8463.1606    453.25321    20217.441     6.226238 
    3600    530.09546   -8522.5189   -8463.3859    191.38732    20221.425    6.2750953 
    3610    527.55881   -8522.4374   -8463.5874   -103.27037    20225.659    6.3226582 
    3620    521.81923   -8521.9707    -8463.761   -485.15388    20229.537    6.3707767 
    3630    531.24118   -8523.1767   -8463.9159   -1298.6142    20232.261    6.4178295 
    3640    525.56247   -8522.6919   -8464.0646   -1994.8467    20232.421    6.4614772 
    3650    519.95551   -8522.2131   -8464.2113   -2429.5566    20228.797    6.4984256 
    3660    525.07542   -8522.9274   -8464.3545   -2473.1219    20220.702    6.5262917 
    3670    534.58264   -8524.1353   -8464.5018   -2074.1106    20208.233    6.5478902 
    3680    549.86017   -8526.0117    -8464.674   -1656.1178    20192.199    6.5674929 
    3690    559.94584   -8527.3596   -8464.8968   -736.94017    20173.638    6.5847057 
    3700    548.08941   -8526.3125   -8465.1723    537.21145    20154.358    6.5972421 
    3710    531.33791   -8524.7322   -8465.4607    1651.1108    20136.751    6.6053912 
    3720    542.83686   -8526.3054   -8465.7511    2201.2818    20122.792    6.6132927 
    3730    553.88164   -8527.8576   -8466.0713      2856.14    20113.513    6.6252513 
    3740    542.41799    -8526.938   -8466.4305    3945.5576    20110.074    6.6437657 
    3750    538.83839   -8526.9204   -8466.8121    4607.5816    20114.211    6.6718757 
    3760    550.49786   -8528.6368   -8467.2279    4288.9765     20126.82    6.7115057 
    3770    530.79662   -8526.8774   -8467.6662    4185.4827    20147.317    6.7643859 
    3780    512.91383   -8525.2877   -8468.0714    3364.7178    20175.107    6.8303891 
    3790    524.73025   -8526.9349   -8468.4004    1502.8025    20208.356    6.9080243 
    3800    539.25791   -8528.8111   -8468.6561   -346.75743    20243.497    6.9947985 
    3810     547.2036   -8529.9206   -8468.8792   -1244.2756    20277.055     7.084226 
    3820    546.12794   -8530.0283   -8469.1069   -1622.7482    20307.241    7.1701341 
    3830    538.87455   -8529.4517   -8469.3395   -2188.2606    20333.321    7.2468738 
    3840    527.02086   -8528.3543   -8469.5644   -2483.8982    20354.383    7.3104835 
    3850    516.87715   -8527.4239   -8469.7655   -2269.9071    20370.021    7.3631923 
    3860    527.89171   -8528.8303   -8469.9431   -1952.4483     20380.75    7.4111511 
    3870    541.75967   -8530.5532   -8470.1191   -1373.2981    20387.392    7.4589753 
    3880    539.59056   -8530.5122   -8470.3201   -337.34613    20391.228    7.5066762 
    3890    511.08126   -8527.5331   -8470.5212    943.88036    20394.339    7.5537964 
    3900    509.67129   -8527.5449   -8470.6903    1590.0043    20399.105    7.6013663 
    3910    532.50988   -8530.2384   -8470.8362    1395.0143    20406.692    7.6524945 
    3920    527.97742   -8529.8817   -8470.9851    1160.7494    20416.807    7.7114621 
    3930    516.89436   -8528.7933   -8471.1329    697.58556    20428.875    7.7795787 
    3940    527.48763   -8530.1069   -8471.2649   -230.66264    20441.873     7.853379 
    3950    521.37641   -8529.5461   -8471.3858   -823.56861    20454.106    7.9272171 
    3960    501.77151   -8527.4622   -8471.4889   -1148.0538      20464.4    7.9978936 
    3970    497.01552   -8526.9851   -8471.5423   -1185.8001    20472.185    8.0666435 
    3980    503.96412   -8527.7478   -8471.5298   -1286.6436    20477.389    8.1354528 
    3990     523.6137   -8529.8736   -8471.4637   -1844.7836    20479.833    8.2031878 
    4000    548.63745      -8532.6   -8471.3987   -2382.0528    20478.564    8.2653667 
    4010    546.04229   -8532.2919   -8471.3801   -2178.1242    20472.766    8.3186244 
    4020    536.58532   -8531.2664   -8471.4095    -1729.889     20462.89    8.3610553 
    4030    529.30882   -8530.5072    -8471.462   -1570.2415    20449.859     8.390561 
    4040    531.13098   -8530.7842   -8471.5357   -1506.8677    20434.115    8.4064156 
    4050     528.9474   -8530.6347   -8471.6299   -1129.9831    20415.946    8.4117967 
    4060    534.77544   -8531.4034   -8471.7484   -857.58887    20396.066    8.4107559 
    4070    540.12783   -8532.1557   -8471.9036    -476.8287    20375.127    8.4065116 
    4080    532.46371   -8531.5015   -8472.1044    9.0030109    20353.883    8.4031372 
    4090    521.64402   -8530.5222    -8472.332    607.63727    20333.343    8.4038554 
    4100      535.722   -8532.3544   -8472.5938    532.53966    20314.484    8.4106838 
    4110    550.19923   -8534.3148   -8472.9393    98.790428    20297.158    8.4260501 
    4120    539.94899   -8533.6216   -8473.3895   -242.37206    20280.579    8.4508139 
    4130    544.41046   -8534.6741   -8473.9443   -797.26161     20263.96    8.4838063 
    4140    540.91254   -8534.9221   -8474.5825   -930.39794    20246.356    8.5199042 
    4150    528.76926   -8534.2256   -8475.2406   -1051.7524    20227.471    8.5535756 
    4160    543.59886   -8536.5396   -8475.9004   -1834.5077    20206.975       8.5833 
    4170    550.99106   -8538.0233   -8476.5594    -1977.677    20183.692    8.6079005 
    4180    537.46639   -8537.1158   -8477.1606   -1176.9706    20157.495    8.6264074 
    4190    532.51668   -8537.0509   -8477.6479    -18.54904    20129.892    8.6409762 
    4200    519.72596   -8535.9747   -8477.9985    1442.4264    20103.168    8.6555551 
    4210     509.0473   -8534.9922   -8478.2072    2618.8038     20080.01    8.6725747 
    4220    541.05315   -8538.7126   -8478.3573    2600.1684    20062.334    8.6932352 
    4230     543.9675   -8539.1991   -8478.5188    2454.7836    20050.136    8.7183725 
    4240    526.92343   -8537.4789   -8478.6998    2173.4824    20042.933     8.747745 
    4250    516.30192    -8536.464   -8478.8697    1818.5039     20040.04    8.7797026 
    4260    514.93975   -8536.4557   -8479.0134    1730.5259    20040.708    8.8135642 
    4270    519.26641   -8537.0625   -8479.1375    1567.5724    20044.617    8.8514565 
    4280    517.13281   -8536.9305   -8479.2436    1252.9794    20051.397    8.8978953 
    4290    528.27112   -8538.2632   -8479.3338    620.13353    20060.303    8.9554663 
    4300    540.88685   -8539.7746   -8479.4378    397.99635    20070.198    9.0238094 
    4310    517.12846   -8537.2523   -8479.5658    719.67451    20080.696    9.1016932 
    4320    514.49019   -8537.0807   -8479.6885    -34.15815    20092.079    9.1853566 
    4330    522.40321   -8538.0583   -8479.7835    -1539.198    20102.962    9.2671343 
    4340    522.20556    -8538.121   -8479.8681   -2767.8789    20110.661    9.3408814 
    4350    531.62192   -8539.2712   -8479.9679   -3226.6646    20112.998    9.4062509 
    4360    529.09362   -8539.1059   -8480.0847     -2848.22    20109.274    9.4683056 
    4370    529.74844   -8539.3021   -8480.2079   -2137.2373    20100.293    9.5307264 
    4380    538.82084   -8540.4424   -8480.3361   -1500.8325    20087.497    9.5943998 
    4390    553.09592   -8542.1935   -8480.4948   -1294.5355    20072.116    9.6569263 
    4400    564.47417   -8543.6962   -8480.7283   -1013.2331    20054.743    9.7147768 
    4410    562.17448   -8543.7747   -8481.0633   -453.89637    20036.052    9.7691586 
    4420    558.96237   -8543.8471    -8481.494   -129.56361    20017.035    9.8225313 
    4430    557.61098   -8544.2161   -8482.0138    197.09246    19998.394    9.8776698 
    4440    543.40499   -8543.1977   -8482.5801    628.42385    19980.741    9.9389108 
    4450    547.52271    -8544.226    -8483.149    963.63593     19964.82    10.007966 
    4460    560.16177   -8546.2117   -8483.7248    1294.0936    19951.232    10.085662 
    4470    549.20903   -8545.5551     -8484.29    1750.8348    19940.544    10.171392 
    4480    546.82062   -8545.8146   -8484.8159     1779.009    19933.423    10.265338 
    4490    552.50086   -8546.9252   -8485.2929     1459.623    19929.804    10.366708 
    4500    549.31104   -8547.0023   -8485.7259    1265.4272    19929.067    10.470468 
    4510    553.90508   -8547.9247   -8486.1357     902.3498    19930.699    10.571506 
    4520    554.56681   -8548.4036   -8486.5408    593.07443    19933.996    10.670384 
    4530    540.69091   -8547.2479    -8486.933    158.50194    19938.278    10.770241 
    4540    526.54166   -8546.0295    -8487.293   -444.00005    19942.684    10.870635 
    4550    520.62799   -8545.6858    -8487.609   -698.47811    19946.182    10.966853 
    4560    527.13377   -8546.6905    -8487.888   -751.19906    19948.286    11.053015 
    4570    531.65596   -8547.4547   -8488.1477    -453.2166    19948.975    11.127982 
    4580    534.76627   -8548.0617   -8488.4077    289.94303    19948.882    11.198114 
    4590    539.41299   -8548.8523   -8488.6799    700.71833    19949.287    11.270872 
    4600    548.32941   -8550.1529   -8488.9859    629.98056    19950.947    11.348212 
    4610    548.16898   -8550.4938   -8489.3448    92.130424    19953.661    11.431636 
    4620    537.09552   -8549.6595   -8489.7457   -82.341388     19956.55    11.521319 
    4630    531.64694   -8549.4565   -8490.1504     101.9279    19959.289    11.614598 
    4640    539.77869   -8550.7522   -8490.5391    108.29634    19962.126    11.710006 
    4650     546.1163     -8551.86   -8490.9399   -286.08813    19965.005     11.81005 
    4660    532.32197   -8550.7386   -8491.3572   -429.66686    19967.318     11.92127 
    4670    522.26539   -8550.0207   -8491.7612   -293.45447    19968.805    12.044645 
    4680    517.61393   -8549.8604   -8492.1198   -79.604383    19969.724    12.170782 
    4690    524.10102   -8550.8861   -8492.4219   -347.07472    19970.378    12.288686 
    4700    547.22831   -8553.7584   -8492.7143   -972.34513     19970.28    12.392458 
    4710    541.58004   -8553.4394   -8493.0253   -1046.8581     19968.49    12.481547 
    4720    536.81779    -8553.233   -8493.3502   -1625.9842    19964.685    12.554359 
    4730     546.1037   -8554.6085   -8493.6898   -2704.6313     19957.86    12.607471 
    4740    564.11844   -8557.0053    -8494.077   -3664.7628    19946.211    12.639534 
    4750    577.38275    -8558.975   -8494.5671   -4212.2841    19928.157     12.65072 
    4760    575.98113     -8559.42   -8495.1685   -3803.0546    19903.002    12.641962 
    4770    571.45483   -8559.5832   -8495.8365   -2759.5388    19871.707    12.616395 
    4780    557.40925   -8558.6765   -8496.4967    -1135.952    19836.481    12.579403 
    4790    541.14269   -8557.4427   -8497.0774    174.44843    19800.334     12.53844 
    4800    544.61538   -8558.3251   -8497.5724    570.97203      19765.6    12.497259 
    4810    559.92579    -8560.492   -8498.0314    930.03294    19733.136    12.454732 
    4820    559.15605   -8560.8507    -8498.476    1606.3601    19703.598    12.411515 
    4830    558.93409   -8561.2753   -8498.9253    1519.2251    19677.904    12.372516 
    4840    554.18232   -8561.2068    -8499.387    1045.7437    19655.848     12.34407 
    4850    545.99995   -8560.7608   -8499.8537     723.5597      19636.5    12.328833 
    4860    539.15322    -8560.445   -8500.3017    449.34887    19619.127    12.328707 
    4870    552.05342   -8562.3265   -8500.7442    248.79081    19603.179    12.341959 
    4880    559.95624   -8563.6722   -8501.2082    430.71936    19588.299    12.361031 
    4890    559.44251   -8564.1114   -8501.7047    502.38147    19574.643     12.37859 
    4900    563.10479   -8565.0543   -8502.2391    287.57903    19562.279    12.394398 
    4910     561.2547   -8565.4132   -8502.8044    110.41041    19550.855       12.414 
    4920    569.79853   -8566.9557   -8503.3938   -249.31529    19539.978    12.443011 
    4930    576.92442   -8568.3873   -8504.0305   -368.76015    19529.042    12.483631 
    4940    551.58152   -8566.1958   -8504.6661    -148.4902     19517.87    12.534836 
    4950    558.93566   -8567.6266   -8505.2765   -976.72929    19506.612    12.588458 
    4960    570.97256    -8569.597   -8505.9042    -2001.937      19493.9    12.631783 
    4970    556.74709   -8568.6375   -8506.5315   -1679.1399     19478.25      12.6577 
    4980    565.49034   -8570.2286   -8507.1473   -1061.9456    19460.114    12.666764 
    4990    565.62725   -8570.8633   -8507.7667   -221.52846    19440.673    12.665589 
    5000    559.34739   -8570.7754   -8508.3794    529.97463    19421.437    12.663116 
Loop time of 2112.53 on 16 procs for 3000 steps with 864 atoms

Performance: 0.123 ns/day, 195.604 hours/ns, 1.420 timesteps/s
95.9% CPU use with 16 MPI tasks x 1 OpenMP threads

MPI task timing breakdown:
Section |  min time  |  avg time  |  max time  |%varavg| %total
---------------------------------------------------------------
Pair    | 772.78     | 1391.4     | 2075.3     |1034.3 | 65.86
Bond    | 0.0002296  | 0.00073242 | 0.0020099  |   0.0 |  0.00
Neigh   | 0.028552   | 0.046839   | 0.085722   |   8.7 |  0.00
Comm    | 32.789     | 450.2      | 991.84     |1470.7 | 21.31
Output  | 0.20933    | 0.22214    | 0.41142    |  10.4 |  0.01
Modify  | 4.0643     | 270.69     | 716.72     |1438.8 | 12.81
Other   |            | 0.0166     |            |       |  0.00

Nlocal:        54.0000 ave          86 max          37 min
Histogram: 5 3 2 0 0 2 2 0 0 2
Nghost:        506.500 ave         659 max         368 min
Histogram: 3 1 0 2 4 0 2 1 1 2
Neighs:         0.00000 ave           0 max           0 min
Histogram: 16 0 0 0 0 0 0 0 0 0
FullNghs:      2586.12 ave        5682 max        1144 min
Histogram: 6 4 0 0 0 4 0 0 0 2

Total # of neighbors = 41378
Ave neighs/atom = 47.891204
Ave special neighs/atom = 0.0000000
Neighbor list builds = 300
Dangerous builds = 300
unfix   2

fix     3 all npt temp 525.0 525.0 $(100.0*dt) aniso 1.01325 1.01325 $(1000.0*dt)
fix     3 all npt temp 525.0 525.0 0.10000000000000000555 aniso 1.01325 1.01325 $(1000.0*dt)
fix     3 all npt temp 525.0 525.0 0.10000000000000000555 aniso 1.01325 1.01325 1
run     20000
Per MPI rank memory allocation (min/avg/max) = 8.899 | 8.909 | 8.922 Mbytes
Step Temp PotEng TotEng Press Volume c_msd[4] 
    5000    559.34739   -8570.7754   -8508.3794    529.97463    19421.437    12.663116 
    5010    566.50842   -8571.6212   -8508.4263    15.374537    19421.803     12.67672 
    5020    564.89387   -8571.5822   -8508.5675   -592.95471    19422.213    12.700205 
    5030    574.56548   -8572.9124   -8508.8187   -1327.1752    19421.541    12.731922 
    5040    570.57421   -8572.8489   -8509.2005   -1704.5812     19418.54    12.768451 
    5050    557.11119    -8571.839   -8509.6924   -1574.7867    19412.545    12.805974 
    5060     564.5917   -8573.2472   -8510.2662   -1265.1352    19403.732    12.839637 
    5070    560.86519   -8573.4596   -8510.8943   -756.52118    19392.654    12.867756 
    5080    553.83119   -8573.3094   -8511.5287   -287.02982    19380.183    12.896452 
    5090    547.21787   -8573.1755   -8512.1325     325.0385     19367.22    12.933188 
    5100    530.07318   -8571.7664   -8512.6359    923.93077    19354.845    12.978313 
    5110    549.92597   -8574.3858   -8513.0407    871.18352    19344.039    13.027281 
    5120    567.95367   -8576.7545   -8513.3984    481.50304    19334.763     13.07846 
    5130    564.93638   -8576.7727   -8513.7532    361.57115    19326.411    13.133326 
    5140    551.77061   -8575.6618    -8514.111    427.70069     19318.75    13.192191 
    5150    546.57844   -8575.4295   -8514.4579    419.62565    19311.869    13.251862 
    5160    570.55619    -8578.472   -8514.8256   -21.082252    19305.674    13.310537 
    5170    583.85789   -8580.4019   -8515.2717    157.48233    19299.582    13.369226 
    5180    560.17521   -8578.2684     -8515.78    1168.8882    19293.956    13.432499 
    5190    549.43097   -8577.5874   -8516.2976    1831.9188    19290.374    13.505325 
    5200    557.86395   -8579.0448   -8516.8142    1647.0233    19289.912     13.58986 
    5210    564.58169   -8580.3269   -8517.3469    991.78121      19292.3    13.683926 
    5220    562.08466   -8580.5974    -8517.896    289.29992    19296.447    13.783296 
    5230    560.84394   -8581.0191   -8518.4562   -254.83519    19301.107    13.883569 
    5240     561.5675   -8581.6587    -8519.015    -287.2651    19305.398    13.979903 
    5250    565.73439   -8582.7028   -8519.5943   -309.48878    19309.149    14.068595 
    5260     544.4614   -8580.9065    -8520.171    52.079783    19312.449    14.149369 
    5270    549.47907   -8582.0178   -8520.7226    -436.3612    19315.689    14.224628 
    5280    560.00824   -8583.7481   -8521.2783   -655.04962    19318.207    14.296619 
    5290    547.20905    -8582.868    -8521.826   -424.76407    19319.644     14.36772 
    5300     559.1548   -8584.7432   -8522.3687   -662.94511    19320.229    14.438972 
    5310    562.20208   -8585.6322   -8522.9177   -738.98081    19319.657     14.50583 
    5320    558.15166   -8585.7443   -8523.4816   -179.06904    19317.892    14.567731 
    5330    552.47517   -8585.6828   -8524.0534    656.63922    19315.855    14.632164 
    5340    537.24361   -8584.5369   -8524.6065    1255.0176    19314.965    14.705196 
    5350    533.45206   -8584.6268   -8525.1194    1002.1673    19316.179     14.78775 
    5360    531.11322   -8584.8427   -8525.5962    522.39301    19319.146    14.875353 
    5370    523.79294   -8584.4628    -8526.033    318.65784    19323.084     14.96328 
    5380    530.63382   -8585.6275   -8526.4345   -148.87688    19327.544      15.0514 
    5390    540.56892   -8587.1237   -8526.8224   -788.17613    19331.711     15.14137 
    5400    536.06757   -8587.0135   -8527.2144   -1165.7841    19334.512    15.229473 
    5410    539.25297   -8587.7666   -8527.6121    -1513.821    19335.231    15.310403 
    5420    551.47986   -8589.5574    -8528.039   -1594.3014    19333.304    15.382244 
    5430    544.39323   -8589.2138   -8528.4859   -1245.3668    19328.617    15.445633 
    5440    546.22313   -8589.8695   -8528.9375   -1088.1059    19321.693    15.500409 
    5450     554.0371   -8591.2088   -8529.4051   -1244.6943    19312.796     15.54066 
    5460    560.09542   -8592.4049   -8529.9254    -1054.264    19301.771    15.560768 
    5470     540.0117   -8590.7148   -8530.4757     -53.7043    19289.038    15.564957 
    5480    525.90695   -8589.6522   -8530.9865    1125.6094     19276.29    15.561748 
    5490    543.12371   -8592.0512   -8531.4649     1433.218    19265.446    15.559492 
    5500    542.40486   -8592.4482   -8531.9421    1206.9049    19257.107    15.562665 
    5510     537.7222   -8592.3943   -8532.4105    572.94446    19250.884    15.566492 
    5520    541.46969    -8593.282   -8532.8802    51.833997    19245.724    15.558924 
    5530    512.50743   -8590.4823   -8533.3114   -12.761904    19240.749    15.533561 
    5540    517.05838   -8591.3587     -8533.68   -697.57806    19235.674    15.496549 
    5550    536.49296   -8593.8692   -8534.0226   -1843.1999    19229.301    15.457251 
    5560    521.51521   -8592.5241   -8534.3483   -2091.7506    19219.837    15.423989 
    5570    524.09347   -8593.1197   -8534.6563   -1914.2555    19206.753    15.401458 
    5580    527.75677   -8593.8294   -8534.9574   -1485.8324    19190.375    15.388366 
    5590    526.76274   -8594.0189   -8535.2577   -1034.1423    19171.436    15.380589 
    5600     540.5028   -8595.8678   -8535.5739   -786.24214     19150.71    15.374937 
    5610    536.82075   -8595.7899   -8535.9068   -489.95638    19128.705    15.372144 
    5620    533.56199   -8595.7687    -8536.249   -372.26314    19105.887    15.374087 
    5630    525.10232   -8595.1699    -8536.594    35.376514     19082.56    15.379418 
    5640    508.61034   -8593.6373    -8536.901    796.89518    19059.478    15.384787 
    5650    517.10505   -8594.8425   -8537.1587    1042.2746    19037.774     15.38808 
    5660    522.62334   -8595.6743   -8537.3748    1559.0667     19018.07     15.39113 
    5670    542.73897   -8598.1337   -8537.5903    1485.0636    19001.068    15.399029 
    5680    554.58172   -8599.7223   -8537.8578       1239.2    18986.699    15.412355 
    5690    538.68205   -8598.2682   -8538.1774    1370.5781    18974.627    15.421969 
    5700    543.21702   -8599.1322   -8538.5355    1357.1128    18964.955    15.422274 
    5710    541.07965   -8599.2841   -8538.9259    1706.7019    18957.709    15.416258 
    5720    523.53817   -8597.7196   -8539.3182    2383.8319    18953.498    15.409436 
    5730     535.0652   -8599.3906   -8539.7032    2141.2197    18953.245    15.411295 
    5740    549.35207   -8601.3895   -8540.1084    1823.5997    18956.672    15.433169 
    5750    540.84114   -8600.8666    -8540.535    1531.0639    18963.224    15.479775 
    5760    533.72058   -8600.4951   -8540.9578    1140.0503    18972.379     15.54369 
    5770     520.9322   -8599.4502   -8541.3394     801.5295    18983.484    15.611751 
    5780    524.70254   -8600.2149   -8541.6835    256.94571     18995.89    15.672758 
    5790    516.40959   -8599.5945   -8541.9882    131.78114    19008.786    15.718966 
    5800    520.62623    -8600.334   -8542.2574    -18.63278    19021.898    15.748561 
    5810    537.38483    -8602.459   -8542.5129   -863.52177    19034.842     15.76726 
    5820    529.70568   -8601.8572   -8542.7677   -1644.4809    19046.284    15.781993 
    5830    524.47001   -8601.5194    -8543.014   -2421.8951    19054.857    15.796365 
    5840    525.54152     -8601.87    -8543.245   -2793.5212    19059.277     15.80861 
    5850    519.56474   -8601.4159   -8543.4577   -2176.0372    19059.021    15.813302 
    5860    523.85176   -8602.0916   -8543.6551   -1736.5247    19054.953    15.807738 
    5870    531.60304   -8603.1539   -8543.8528   -2047.0225    19047.752    15.795116 
    5880    529.76583   -8603.1649   -8544.0687   -2505.6832    19036.988     15.77784 
    5890     528.8906   -8603.3022   -8544.3036   -2567.5059     19021.98    15.757533 
    5900    534.79111   -8604.2204   -8544.5636   -2363.1088    19002.633    15.738161 
    5910    526.27695   -8603.5462   -8544.8392    -2058.231    18979.281    15.722437 
    5920    528.60686   -8604.0812   -8545.1143    -1381.685    18952.531    15.709985 
    5930    537.93002    -8605.385   -8545.3781   -170.94573    18923.618    15.702274 
    5940    542.57958   -8606.1639   -8545.6383    1211.2032    18894.574    15.700962 
    5950    528.06233   -8604.7993   -8545.8932    2357.0602    18867.724    15.704767 
    5960    516.69864   -8603.7662   -8546.1276    2572.7041    18844.903    15.711953 
    5970    537.86323   -8606.3662   -8546.3667    1800.9666    18826.446    15.721163 
    5980    553.23159   -8608.3708    -8546.657      1121.86    18811.187    15.726351 
    5990    544.09466   -8607.7005   -8547.0059    838.39696     18797.99    15.721256 
    6000    543.24082   -8607.9865   -8547.3871    656.26873    18786.301    15.704209 
    6010    548.64111   -8608.9964   -8547.7947    1215.0097    18775.905    15.675638 
    6020    530.33011   -8607.3625   -8548.2034    2556.4983    18767.753    15.643322 
    6030    530.33372   -8607.7483   -8548.5888    3136.3364     18763.85    15.618955 
    6040    550.18319   -8610.3346   -8548.9609    2570.3126    18765.079    15.610614 
    6050    557.35981   -8611.5113   -8549.3369    1845.2561    18770.611    15.618863 
    6060     545.5317   -8610.5691   -8549.7142    1299.4641    18779.239    15.642584 
    6070    537.66805   -8610.0488   -8550.0712    958.08373    18790.023    15.687118 
    6080    534.46324   -8610.0045   -8550.3843    606.56572    18802.354    15.754909 
    6090    543.88758   -8611.3227   -8550.6512   -440.34358    18815.491    15.836736 
    6100    553.06823   -8612.6023   -8550.9067   -1170.9197    18827.826    15.914193 
    6110    535.96928   -8610.9586   -8551.1704   -852.18844    18838.226    15.976398 
    6120    534.56562   -8611.0686    -8551.437   -611.84275    18847.064    16.026845 
    6130    525.01992   -8610.2501   -8551.6833   -868.64816    18854.708    16.070146 
    6140    533.31796   -8611.3996   -8551.9072   -1486.3733    18860.778    16.105898 
    6150    556.68511   -8614.2422   -8552.1431   -2200.5481    18864.275    16.131562 
    6160    548.33884   -8613.5888   -8552.4208   -2172.9122     18864.13    16.144513 
    6170     536.8406   -8612.6061   -8552.7207    -1788.702    18860.373     16.14599 
    6180    551.83508   -8614.6017   -8553.0436    -1939.942    18853.533    16.144218 
    6190    556.28419   -8615.4699   -8553.4155   -1804.8669    18843.518    16.149153 
    6200     554.4256   -8615.6794   -8553.8324   -943.38966    18830.657    16.165162 
    6210    562.64429   -8617.0478    -8554.284     281.8477    18816.382    16.191001 
    6220    550.93628   -8616.2107   -8554.7529    2022.0457    18802.828    16.224941 
    6230    543.45715   -8615.8274   -8555.2039    3211.4064    18792.766    16.264841 
    6240    565.17182   -8618.7106   -8555.6648    2945.7575    18787.977    16.304375 
    6250    554.11079   -8617.9566   -8556.1447    2550.3474    18788.176    16.335873 
    6260    542.72182    -8617.161   -8556.6196    2159.1996    18792.663    16.361617 
    6270    542.81322   -8617.6239   -8557.0722    2013.8894    18800.816    16.395126 
    6280     549.4778    -8618.807    -8557.512    1702.0758    18812.265    16.448702 
    6290    550.75869   -8619.3836   -8557.9457    877.78246    18826.436    16.525067 
    6300    548.42938    -8619.545   -8558.3669    -408.1356    18841.887    16.615725 
    6310    546.62748   -8619.7563   -8558.7792   -1126.6806     18856.59    16.703032 
    6320    533.67069   -8618.7049   -8559.1732   -1185.9422    18869.361     16.77249 
    6330    536.06479   -8619.3392   -8559.5403   -1614.0811    18879.962    16.822072 
    6340    543.20644   -8620.5013   -8559.9058    -2319.763    18887.671    16.859149 
    6350    525.95983   -8618.9354   -8560.2638   -2151.7638    18891.531    16.894223 
    6360    540.70897   -8620.9343   -8560.6174   -1923.2566    18891.668    16.935133 
    6370     551.9361   -8622.5656   -8560.9962   -1132.8125    18888.606     16.98456 
    6380    539.57346   -8621.5792    -8561.389    236.60307    18883.761    17.042156 
    6390    553.06454   -8623.4849   -8561.7897    719.53424    18879.225    17.105411 
    6400    555.31829   -8624.1713   -8562.2247    1045.7597    18875.933    17.169509 
    6410    534.41157   -8622.2899   -8562.6754    1660.4323    18874.496    17.233656 
    6420    538.86747   -8623.2398   -8563.1284    1598.4604    18875.798    17.304229 
    6430    545.27539   -8624.4117   -8563.5854    1022.9718    18879.717    17.387689 
    6440    548.87856   -8625.2824   -8564.0542    571.00209    18885.333    17.483217 
    6450    534.82846   -8624.1761   -8564.5152     900.3221    18891.991     17.58375 
    6460    524.32941   -8623.4269   -8564.9372    1124.1165     18900.07    17.685882 
    6470    533.88682   -8624.8704   -8565.3146    722.07817    18909.875    17.790167 
    6480    544.02219   -8626.3536   -8565.6671    -213.4972    18920.684    17.893936 
    6490     544.3351   -8626.7414     -8566.02   -934.58761    18931.012    17.992101 
    6500    540.86049   -8626.7026   -8566.3688   -1375.0357     18939.65    18.079915 
    6510    548.54448   -8627.9098   -8566.7189   -1770.9151    18945.835    18.149889 
    6520    540.57977   -8627.3854   -8567.0829   -1922.2233    18948.948    18.197258 
    6530    533.46431   -8626.9608    -8567.452   -1909.9497    18948.776    18.225758 
    6540    554.47323   -8629.6982   -8567.8458   -2038.9551    18945.314    18.241586 
    6550    545.20903   -8629.0944   -8568.2755   -1111.9989    18938.628    18.249203 
    6560    533.98444   -8628.2646   -8568.6978    -76.65412    18930.197    18.249755 
    6570     552.9873   -8630.8093   -8569.1227    141.17879    18921.651    18.244434 
    6580    537.84037   -8629.5471   -8569.5502    836.25079    18913.611    18.236957 
    6590    522.63311   -8628.2518   -8569.9513    1173.6968    18907.066     18.23214 
    6600    531.54543   -8629.6115   -8570.3168    920.55675    18902.547    18.234624 
    6610     560.7873    -8633.254   -8570.6973    678.70208    18899.654    18.250679 
    6620    563.94456   -8634.0481   -8571.1392     1017.231    18898.023    18.286095 
    6630    536.39184   -8631.4418   -8571.6065    1832.9943    18898.213    18.343893 
    6640    523.75565   -8630.4646   -8572.0388    2072.8624    18901.421    18.424353 
    6650    528.13993   -8631.3452   -8572.4304    1362.3506    18907.948    18.523934 
    6660    530.00179   -8631.9079   -8572.7854    197.47206    18916.595    18.636807 
    6670    543.48067   -8633.7562   -8573.1301   -1111.1812    18925.396    18.757693 
    6680    540.78933   -8633.8005   -8573.4747   -2056.3993    18932.195    18.876978 
    6690    547.01366   -8634.8585   -8573.8383   -2204.8637    18935.482    18.985107 
    6700    557.10772   -8636.3835   -8574.2373   -2215.1239    18934.965    19.077226 
    6710    554.54563   -8636.5286   -8574.6682   -2014.3834    18930.741    19.147135 
    6720    548.98107   -8636.3448   -8575.1052   -1551.1725    18923.245    19.191325 
    6730    559.36062   -8637.9473   -8575.5498   -1567.1387    18913.219    19.210096 
    6740    572.22066   -8639.8782   -8576.0461   -1719.4899    18900.774    19.205543 
    6750    558.23889   -8638.8665   -8576.5941   -1520.3513    18885.766    19.181726 
    6760    528.96962   -8636.1282   -8577.1208   -723.81903    18868.638    19.142112 
    6770    515.42907   -8635.0635   -8577.5667    55.231991    18850.691    19.091451 
    6780     530.7129   -8637.1462   -8577.9444    489.33356    18833.236    19.037731 
    6790    548.68731   -8639.5027   -8578.2958    963.68457    18817.029    18.991436 
    6800    552.90532   -8640.3303   -8578.6528    1980.9363    18802.913    18.961529 
    6810    547.72691   -8640.1256   -8579.0258    3071.3638    18792.472    18.950671 
    6820    538.96954   -8639.5341   -8579.4113    3746.2701    18787.364    18.957471 
    6830    545.16279   -8640.6288    -8579.815    3896.3863    18788.569    18.978105 
    6840    549.30048   -8641.5341   -8580.2588    3705.6284    18796.209    19.003104 
    6850    532.58051   -8640.1431   -8580.7329    3633.5829    18809.913    19.024152 
    6860    530.69361   -8640.3944   -8581.1948    3038.7793    18829.307    19.044856 
    6870    538.29645   -8641.6739   -8581.6261    1679.2625    18853.236     19.07813 
    6880     526.6457   -8640.7557   -8582.0076   -283.14511    18879.332    19.128935 
    6890    523.15669   -8640.6739    -8582.315   -1962.4409    18904.359    19.187196 
    6900    534.95521   -8642.2614   -8582.5863   -3017.2547    18925.512    19.235054 
    6910    526.49122   -8641.5833   -8582.8524   -3214.3011    18941.142    19.258431 
    6920    524.74713    -8641.664   -8583.1277   -3082.2691    18950.945    19.252475 
    6930    518.54072   -8641.2439   -8583.3999   -2680.1137    18955.312    19.220053 
    6940    516.64913     -8641.29    -8583.657   -2252.6424    18955.015    19.165412 
    6950     525.4309   -8642.5051   -8583.8925   -1866.6571    18950.911    19.089866 
    6960    533.17077   -8643.5944   -8584.1184   -1040.9057    18943.834    18.995926 
    6970    529.42204   -8643.4011   -8584.3433    89.706066    18935.218    18.892321 
    6980    519.95719   -8642.5552   -8584.5531    1389.3522    18927.042    18.789733 
    6990    518.96593   -8642.6314   -8584.7399    2178.6647     18921.36    18.702403 
    7000    528.06126   -8643.8201   -8584.9141    2319.2625    18919.413    18.647291 
    7010    543.34675   -8645.7262    -8585.115    1950.2618    18921.371      18.6349 
    7020    532.31662   -8644.7431   -8585.3624    1545.4404    18926.585    18.663185 
    7030    519.49778   -8643.5798    -8585.629    1049.1261    18934.293    18.722649 
    7040    526.62913   -8644.6316   -8585.8854   -26.877879    18943.502     18.79917 
    7050    529.22892   -8645.1737   -8586.1374   -1241.5533    18952.419     18.87615 
    7060    514.13648   -8643.7351   -8586.3824   -1981.0554    18959.121    18.941646 
    7070    511.85723   -8643.7022   -8586.6038    -2808.911    18962.283     18.98838 
    7080    527.12457    -8645.614   -8586.8125   -3943.3823    18960.535     19.01741 
    7090    533.97839   -8646.6073   -8587.0412   -4309.8456    18952.256    19.033626 
    7100    534.60516   -8646.9418   -8587.3057   -3761.2114    18937.004    19.041243 
    7110    539.52156   -8647.7846   -8587.6002   -3061.3057     18915.76    19.039289 
    7120    531.22921    -8647.167   -8587.9076    -1836.073    18889.984    19.019353 
    7130    511.86817    -8645.286   -8588.1864   -666.47502    18861.753    18.976158 
    7140    520.90254   -8646.5326   -8588.4251    337.84773    18833.129    18.913229 
    7150    531.96153    -8647.985   -8588.6439    1786.0482    18805.913    18.842507 
    7160    533.04681   -8648.3154   -8588.8533    3777.2238    18782.488     18.77878 
    7170    536.58781   -8648.9312    -8589.074     5429.941    18765.938    18.738683 
    7180    543.18483   -8649.9341   -8589.3411    5729.3134    18758.673    18.734414 
    7190    546.80761   -8650.6763   -8589.6791      4729.67    18760.957    18.767374 
    7200    543.33259   -8650.6731   -8590.0636    3114.2867    18770.984    18.829484 
    7210    549.87751   -8651.8115   -8590.4718    1223.2433    18785.934     18.90294 
    7220    543.95904   -8651.5661   -8590.8867   -96.856862    18802.677    18.968089 
    7230    528.27548   -8650.2198   -8591.2899   -730.44921    18818.983    19.013168 
    7240    522.13047   -8649.9036   -8591.6591   -1122.6421    18833.768    19.033847 
    7250    520.02461   -8649.9826    -8591.973   -1802.1112    18846.314    19.026214 
    7260    527.60137   -8651.0827    -8592.228   -2737.9296    18855.525    18.987702 
    7270    536.13914   -8652.2488   -8592.4417   -3575.4252    18859.951    18.925889 
    7280    544.69279    -8653.418   -8592.6567   -3972.6541    18858.327    18.850308 
    7290    539.78523   -8653.1134   -8592.8995   -3669.1532    18850.135    18.765831 
    7300    509.69388   -8649.9851    -8593.128   -2457.0501    18836.081    18.676332 
    7310    505.25799    -8649.655   -8593.2927   -1620.1252    18818.126    18.586666 
    7320    522.44604   -8651.6763   -8593.3966   -1491.1798    18797.712    18.500375 
    7330    534.91596   -8653.1517    -8593.481   -1020.2613    18775.294    18.419726 
    7340    537.35924   -8653.5201   -8593.5768   -413.84431     18751.64    18.346421 
    7350    535.38907   -8653.4189   -8593.6955   -132.29376    18727.701    18.281227 
    7360    520.26387   -8651.8524   -8593.8162    444.18524    18704.068    18.224834 
    7370    517.67109    -8651.645    -8593.898    1348.9832    18681.706    18.176831 
    7380    538.86091   -8654.0665   -8593.9558     2065.865    18662.001    18.137865 
    7390    528.50227   -8652.9682    -8594.013    2977.6389    18646.144    18.113211 
    7400     531.9291   -8653.4226   -8594.0851    2960.0754    18635.381    18.103248 
    7410    556.23064   -8656.2493    -8594.201     1706.523    18629.522    18.101772 
    7420    550.51149   -8655.7956   -8594.3852    999.77267    18626.676    18.107003 
    7430    540.03773   -8654.8756   -8594.6336     855.2405    18625.596      18.1214 
    7440    525.95802   -8653.5835   -8594.9121    1231.3628    18626.027    18.142557 
    7450     509.1906   -8651.9851   -8595.1841    1587.6156     18628.46    18.161215 
    7460    504.78938    -8651.727   -8595.4169     1350.781    18633.402    18.171393 
    7470    516.47338   -8653.2219   -8595.6085    67.826142    18640.344    18.178642 
    7480    519.29203   -8653.6926   -8595.7647   -1182.5759    18647.353    18.194399 
    7490     536.4086   -8655.7485   -8595.9113   -2843.4206    18652.226    18.221652 
    7500     548.6446   -8657.2982   -8596.0961   -3791.4594    18652.413    18.249238 
    7510     531.6006   -8655.6357   -8596.3348   -3503.1123    18646.493    18.263134 
    7520     520.7733   -8654.6864   -8596.5934   -2570.5756    18634.949    18.258351 
    7530    515.49184    -8654.337   -8596.8332    -1178.313    18619.363    18.236475 
    7540    512.87553   -8654.2456   -8597.0336     342.3688    18602.038    18.202644 
    7550    530.46572    -8656.386   -8597.2118    1710.8937    18585.459    18.159843 
    7560    539.33724   -8657.5588   -8597.3949    2878.0054    18571.887    18.111867 
    7570    547.59116   -8658.7116    -8597.627    3320.4107    18563.079    18.066058 
    7580    537.62217   -8657.8839   -8597.9113    3510.0288    18559.794    18.030112 
    7590     521.3934   -8656.3859   -8598.2237    3361.0162    18562.261    18.012084 
    7600    511.74218    -8655.614   -8598.5284    3010.7529    18570.203    18.018413 
    7610    516.33855   -8656.4087   -8598.8103    2516.8447    18582.996    18.044584 
    7620    527.36066   -8657.9072   -8599.0793    2161.8207    18599.847    18.081243 
    7630    525.50825   -8657.9677   -8599.3464    1781.3645    18620.139    18.124229 
    7640    513.69894   -8656.9003   -8599.5964     1184.855    18643.221    18.173187 
    7650    511.08608    -8656.816   -8599.8036    -8.130109    18668.005    18.228495 
    7660    520.94587   -8658.0713    -8599.959   -1454.4324    18692.547    18.288941 
    7670    537.01441   -8659.9968    -8600.092   -2293.1798    18714.583    18.348255 
    7680    536.43195   -8660.0793   -8600.2395   -2492.5757    18732.734    18.399051 
    7690    533.05324   -8659.8754   -8600.4125   -2719.9509    18746.542    18.439729 
    7700    516.59954   -8658.2159   -8600.5884   -2131.3628    18755.829    18.472969 
    7710    510.02664   -8657.6368   -8600.7426   -1262.6006    18761.508     18.50598 
    7720    513.77195   -8658.1699   -8600.8579   -437.33612    18765.035    18.547439 
    7730    524.52439   -8659.4438   -8600.9323   -151.82535     18767.72    18.601378 
    7740    549.64549    -8662.321   -8601.0072   -525.02959    18770.014     18.66324 
    7750    522.28911   -8659.3558   -8601.0937   -377.12651    18771.513    18.725977 
    7760    514.07466   -8658.5128    -8601.167   -506.52767    18772.317      18.7795 
    7770    535.71366   -8660.9778   -8601.2181   -675.35202    18772.244    18.817305 
    7780    538.93217   -8661.3953   -8601.2766   -212.41246    18771.128    18.842919 
    7790    534.20479   -8660.9423    -8601.351    414.25574    18769.691    18.864943 
    7800    529.26239   -8660.4718   -8601.4317    1052.3895    18768.978     18.89185 
    7810     525.4765   -8660.1289   -8601.5112    1163.1819    18769.979    18.932686 
    7820    533.75034   -8661.1283   -8601.5876     238.0968    18772.792    18.996741 
    7830    551.50474   -8663.2045   -8601.6833   -1177.0425    18775.902      19.0862 
    7840    545.67969   -8662.6875   -8601.8161   -1532.0407    18777.192    19.191247 
    7850    532.03395   -8661.3204   -8601.9712   -1261.2578    18775.967      19.2991 
    7860     527.2627   -8660.9389   -8602.1219   -424.22822    18772.718    19.403508 
    7870    530.17595   -8661.3927   -8602.2508    237.84878    18768.757    19.502079 
    7880    544.76568   -8663.1528   -8602.3834    361.80107    18765.118    19.590204 
    7890    548.52819   -8663.7386   -8602.5495    508.26738    18762.127    19.661156 
    7900    559.56834   -8665.2002   -8602.7795    384.59873    18759.968    19.718234 
    7910    548.63074   -8664.2818   -8603.0812    446.26651    18758.493    19.771214 
    7920    531.83804   -8662.7473   -8603.4199    1051.5881    18757.849    19.826988 
    7930     532.8532   -8663.1984   -8603.7578     1505.187    18758.968    19.883783 
    7940    541.60637   -8664.5116   -8604.0946    1910.6176    18762.625     19.93822 
    7950    546.03599   -8665.3645   -8604.4534    2596.9917    18769.527    19.992467 
    7960      540.851   -8665.1743   -8604.8415    3044.8096    18780.723    20.055623 
    7970     533.1775   -8664.7073   -8605.2306    2877.0201    18796.918    20.131899 
    7980    548.10244   -8666.7598   -8605.6182    1551.2776    18817.703    20.219717 
    7990     547.9742   -8667.1431   -8606.0157    74.566004    18840.954     20.31833 
    8000    520.26875   -8664.4333   -8606.3966     -821.152    18864.276    20.428652 
    8010    510.53596   -8663.6788   -8606.7278   -1806.0947     18886.06    20.549888 
    8020    533.73644   -8666.5555   -8607.0164   -3070.7179     18904.58     20.68071 
    8030    543.62171    -8667.945   -8607.3032   -3683.9135    18917.835    20.819531 
    8040    523.19554   -8665.9544   -8607.5912   -3366.0069    18924.874    20.959387 
    8050    519.57155   -8665.8119   -8607.8529   -3490.4881     18926.04    21.086872 
    8060    532.68457   -8667.5103   -8608.0885   -3582.3268    18921.251    21.190304 
    8070    537.45952   -8668.2856   -8608.3311   -2278.3791    18910.613     21.27414 
    8080    516.44514   -8666.1664   -8608.5562   -228.66097    18896.278    21.349529 
    8090    510.80491   -8665.7126   -8608.7315    1458.0173    18881.606    21.423347 
    8100    522.47068    -8667.139   -8608.8566    2530.3492    18869.447    21.494487 
    8110    528.19441   -8667.8853   -8608.9644    3304.2974    18861.699    21.561169 
    8120    531.57277   -8668.3886   -8609.0908     3321.035    18859.505    21.626352 
    8130     531.1055   -8668.4954   -8609.2498     2858.355    18862.857    21.694782 
    8140    521.07628   -8667.5576   -8609.4308     2406.805    18871.029    21.772067 
    8150    506.25574   -8666.0627   -8609.5891    1271.6402    18883.101    21.858507 
    8160    508.51909   -8666.4202   -8609.6942   -15.141726    18897.228    21.948608 
    8170    512.57648   -8666.9199   -8609.7412   -1219.2996    18911.219    22.037526 
    8180    526.66658   -8668.5115   -8609.7611   -2323.1181    18922.995    22.124723 
    8190     525.0029   -8668.3457   -8609.7808   -2326.0389    18930.871    22.212857 
    8200    518.39307   -8667.6299   -8609.8024   -2083.5233    18934.725    22.298101 
    8210    535.25702   -8669.5367    -8609.828    -1998.588    18934.977    22.375566 
    8220    546.97197   -8670.8979   -8609.8824   -1577.3106    18931.887    22.447598 
    8230    540.24261   -8670.2529    -8609.988   -1007.5912    18926.144    22.519981 
    8240    535.94948   -8669.9162   -8610.1302    -734.1294    18918.699    22.586472 
    8250    556.31988   -8672.3913    -8610.333   -652.56776    18910.052    22.636691 
    8260    552.95362   -8672.3096   -8610.6268    115.34767    18900.511    22.672419 
    8270    540.94694   -8671.3484   -8611.0049    1112.4844    18891.319    22.706007 
    8280    531.63327   -8670.7493   -8611.4448    1544.8491    18884.016    22.748379 
    8290    524.74698   -8670.4438   -8611.9075    1916.3744    18879.419     22.80397 
    8300    536.56956   -8672.2517   -8612.3966    2024.8104     18878.08     22.87765 
    8310    538.76125   -8673.0179   -8612.9183    1927.6331    18880.153    22.972354 
    8320    518.06714   -8671.2076   -8613.4164    1991.7767    18885.516    23.080485 
    8330    516.69527   -8671.4997   -8613.8615    1370.5951    18894.123    23.192772 
    8340    515.81076   -8671.7706   -8614.2311    94.993059    18904.915    23.303945 
    8350     528.7295   -8673.5167   -8614.5362   -1296.7128    18915.776    23.412525 
    8360    540.68861   -8675.1132   -8614.7986   -2107.0786    18924.433    23.518601 
    8370    542.73546   -8675.5941   -8615.0511   -2098.6014    18929.532    23.619182 
    8380    531.00625   -8674.5158   -8615.2813   -1621.0348    18931.085    23.707106 
    8390    526.12636   -8674.1704   -8615.4802   -1355.0745    18929.818     23.77455 
    8400    528.76048   -8674.6375   -8615.6535   -1355.6462    18926.199    23.820794 
    8410    530.59397    -8675.002   -8615.8135   -939.68512    18920.352    23.847668 
    8420    519.90297   -8673.9532   -8615.9573    248.10875    18913.059    23.857357 
    8430    501.39623   -8671.9896   -8616.0581    1426.0662    18906.267    23.853918 
    8440    510.52206   -8673.0523   -8616.1028    1552.2781    18901.784    23.844402 
    8450    527.49881   -8674.9568   -8616.1135    1169.9448    18899.915    23.837031 
    8460    517.53641   -8673.8531   -8616.1211    1429.0993    18900.166    23.838954 
    8470    510.66491   -8673.0921   -8616.1267    2079.2021    18902.899    23.860134 
[...]
   22890    510.50622   -8812.5374   -8755.5897   -1665.0299    19145.357    40.248274 
   22900    496.85193   -8811.1182   -8755.6936   -1955.9919    19149.003     40.11023 
   22910    509.21848   -8812.5393   -8755.7352     -2846.76    19149.125    39.939707 
   22920    516.34996   -8813.3341   -8755.7345   -3669.2268    19144.284    39.739979 
   22930    522.62628   -8814.0153   -8755.7155   -4204.5695    19133.084    39.530294 
   22940    538.50943   -8815.7908   -8755.7192     -4296.49    19114.593    39.333283 
   22950    517.76278   -8813.5096   -8755.7524   -2894.3953    19088.906     39.15268 
   22960    509.81205   -8812.6445   -8755.7742   -1281.5084     19058.33    38.979536 
   22970    526.38344   -8814.4769    -8755.758    220.36386     19025.69    38.811109 
   22980    533.45388   -8815.2157   -8755.7082    2093.3585    18993.656    38.658801 
   22990    534.16819   -8815.2321   -8755.6448    3767.9073     18965.39    38.539625 
   23000    519.36638     -8813.52   -8755.5839    4769.1031    18943.672     38.46713 
   23010    509.76052   -8812.3972   -8755.5326    5295.2708    18930.168    38.441025 
   23020     491.5465   -8810.3005   -8755.4677    5481.1146    18925.741    38.445995 
   23030    501.99824   -8811.3562   -8755.3575    4853.2174    18930.596     38.47084 
   23040    528.82947   -8814.1678   -8755.1761    3411.0149    18943.577    38.514816 
   23050    501.46749    -8810.859   -8754.9196    2216.6261    18962.425    38.578793 
   23060    513.30491    -8811.829    -8754.569   -57.866402    18984.803    38.654566 
   23070    531.24515   -8813.3531   -8754.0919    -1776.764     19007.07    38.722468 
   23080    521.29869    -8811.724   -8753.5723   -2533.9616     19026.33    38.771251 
   23090    534.16287    -8812.635   -8753.0483   -3533.9509    19041.065    38.800616 
   23100    529.87609   -8811.6489   -8752.5404   -3742.5268    19049.749    38.811694 
   23110    531.98154   -8811.4323    -8752.089   -3361.8455     19051.99    38.803894 
   23120    543.91135   -8812.3654   -8751.6913   -3070.4605    19048.367    38.776957 
   23130    536.37106    -8811.194    -8751.361   -2396.7156    19039.509    38.737989 
   23140    537.48706   -8811.0484   -8751.0909   -1315.8497    19026.622    38.696803 
   23150    545.35391   -8811.6981    -8750.863    116.26497    19011.612    38.658617 
   23160    548.17019   -8811.8332    -8750.684     1635.795    18996.933    38.626663 
   23170    563.51627   -8813.4283   -8750.5672    2221.1475    18985.016    38.609687 
   23180    570.29977    -8814.148   -8750.5302    2125.0788    18976.873    38.617184 
   23190    557.76505    -8812.801   -8750.5815    2785.7606    18972.559    38.650985 
   23200    554.67404   -8812.5829   -8750.7082    2856.9833    18972.958    38.710347 
   23210    571.01363   -8814.6264    -8750.929     2019.971    18978.133    38.789458 
   23220    549.76975   -8812.5691   -8751.2415    1413.6808    18986.811    38.880705 
   23230    542.75392   -8812.1469   -8751.6019    338.69669    18997.826    38.985211 
   23240    566.37627    -8815.192   -8752.0119   -1326.8774    19009.263    39.098557 
   23250     548.1775   -8813.6229   -8752.4729   -1808.6036    19018.573    39.198561 
   23260     530.4879   -8812.1179   -8752.9412   -2313.4405    19024.695    39.268906 
   23270    529.40848   -8812.4421   -8753.3858   -2796.6283    19026.792    39.303719 
   23280    518.29212   -8811.6022   -8753.7859   -2182.4336    19024.215    39.300032 
   23290    516.75351   -8811.7674   -8754.1227   -1221.7513    19017.916    39.257912 
   23300    526.73934   -8813.1606    -8754.402   -519.93881    19009.512      39.1813 
   23310    535.40466    -8814.376   -8754.6508    5.4526223    19000.244    39.085616 
   23320    535.96823   -8814.6756   -8754.8875    454.86422    18991.051    38.992232 
   23330    534.19244   -8814.7043   -8755.1144    584.23744    18982.653    38.912668 
   23340    534.49129   -8814.9596   -8755.3363    1032.4664    18975.348    38.847297 
   23350    518.65183   -8813.3932   -8755.5368    2490.1339    18970.015    38.793236 
   23360    518.45876   -8813.5387   -8755.7039      3441.34    18968.876    38.759425 
   23370    533.96025   -8815.4309   -8755.8668    3633.9957    18973.554    38.762205 
   23380    524.09437   -8814.5071   -8756.0436    3391.8767    18984.414    38.809959 
   23390    513.83322   -8813.5315   -8756.2126    2576.7754    19001.014    38.900836 
   23400    520.34308   -8814.3947   -8756.3496    867.28137     19021.87    39.025443 
   23410    527.74006    -8815.317   -8756.4468   -1278.3063    19044.096    39.170768 
   23420    543.31276   -8817.1423    -8756.535   -3236.2557    19064.067     39.32146 
   23430    535.54506   -8816.3873   -8756.6465   -4104.2462    19078.528    39.462986 
   23440    518.11503   -8814.5813   -8756.7848    -4249.927    19085.878    39.583888 
   23450    511.36554   -8813.9691   -8756.9255   -3727.6874    19085.914    39.677697 
   23460    516.72536   -8814.6965    -8757.055   -3207.5223    19079.458    39.750285 
   23470    529.24646   -8816.2228   -8757.1846   -2674.7142    19067.456    39.808888 
   23480    509.40657   -8814.1319   -8757.3068   -1578.4426    19050.945    39.855669 
   23490    498.37063   -8812.9711   -8757.3771   -391.23181     19031.81    39.889919 
   23500    520.85174   -8815.4956   -8757.3938    145.94681    19011.997     39.90892 
   23510    514.48614   -8814.7675   -8757.3758     898.1633     18992.58    39.911819 
   23520    518.96172   -8815.2286   -8757.3376    1579.5154    18974.803     39.90199 
   23530    523.31427   -8815.6611   -8757.2846    2240.2207    18959.838    39.880429 
   23540     511.0085    -8814.224   -8757.2202    3643.5914    18948.948    39.848849 
   23550    513.71903    -8814.449   -8757.1428    4456.5279    18944.254    39.820265 
   23560    510.26273   -8813.9668   -8757.0463    4244.8935    18947.069    39.808976 
   23570     510.0491   -8813.8143   -8756.9176    3101.4762    18957.014    39.818195 
   23580    513.35653   -8813.9942   -8756.7285    1411.7568    18972.159    39.839154 
   23590    498.85313   -8812.1066   -8756.4588    140.61417    18989.756    39.855787 
   23600    510.83847   -8813.0748     -8756.09   -818.48343    19007.575    39.855891 
   23610    535.66385   -8815.3712   -8755.6171    -1515.307    19023.948     39.83529 
   23620    518.74977   -8812.9584   -8755.0911   -1654.1026    19037.746    39.791112 
   23630      537.851    -8814.539   -8754.5409   -2357.7146    19048.514    39.727731 
   23640    555.81301   -8815.9797   -8753.9779    -2946.455    19055.184    39.652599 
   23650    530.84844   -8812.7047   -8753.4877   -3028.3368    19056.788    39.570991 
   23660    529.20764   -8812.1092   -8753.0753   -3058.7976    19053.126    39.487412 
   23670    537.84596   -8812.7115    -8752.714   -2680.7474    19044.269    39.402488 
   23680    538.81088   -8812.5236   -8752.4184   -1902.0341    19030.877    39.315437 
   23690    541.76071   -8812.6157   -8752.1815   -586.32111    19014.391      39.2315 
   23700    544.88441   -8812.7772   -8751.9945    984.54466    18997.057    39.164735 
   23710    549.14285   -8813.1192   -8751.8615    2690.2491    18981.561    39.128498 
   23720    536.76714   -8811.6576   -8751.7804    4008.7338    18970.751     39.12982 
   23730    540.43234   -8812.0401    -8751.754    3849.5351    18966.684    39.170971 
   23740    547.13183   -8812.8141   -8751.7807    2471.7984    18969.083    39.248356 
   23750    546.12867   -8812.7722   -8751.8508    974.77501    18975.703      39.3525 
   23760    545.18634    -8812.767   -8751.9506    -377.7742    18983.961    39.468575 
   23770    530.60462   -8811.2584   -8752.0686   -1004.2543    18991.651    39.580217 
   23780    523.97643   -8810.6381   -8752.1877   -1216.5469    18997.644    39.677705 
   23790    530.47325   -8811.4785   -8752.3034   -1515.3086     19001.46    39.757689 
   23800    531.77041   -8811.7385   -8752.4187   -1198.2147    19002.738    39.818326 
   23810    543.25692   -8813.1513   -8752.5501   -735.05135    19001.966    39.866603 
   23820    550.55093   -8814.1266   -8752.7119   -514.68495    18999.917    39.917372 
   23830    553.10484   -8814.6251   -8752.9254   -454.41661    18996.976    39.978664 
   23840    536.06841   -8812.9713    -8753.172   -5.5799758    18993.345     40.04078 
   23850     536.7893   -8813.3092   -8753.4295   -27.448399    18989.633    40.086738 
   23860    535.65167    -8813.444   -8753.6913   -124.64701    18985.871    40.109897 
   23870    522.77677   -8812.2545   -8753.9379    380.22022    18982.006    40.118412 
   23880    531.98601   -8813.5044   -8754.1605    894.07089    18978.803     40.12359 
   23890    544.65518   -8815.1344   -8754.3773    1670.9092    18977.215    40.137751 
   23900    545.54814   -8815.4746   -8754.6179    2086.8246     18978.44    40.177034 
   23910    528.53729   -8813.8319   -8754.8728    2227.6103    18983.214    40.246119 
   23920    515.79497   -8812.6446   -8755.1069    1943.2058    18991.755    40.333901 
   23930    522.22724   -8813.5519   -8755.2967    707.85247    19003.479    40.424125 
   23940    534.25993   -8815.0509   -8755.4534   -555.79541    19016.438    40.504325 
   23950    528.96586   -8814.6036   -8755.5967   -1625.2628    19028.449    40.563022 
   23960     522.6768   -8814.0332   -8755.7279   -2618.2041     19037.63    40.588333 
   23970    515.36615   -8813.3282   -8755.8383   -3035.5354    19042.331    40.576885 
   23980    512.85215   -8813.1305    -8755.921   -2832.1783    19041.852     40.53746 
   23990    517.90039   -8813.7507   -8755.9782   -2182.4193    19036.539    40.492871 
   24000    508.73666   -8812.7645   -8756.0141   -1016.4614    19027.527    40.462511 
   24010    501.57399   -8811.9636   -8756.0123    35.045657    19016.768    40.453284 
   24020    521.94521   -8814.1953   -8755.9715    235.14019    19005.949     40.46351 
   24030    535.22097   -8815.6238   -8755.9191    12.060152    18995.491    40.481437 
   24040    528.17826   -8814.8014   -8755.8824   -43.909717    18985.096    40.493639 
   24050     515.8024   -8813.3859   -8755.8474     343.2022    18974.704     40.49494 
   24060    513.65181   -8813.0905   -8755.7919    1388.5593    18964.985    40.488827 
   24070    527.89409   -8814.6058   -8755.7184    3014.2816    18957.729    40.487791 
   24080    529.36977   -8814.7073   -8755.6553    4296.1264    18955.604     40.50596 
   24090     520.1452   -8813.6409    -8755.618    4220.3417    18960.705    40.550881 
   24100    528.25924   -8814.5191    -8755.591    2454.3903     18972.84    40.619675 
   24110    522.48765   -8813.8358   -8755.5516    779.14139     18989.29    40.695768 
   24120    523.03504   -8813.8434    -8755.498   -758.35036    19007.163     40.75797 
   24130     529.7089   -8814.5222   -8755.4324   -1857.0428    19023.854    40.788317 
   24140    516.77935   -8813.0127   -8755.3651   -1803.6714    19037.562    40.788043 
   24150    519.56247   -8813.2488   -8755.2909   -1403.7016    19048.234    40.772522 
   24160    531.13061   -8814.4511   -8755.2027   -1471.9799    19056.441    40.751258 
   24170    531.50626   -8814.4018   -8755.1114   -1921.1111    19062.072    40.725861 
   24180    535.27626   -8814.7429   -8755.0321   -2346.0098    19064.364    40.690524 
   24190    529.68044   -8814.0539   -8754.9673   -2364.6532    19062.626    40.636933 
   24200    525.96397   -8813.5864   -8754.9144   -1805.5788    19056.862    40.560582 
   24210    519.48976   -8812.7974   -8754.8475   -1096.4789    19047.971    40.470332 
   24220    529.09121   -8813.7821   -8754.7612   -768.71439    19037.085    40.385017 
   24230     531.0589   -8813.9018   -8754.6614   -442.79745    19024.841    40.311439 
   24240    513.00385   -8811.7653   -8754.5389   -56.663029    19011.817    40.238832 
   24250    528.07211   -8813.2756   -8754.3684   -202.68112    18998.545    40.154225 
   24260    542.98637   -8814.7179   -8754.1469   -108.09248    18984.924    40.059764 
   24270    545.20969   -8814.7277   -8753.9088    504.04126    18971.176    39.969171 
   24280    548.79389   -8814.8963   -8753.6775    992.72738    18958.244    39.892983 
   24290    533.52877   -8812.9708   -8753.4549    1715.0236    18947.059    39.832064 
   24300    532.60562   -8812.6441   -8753.2311    2040.4843    18938.734    39.781959 
   24310    537.31816   -8812.9417   -8753.0031    1788.8841    18933.795     39.73418 
   24320    544.68478   -8813.5483   -8752.7879    1117.8708    18931.851      39.6827 
   24330    563.21114   -8815.4438   -8752.6167    437.09915     18931.84     39.62675 
   24340    534.90018   -8812.1741   -8752.5052    626.13147    18932.723    39.565806 
   24350    526.52318   -8811.1573   -8752.4229    1190.4722    18934.757    39.504761 
   24360     549.5171   -8813.6419   -8752.3425      1039.09    18938.717    39.448452 
   24370    543.52774   -8812.9236   -8752.2922    562.31748    18944.464    39.392928 
   24380    532.42204   -8811.6687   -8752.2762   -872.94008     18951.07    39.333027 
   24390    529.04119   -8811.2848   -8752.2695    -2574.318     18956.18     39.26626 
   24400    535.03741   -8811.9597   -8752.2755   -3637.0433    18956.992    39.191975 
   24410    544.13657   -8813.0275   -8752.3282   -3760.8229     18951.65    39.110205 
   24420    530.91035   -8811.6527   -8752.4289    -2642.844    18939.984    39.019463 
   24430    538.93385   -8812.6782   -8752.5593   -1687.5334     18923.66    38.920082 
   24440    560.00245   -8815.2055   -8752.7363   -1069.0344    18904.269    38.814992 
   24450    557.83863   -8815.2256   -8752.9979   -23.808101    18882.984    38.708915 
   24460    535.65149   -8813.0818    -8753.329    745.30624    18861.466    38.612899 
   24470    520.07532   -8811.6976   -8753.6824    952.32292    18841.015    38.539696 
   24480    523.10054   -8812.3911   -8754.0384    881.83962    18822.004    38.489059 
   24490    529.19011   -8813.4271   -8754.3951    1207.7315    18804.436    38.441733 
   24500    534.38744   -8814.3774   -8754.7657    1680.7601    18788.829    38.383943 
   24510    524.02369   -8813.5943   -8755.1387    2189.4469    18775.971    38.321996 
   24520    530.30174   -8814.6621   -8755.5061     2371.987    18766.667    38.262399 
   24530    541.16371   -8816.2527   -8755.8851    1943.7071    18761.191    38.199214 
   24540    524.53817   -8814.7767   -8756.2637    1709.4207    18759.018       38.134 
   24550    510.04557   -8813.4875   -8756.5911    1600.4572    18759.743    38.077585 
   24560    523.75897   -8815.2895   -8756.8634    1189.1632     18763.13    38.035612 
   24570    532.59951   -8816.5233   -8757.1111    261.32827    18768.499    38.006101 
   24580    526.41934    -8816.082   -8757.3592   -668.91506    18774.372    37.977967 
   24590    505.32627   -8813.9444   -8757.5745   -797.46015     18779.33    37.934999 
   24600    517.63749   -8815.4892    -8757.746   -1227.8946    18782.919    37.877104 
   24610    517.93081   -8815.6676   -8757.8917   -940.39716    18784.584    37.823171 
   24620    493.23317   -8813.0254   -8758.0045    213.95878    18784.805    37.791601 
   24630    495.18331   -8813.2899   -8758.0515    486.48308    18785.243    37.788542 
   24640    508.68966   -8814.7755   -8758.0304    20.799656    18786.408    37.806365 
   24650    504.43439   -8814.2281   -8757.9577   -160.81591    18787.682    37.825083 
   24660    512.01101     -8814.96   -8757.8444    -385.3601    18788.694     37.82341 
   24670    527.41963   -8816.5414   -8757.7069   -459.91921    18789.088    37.798884 
   24680    530.29701   -8816.7312   -8757.5757   -446.76693    18788.709    37.769146 
   24690    518.42204   -8815.2872   -8757.4564   -298.44328    18787.601    37.747836 
   24700    507.71587   -8813.9646   -8757.3282   -87.139493    18785.967     37.73925 
   24710    511.55916   -8814.2399   -8757.1747   -21.612483    18784.112    37.745857 
   24720    506.81103   -8813.5283   -8756.9927    269.79696    18782.238    37.763168 
   24730    503.37762   -8812.9271   -8756.7746    368.93631     18780.79    37.778002 
   24740    519.62508   -8814.4806   -8756.5157   -180.98284    18779.866    37.778665 
   24750    514.39631   -8813.6066   -8756.2249   -629.58617    18778.636    37.758265 
   24760    513.49847   -8813.1988   -8755.9173   -568.41326    18776.398    37.717248 
   24770    516.17751   -8813.1665   -8755.5862   -195.67799    18773.197    37.666538 
   24780    514.43643    -8812.628   -8755.2418    450.83322    18769.671    37.624154 
   24790    529.59514   -8813.9699   -8754.8927    940.89323     18766.82    37.606892 
   24800    525.82779   -8813.2161   -8754.5592    1777.7174    18765.618    37.622593 
   24810    519.88136   -8812.2581   -8754.2645    1997.5407    18767.338     37.67118 
   24820    534.71796   -8813.6509   -8754.0023    1606.9397    18772.377     37.74412 
   24830    554.30589   -8815.6245   -8753.7908    1221.1168     18780.23    37.833527 
   24840     565.2837   -8816.7275   -8753.6692    466.29049     18790.22    37.940995 
   24850    540.09416   -8813.8863    -8753.638    507.91988    18801.333    38.065318 
   24860    510.70539   -8810.6086   -8753.6386     533.2042    18813.509    38.199371 
   24870     516.7932    -8811.267    -8753.618   -48.399224    18826.733    38.332053 
   24880    522.86753   -8811.9009   -8753.5742   -497.88481     18840.15    38.448876 
   24890     519.1098   -8811.4361   -8753.5286   -648.54647    18853.017    38.539923 
   24900    514.42905    -8810.863   -8753.4777   -1420.4978    18864.899    38.604473 
   24910    518.37567   -8811.2363   -8753.4107   -2434.8436    18874.542    38.645157 
   24920    529.27447   -8812.3876   -8753.3462   -2977.2134    18880.254    38.658752 
   24930    515.86173   -8810.8387   -8753.2935   -2198.0642    18881.186     38.64305 
   24940    527.86275   -8812.1327   -8753.2488   -1306.3992    18878.344    38.610632 
   24950    547.43759   -8814.2791   -8753.2116   -520.43052    18873.201    38.575536 
   24960    551.00717   -8814.6834   -8753.2177    444.75545    18867.099    38.538954 
   24970    542.91881   -8813.8327   -8753.2693    968.49426    18861.571    38.500434 
   24980    544.67272   -8814.1274   -8753.3684    675.57535     18857.46    38.463939 
   24990    524.46403   -8812.0079   -8753.5032    234.34172    18854.412    38.438331 
   25000    514.68661   -8811.0613   -8753.6472   -5.7352756    18851.792     38.43711 
Loop time of 13769.1 on 16 procs for 20000 steps with 864 atoms

Performance: 0.125 ns/day, 191.237 hours/ns, 1.453 timesteps/s
95.3% CPU use with 16 MPI tasks x 1 OpenMP threads

MPI task timing breakdown:
Section |  min time  |  avg time  |  max time  |%varavg| %total
---------------------------------------------------------------
Pair    | 3661.8     | 7655.9     | 13259      |4066.7 | 55.60
Bond    | 0.0015891  | 0.0036982  | 0.0075693  |   3.2 |  0.00
Neigh   | 0.17562    | 0.35944    | 0.68562    |  31.1 |  0.00
Comm    | 99.278     | 4578.4     | 8754       |4382.8 | 33.25
Output  | 1.5777     | 1.611      | 2.0959     |   9.9 |  0.01
Modify  | 268.3      | 1532.6     | 6356.7     |5515.9 | 11.13
Other   |            | 0.1265     |            |       |  0.00

Nlocal:        54.0000 ave          89 max          27 min
Histogram: 2 6 0 0 2 0 2 0 0 4
Nghost:        526.812 ave         708 max         349 min
Histogram: 4 0 0 3 1 0 2 3 1 2
Neighs:         0.00000 ave           0 max           0 min
Histogram: 16 0 0 0 0 0 0 0 0 0
FullNghs:      2766.88 ave        6062 max         697 min
Histogram: 6 2 0 2 0 0 2 0 1 3

Total # of neighbors = 44270
Ave neighs/atom = 51.238426
Ave special neighs/atom = 0.0000000
Neighbor list builds = 2000
Dangerous builds = 2000
unfix   3
                
Total wall time: 4:47:06
