LAMMPS (29 Sep 2021 - Update 3)
OMP_NUM_THREADS environment is not set. Defaulting to 1 thread. (src/comm.cpp:98)
  using 1 OpenMP thread(s) per MPI task
units	metal
atom_style	full

read_data	mixed.data
Reading data file ...
  orthogonal box = (0.0000000 0.0000000 0.0000000) to (15.857269 15.758596 73.856324)
  2 by 1 by 8 MPI processor grid
  reading atoms ...
  864 atoms
Finding 1-2 1-3 1-4 neighbors ...
  special bond factors lj:    0        0        0       
  special bond factors coul:  0        0        0       
     0 = max # of 1-2 neighbors
     0 = max # of 1-3 neighbors
     0 = max # of 1-4 neighbors
     1 = max # of special neighbors
  special bonds CPU = 0.006 seconds
  read_data CPU = 0.056 seconds

pair_style	quip
pair_coeff	* * /ocean/projects/cts180021p/wuziqi/clease/mint-PD/PhaseDiagram-Clease/Liquid/GAP_potential/gap_LiKCl.xml "Potential xml_label=GAP_2021_9_27_0_1_17_37_618" 17 19 3

neighbor	0.3 bin
neigh_modify	delay 10

timestep	0.001
compute	msd all msd
thermo_style	custom step temp pe etotal press vol c_msd[4]
thermo	10
dump	1 all custom 10 xyz-mix.dump type id x y z
dump	2 all custom 10 force-mix.dump type id fx fy fz

fix     1 all nve
run     2000
Neighbor list info ...
  update every 1 steps, delay 10 steps, check yes
  max neighbors/atom: 2000, page size: 100000
  master list distance cutoff = 6.22
  ghost atom cutoff = 6.22
  binsize = 3.11, bins = 6 6 24
  1 neighbor lists, perpetual/occasional/extra = 1 0 0
  (1) pair quip, perpetual
      attributes: full, newton on
      pair build: full/bin
      stencil: full/bin/3d
      bin: standard
Per MPI rank memory allocation (min/avg/max) = 8.896 | 8.907 | 8.915 Mbytes
Step Temp PotEng TotEng Press Volume c_msd[4] 
       0            0   -6680.0933   -6680.0933   -8281.1165    18455.831            0 
      10    70.089017   -6687.9205    -6680.102   -9637.9304    18455.831 0.00053514082 
      20    180.09083   -6700.2003   -6680.1109   -11326.743    18455.831 0.0066144209 
      30    218.60542   -6704.4933   -6680.1075   -10699.378    18455.831  0.022432956 
      40    219.14865   -6704.5494    -6680.103   -8951.3193    18455.831  0.042690684 
      50    240.47609   -6706.9311   -6680.1056   -8003.5149    18455.831  0.059191698 
      60    253.66901   -6708.4039   -6680.1068    -7626.627    18455.831   0.07070925 
      70     242.9182   -6707.2018   -6680.1039   -7466.6829    18455.831  0.079364222 
      80    245.92472    -6707.537   -6680.1038   -7609.4954    18455.831  0.086633288 
      90    257.49674   -6708.8305   -6680.1063   -7851.5904    18455.831  0.095173812 
     100    252.46946   -6708.2676   -6680.1043   -7551.0395    18455.831   0.10676573 
     110    248.46405   -6707.8212   -6680.1047   -7097.6705    18455.831   0.12025968 
     120    250.68872   -6708.0687    -6680.104   -6824.8497    18455.831   0.13340609 
     130      258.818   -6708.9777   -6680.1062   -6596.3887    18455.831   0.14573975 
     140    253.60976   -6708.3953   -6680.1047   -6185.2051    18455.831   0.15889724 
     150    247.40375   -6707.7026   -6680.1043   -5947.5032    18455.831   0.17318983 
     160    248.95468   -6707.8762   -6680.1049   -5851.7986    18455.831   0.18766652 
     170    251.06346   -6708.1121   -6680.1056   -5590.4969    18455.831   0.20144657 
     180    246.23782    -6707.572   -6680.1038   -5247.2261    18455.831   0.21382042 
     190    251.48989   -6708.1586   -6680.1045   -5416.1608    18455.831   0.22371169 
     200    260.44308   -6709.1586   -6680.1058   -5793.9896    18455.831   0.23141162 
     210    257.82494   -6708.8658    -6680.105   -6133.6533    18455.831   0.23844771 
     220    250.73963   -6708.0747   -6680.1043   -6257.2025    18455.831   0.24564622 
     230    248.07271   -6707.7773   -6680.1044   -6243.0592    18455.831   0.25309034 
     240    248.93862   -6707.8742   -6680.1047   -6226.9294    18455.831   0.26091643 
     250    248.99388   -6707.8804   -6680.1047   -6334.5414    18455.831   0.26913526 
     260    251.27669   -6708.1344   -6680.1041   -6551.8246    18455.831   0.27705303 
     270    260.34527   -6709.1477   -6680.1058        -6764    18455.831   0.28421607 
     280    260.83001   -6709.2011   -6680.1051   -6639.8092    18455.831   0.29163604 
     290    256.24266   -6708.6893    -6680.105   -6449.9322    18455.831   0.29974682 
     300    250.69638     -6708.07   -6680.1044   -6471.1016    18455.831   0.30849754 
     310    250.05901    -6707.999   -6680.1046   -6562.0942    18455.831   0.31777754 
     320    252.23509   -6708.2423   -6680.1051   -6693.6464    18455.831   0.32755563 
     330    250.81469   -6708.0833   -6680.1046   -6713.8004    18455.831   0.33779883 
     340    250.65515   -6708.0657   -6680.1047     -6614.52    18455.831   0.34801692 
     350    252.94275   -6708.3202   -6680.1041   -6588.7327    18455.831   0.35730468 
     360    261.50627   -6709.2774    -6680.106   -6797.9362    18455.831   0.36504658 
     370    261.10007   -6709.2316   -6680.1055   -6831.7443    18455.831   0.37190178 
     380    253.99916   -6708.4387   -6680.1047   -6726.1215    18455.831   0.37827271 
     390    253.05009   -6708.3325   -6680.1044    -6835.806    18455.831   0.38397661 
     400    258.03703   -6708.8906   -6680.1062   -6768.7818    18455.831   0.38955387 
     410      252.036   -6708.2195   -6680.1045   -6292.4532    18455.831   0.39652014 
     420    250.52201   -6708.0507   -6680.1046   -5826.2725    18455.831   0.40500255 
     430    256.29495   -6708.6954   -6680.1053    -5546.315    18455.831    0.4145153 
     440    262.43605   -6709.3808   -6680.1057   -5439.0868    18455.831   0.42473971 
     450    264.26046   -6709.5844   -6680.1058   -5272.9671    18455.831   0.43527985 
     460    262.52327   -6709.3894   -6680.1046   -5195.9426    18455.831   0.44476232 
     470    267.68384   -6709.9661   -6680.1056   -5304.7962    18455.831   0.45177569 
     480    270.55653   -6710.2863   -6680.1053   -5291.2639    18455.831   0.45687774 
     490    270.72724   -6710.3054   -6680.1053   -5218.7322    18455.831   0.46120142 
     500    269.05227   -6710.1187   -6680.1055   -5175.8745    18455.831   0.46642946 
     510    263.94553   -6709.5489   -6680.1053   -5239.9274    18455.831   0.47407361 
     520    257.63711   -6708.8446   -6680.1048   -5291.7388    18455.831   0.48412853 
     530    257.06548   -6708.7811   -6680.1051   -5321.5334    18455.831   0.49506416 
     540    260.38526   -6709.1518   -6680.1055   -5376.0867    18455.831   0.50501047 
     550    260.91759   -6709.2118    -6680.106    -5479.615    18455.831   0.51322197 
     560    255.01677   -6708.5518   -6680.1043   -5675.0057    18455.831   0.52041437 
     570     259.1908   -6709.0183   -6680.1051   -6233.3417    18455.831    0.5272333 
     580    265.73933   -6709.7494   -6680.1058   -6810.0612    18455.831   0.53425593 
     590    267.07214   -6709.8973    -6680.105   -7271.0617    18455.831   0.54173358 
     600    270.59769   -6710.2906    -6680.105   -7669.4363    18455.831   0.54966243 
     610    275.51295   -6710.8394   -6680.1055   -7859.4286    18455.831   0.55825095 
     620    275.26386   -6710.8118   -6680.1057   -7564.3126    18455.831   0.56786247 
     630    267.62803    -6709.959   -6680.1047   -6980.9593    18455.831   0.57832835 
     640    265.09163   -6709.6761   -6680.1047   -6568.2152    18455.831   0.58820723 
     650    267.67247   -6709.9653    -6680.106    -6347.284    18455.831   0.59641333 
     660    264.01415   -6709.5562    -6680.105   -5916.0469    18455.831   0.60309646 
     670    263.52965    -6709.502   -6680.1049   -5671.0684    18455.831   0.60844331 
     680    269.00124    -6710.113   -6680.1055   -5692.2827    18455.831    0.6132683 
     690    271.45591    -6710.387   -6680.1057   -5574.8525    18455.831   0.61933075 
     700     270.0884   -6710.2336   -6680.1048   -5412.3704    18455.831   0.62727776 
     710    274.16504    -6710.689   -6680.1055   -5445.9009    18455.831   0.63604213 
     720    276.77226   -6710.9801   -6680.1057   -5459.4182    18455.831   0.64454539 
     730    275.88502   -6710.8806   -6680.1052    -5417.932    18455.831   0.65171241 
     740    275.85971   -6710.8783   -6680.1057   -5536.9233    18455.831   0.65662341 
     750    272.97993   -6710.5569   -6680.1056   -5708.1328    18455.831    0.6598394 
     760    268.28422    -6710.033   -6680.1055   -5761.8441    18455.831   0.66298993 
     770    264.14144   -6709.5705   -6680.1051   -5775.8492    18455.831   0.66717813 
     780    263.51726    -6709.501   -6680.1053   -5700.2554    18455.831   0.67265545 
     790    266.55703   -6709.8409    -6680.106    -5605.591    18455.831   0.67864068 
     800    265.59911   -6709.7343   -6680.1063   -5512.5062    18455.831   0.68325498 
     810    257.26872   -6708.8037    -6680.105    -5609.846    18455.831   0.68551207 
     820    257.02246   -6708.7759   -6680.1047   -5957.2323    18455.831   0.68532325 
     830    268.49996   -6710.0576    -6680.106   -6395.3276    18455.831   0.68384718 
     840      275.603   -6710.8497   -6680.1057   -6790.5333    18455.831   0.68323699 
     850    277.81756   -6711.0961   -6680.1052   -7039.0507    18455.831   0.68429619 
     860    281.61629     -6711.52   -6680.1053    -7112.387    18455.831   0.68675849 
     870    285.63694   -6711.9688   -6680.1055   -6936.0551    18455.831    0.6904508 
     880    286.29079   -6712.0419   -6680.1057   -6480.6542    18455.831   0.69538495 
     890    281.96956   -6711.5596   -6680.1055   -6039.8274    18455.831   0.70113257 
     900    274.65893   -6710.7442   -6680.1055     -5564.23    18455.831   0.70667182 
     910    267.20366   -6709.9114   -6680.1045   -5257.3591    18455.831   0.71136984 
     920     269.3838   -6710.1555   -6680.1053    -5367.122    18455.831   0.71512054 
     930    273.08823   -6710.5689   -6680.1055   -5720.7294    18455.831   0.71853359 
     940    275.14424   -6710.7982   -6680.1055   -5917.6904    18455.831   0.72236347 
     950    276.67291   -6710.9689   -6680.1056   -5610.0935    18455.831   0.72713733 
     960    276.62748   -6710.9635   -6680.1053   -5046.3658    18455.831   0.73337224 
     970     278.3434   -6711.1556   -6680.1059   -4610.3497    18455.831   0.74121898 
     980    276.50421   -6710.9503   -6680.1058   -4305.2609    18455.831   0.75038076 
     990    274.46428   -6710.7216   -6680.1047   -4327.9119    18455.831   0.75935205 
    1000    282.87647   -6711.6614   -6680.1061   -4696.6429    18455.831   0.76641954 
    1010    286.63377   -6712.0812   -6680.1068   -4990.2699    18455.831   0.77271728 
    1020    279.06324   -6711.2352   -6680.1053   -4771.2676    18455.831   0.78024384 
    1030    275.82234   -6710.8738   -6680.1054    -4403.339    18455.831   0.78871428 
    1040    278.66942   -6711.1919   -6680.1059   -3941.2604    18455.831   0.79675694 
    1050    279.04998   -6711.2352   -6680.1068   -3356.1301    18455.831   0.80429238 
    1060    270.39607   -6710.2685   -6680.1054   -2836.7873    18455.831   0.81167046 
    1070    268.92869   -6710.1046   -6680.1052   -2775.6081    18455.831   0.81774479 
    1080    276.86697   -6710.9921   -6680.1072   -2982.0197    18455.831   0.82183502 
    1090    273.51021   -6710.6167   -6680.1062   -3002.8881    18455.831   0.82504043 
    1100    268.10286   -6710.0129   -6680.1056    -3041.916    18455.831   0.82859974 
    1110    268.86345   -6710.0983   -6680.1061   -3274.5241    18455.831   0.83307382 
    1120    271.12867   -6710.3511   -6680.1063   -3502.0504    18455.831   0.83788345 
    1130    271.41072   -6710.3825   -6680.1063   -3567.0764    18455.831   0.84210043 
    1140    271.86949   -6710.4327   -6680.1053   -3657.0206    18455.831   0.84510588 
    1150    281.86599   -6711.5491   -6680.1065   -4076.7437    18455.831    0.8468347 
    1160    288.73127   -6712.3154    -6680.107   -4317.2032    18455.831    0.8485126 
    1170    284.72713   -6711.8682   -6680.1065   -4221.6867    18455.831   0.85124425 
    1180    277.76624   -6711.0907   -6680.1055   -3786.2546    18455.831   0.85522238 
    1190    278.42764   -6711.1658   -6680.1068   -3453.5254    18455.831   0.86063272 
    1200    274.57485   -6710.7358   -6680.1066   -3135.4804    18455.831   0.86799772 
    1210    268.17301   -6710.0207   -6680.1056   -3061.7485    18455.831   0.87596914 
    1220    269.73514   -6710.1951   -6680.1058   -3498.6687    18455.831   0.88197829 
    1230    275.57277   -6710.8475    -6680.107   -3998.6686    18455.831   0.88464671 
    1240    273.28864   -6710.5919   -6680.1062   -4275.4959    18455.831   0.88485118 
    1250    269.21341   -6710.1371    -6680.106   -4301.1389    18455.831   0.88413656 
    1260    268.47841   -6710.0549   -6680.1057   -4311.1873    18455.831   0.88296339 
    1270    272.54156   -6710.5085   -6680.1061   -4356.8217    18455.831   0.88172746 
    1280    277.77621   -6711.0926   -6680.1063   -4588.2508    18455.831   0.88180594 
    1290    280.19269   -6711.3629    -6680.107   -4852.3632    18455.831   0.88389526 
    1300    274.38994   -6710.7142   -6680.1056   -4801.0391    18455.831   0.88737003 
    1310    272.68687   -6710.5248   -6680.1062   -4600.8128    18455.831   0.89133871 
    1320    273.33879   -6710.5972   -6680.1059   -4506.2257    18455.831   0.89528436 
    1330    275.86937     -6710.88   -6680.1064   -4590.7459    18455.831   0.89889495 
    1340    276.57557   -6710.9584    -6680.106   -4592.8619    18455.831   0.90245999 
    1350    276.61512   -6710.9634   -6680.1066   -4506.7758    18455.831   0.90646299 
    1360    272.26073   -6710.4771    -6680.106   -4467.2196    18455.831   0.91136845 
    1370    268.73878   -6710.0839   -6680.1057   -4589.1112    18455.831   0.91701889 
    1380    269.83102   -6710.2061    -6680.106   -4803.1401    18455.831   0.92344131 
    1390    271.01809   -6710.3391   -6680.1066   -4995.7936    18455.831   0.93117145 
    1400    266.53417   -6709.8383   -6680.1061   -4887.7324    18455.831   0.93925395 
    1410    264.34979   -6709.5941   -6680.1054   -4661.6641    18455.831   0.94440069 
    1420    271.24246   -6710.3639   -6680.1064   -4782.1646    18455.831   0.94464645 
    1430    278.14891   -6711.1341   -6680.1062   -5345.1098    18455.831   0.94130273 
    1440    284.26073    -6711.816   -6680.1063   -5956.3496    18455.831    0.9366539 
    1450    286.06102   -6712.0176    -6680.107   -6473.9841    18455.831   0.93338269 
    1460    278.13817   -6711.1322   -6680.1055    -6637.014    18455.831   0.93336514 
    1470    274.95588   -6710.7774   -6680.1057   -6848.7234    18455.831   0.93597431 
    1480    275.34081   -6710.8209   -6680.1062   -7017.9963    18455.831   0.93943367 
    1490    271.96867   -6710.4442   -6680.1057   -6827.7136    18455.831   0.94245071 
    1500    271.43894   -6710.3851   -6680.1057   -6399.8258    18455.831   0.94456699 
    1510    273.11981   -6710.5738   -6680.1069   -5919.9683    18455.831   0.94612167 
    1520    266.58025   -6709.8431   -6680.1057   -5429.0631    18455.831   0.94681802 
    1530    264.24493   -6709.5825   -6680.1056   -5386.7007    18455.831   0.94511663 
    1540    268.14703   -6710.0187   -6680.1065   -5636.8718    18455.831   0.94138542 
    1550    270.20911    -6710.248   -6680.1058   -5845.7424    18455.831   0.93815309 
    1560    276.27553   -6710.9252   -6680.1062   -5792.6983    18455.831   0.93754478 
    1570    281.48981   -6711.5074   -6680.1068   -5440.6487    18455.831   0.94039184 
    1580    279.21915   -6711.2534    -6680.106   -4999.2991    18455.831   0.94601391 
    1590     277.1071   -6711.0177    -6680.106   -4867.2447    18455.831   0.95254979 
    1600    278.30993   -6711.1519    -6680.106   -4854.7315    18455.831   0.95811089 
    1610    283.09805   -6711.6862   -6680.1062   -4922.4033    18455.831   0.96206314 
    1620    285.07138   -6711.9077   -6680.1076   -4696.0901    18455.831   0.96577017 
    1630    273.23535   -6710.5854   -6680.1056   -4246.7962    18455.831   0.97096923 
    1640     267.7179   -6709.9697   -6680.1053   -4035.6486    18455.831     0.977191 
    1650    272.52244   -6710.5064   -6680.1061   -4111.8074    18455.831   0.98346373 
    1660     277.8589   -6711.1018   -6680.1062   -4253.7363    18455.831   0.98934697 
    1670    281.07361    -6711.461   -6680.1068   -4561.0787    18455.831   0.99446833 
    1680    278.83973   -6711.2107   -6680.1057   -4801.2753    18455.831   0.99855733 
    1690    282.27607   -6711.5942   -6680.1059   -5070.8212    18455.831    1.0013333 
    1700    288.92729   -6712.3376   -6680.1074   -5075.7299    18455.831    1.0032748 
    1710    283.97303   -6711.7838   -6680.1062   -4524.3033    18455.831    1.0056492 
    1720    280.32496   -6711.3763   -6680.1056   -4088.2037    18455.831    1.0090707 
    1730    285.00962   -6711.9005   -6680.1072   -4166.6509    18455.831    1.0129097 
    1740    281.71349    -6711.532   -6680.1064   -4428.6075    18455.831    1.0162807 
    1750    277.27178   -6711.0355   -6680.1055   -4669.9286    18455.831    1.0185587 
    1760    282.23006   -6711.5895   -6680.1063   -4723.6015    18455.831    1.0199448 
    1770    285.90961   -6712.0006   -6680.1069   -4414.9618    18455.831      1.02094 
    1780    282.38129   -6711.6061    -6680.106   -3873.7091    18455.831    1.0213084 
    1790    282.44165    -6711.613   -6680.1062   -3619.8434    18455.831    1.0208436 
    1800    287.55602   -6712.1841   -6680.1067   -3726.4708    18455.831    1.0207901 
    1810    288.11308   -6712.2473   -6680.1079    -3934.633    18455.831    1.0230701 
    1820    276.98552   -6711.0034   -6680.1052    -4186.202    18455.831    1.0283135 
    1830    277.15263   -6711.0235   -6680.1067   -4345.9838    18455.831    1.0350393 
    1840    276.23823   -6710.9215   -6680.1067   -4368.7653    18455.831    1.0414724 
    1850    273.19513   -6710.5804   -6680.1051   -4416.5455    18455.831    1.0455768 
    1860    283.83055   -6711.7684   -6680.1067   -4696.8368    18455.831    1.0462471 
    1870    291.37755   -6712.6113   -6680.1077   -4729.2468    18455.831    1.0448258 
    1880    283.33807   -6711.7134   -6680.1066   -4658.1696    18455.831    1.0428769 
    1890    273.10669    -6710.571   -6680.1055   -4806.2478    18455.831     1.040683 
    1900    272.25017   -6710.4761   -6680.1062   -4992.1727    18455.831    1.0384095 
    1910    274.11365   -6710.6842   -6680.1065    -4851.611    18455.831    1.0367748 
    1920     274.3815    -6710.714   -6680.1064   -4374.9654    18455.831    1.0362621 
    1930    273.80361   -6710.6496   -6680.1064   -3953.3671    18455.831    1.0369737 
    1940    273.81216   -6710.6506   -6680.1064   -3660.7249    18455.831     1.038631 
    1950     274.0972   -6710.6826   -6680.1067   -3555.6748    18455.831    1.0408007 
    1960     275.1804   -6710.8028    -6680.106   -3995.0323    18455.831    1.0431217 
    1970    281.99645   -6711.5638   -6680.1067   -4818.7611    18455.831    1.0450424 
    1980     287.0536   -6712.1285   -6680.1072   -5430.2829    18455.831    1.0464652 
    1990    282.90097   -6711.6645   -6680.1064   -5324.8363    18455.831    1.0478613 
    2000    278.29624   -6711.1501   -6680.1058   -5003.2499    18455.831    1.0492005 
Loop time of 1285.67 on 16 procs for 2000 steps with 864 atoms

Performance: 0.134 ns/day, 178.565 hours/ns, 1.556 timesteps/s
97.6% CPU use with 16 MPI tasks x 1 OpenMP threads

MPI task timing breakdown:
Section |  min time  |  avg time  |  max time  |%varavg| %total
---------------------------------------------------------------
Pair    | 524.07     | 913.29     | 1281.8     | 592.7 | 71.04
Bond    | 0.00014329 | 0.00055398 | 0.0012577  |   0.0 |  0.00
Neigh   | 0.018532   | 0.030333   | 0.05021    |   4.0 |  0.00
Comm    | 3.2988     | 329.39     | 717.48     | 924.7 | 25.62
Output  | 0.16385    | 23.091     | 58.856     | 452.7 |  1.80
Modify  | 0.0087855  | 0.010249   | 0.01517    |   1.7 |  0.00
Other   |            | 19.86      |            |       |  1.54

Nlocal:        54.0000 ave          86 max          35 min
Histogram: 1 1 3 7 2 1 0 0 0 1
Nghost:        537.750 ave         662 max         448 min
Histogram: 3 1 1 5 0 0 3 1 1 1
Neighs:         0.00000 ave           0 max           0 min
Histogram: 16 0 0 0 0 0 0 0 0 0
FullNghs:      2646.75 ave        5387 max        1216 min
Histogram: 2 2 3 4 3 1 0 0 0 1

Total # of neighbors = 42348
Ave neighs/atom = 49.013889
Ave special neighs/atom = 0.0000000
Neighbor list builds = 199
Dangerous builds = 198
unfix   1

velocity    all create 1125.0 1312343 dist gaussian
fix     2 all npt temp 1125.0 1125.0 $(100.0*dt) aniso 0.0 1.01325 $(1000.0*dt)
fix     2 all npt temp 1125.0 1125.0 0.10000000000000000555 aniso 0.0 1.01325 $(1000.0*dt)
fix     2 all npt temp 1125.0 1125.0 0.10000000000000000555 aniso 0.0 1.01325 1
run     3000
Per MPI rank memory allocation (min/avg/max) = 8.897 | 8.909 | 8.917 Mbytes
Step Temp PotEng TotEng Press Volume c_msd[4] 
    2000         1125   -6711.1501   -6585.6547    463.03693    18455.831    1.0492005 
    2010    970.21706   -6693.8338   -6585.6046    4093.7081    18456.253    1.0601095 
    2020    758.29409   -6669.9066   -6585.3178     8731.488    18459.831    1.0843585 
    2030    703.95852   -6663.1633   -6584.6356    9225.6884    18469.766    1.1069808 
    2040    668.66928   -6658.0797   -6583.4886    8322.3974    18486.672    1.1298566 
    2050    638.59181   -6653.3704   -6582.1345    7606.6498    18509.994    1.1535307 
    2060    653.19039   -6653.7075   -6580.8431    6423.8617    18539.154    1.1761871 
    2070    677.58411   -6655.2447   -6579.6592    5697.8686    18573.357    1.1998381 
    2080    702.31445   -6656.8158   -6578.4715    5016.2324    18612.008    1.2255495 
    2090    704.72588   -6655.7654   -6577.1521    4218.6926    18654.567    1.2517583 
    2100    715.71521   -6655.5091     -6575.67    2868.1453    18700.373    1.2770095 
    2110    757.33744   -6658.4368   -6573.9547    527.23415    18748.272     1.303049 
    2120    765.05736   -6657.4195   -6572.0762   -297.57857     18796.55    1.3339719 
    2130    724.43291   -6651.0281   -6570.2165    525.97382    18844.485    1.3702822 
    2140    710.03009   -6647.6043   -6568.3993    880.58811    18892.503    1.4061398 
    2150    728.24344   -6647.7319   -6566.4953   -180.01901    18940.743    1.4384042 
    2160    738.74602   -6646.8843   -6564.4761   -1556.0659    18988.378    1.4688711 
    2170    758.29887   -6646.9717   -6562.3824    -2385.553    19034.287    1.4983971 
    2180    774.85799   -6646.6575    -6560.221   -2548.6369    19077.754    1.5280849 
    2190    770.28777   -6643.9725   -6558.0458   -2420.2248    19118.585    1.5583014 
    2200    768.22483   -6641.5731   -6555.8765   -2272.9712    19156.853    1.5876255 
    2210    778.75957   -6640.5465   -6553.6747   -2254.5796    19192.654    1.6149735 
    2220    784.14274   -6638.9089   -6551.4366   -2285.9201    19226.013    1.6409624 
    2230    791.51351   -6637.4697   -6549.1752   -2765.1063    19256.878    1.6665492 
    2240    806.30961   -6636.8154   -6546.8703   -3380.8354    19284.912     1.693306 
    2250    804.71811   -6634.3121   -6544.5446   -3829.6112    19309.657    1.7212205 
    2260    789.16812    -6630.278   -6542.2451   -3646.7072     19330.84    1.7460384 
    2270    808.78723   -6630.1593   -6539.9379    -3649.496    19348.593    1.7631149 
    2280    841.41917   -6631.4111   -6537.5495   -3545.1854    19362.999    1.7760604 
    2290    856.05354   -6630.6289   -6535.1348   -2854.1384    19374.246    1.7917073 
    2300    864.21691   -6629.1379   -6532.7332   -2350.5505    19382.903    1.8105664 
    2310     891.6943   -6629.7869   -6530.3171   -2399.8031    19389.409    1.8289077 
    2320    897.29781   -6627.9844   -6527.8895   -2650.7506    19393.782    1.8449178 
    2330    900.62273   -6625.9598    -6525.494   -2837.4482    19395.882    1.8578112 
    2340    893.69615   -6622.8031     -6523.11   -2704.0468     19395.61    1.8697609 
    2350    883.02728   -6619.2547   -6520.7517   -1983.2646    19393.135    1.8833706 
    2360    901.58567   -6618.9435   -6518.3703   -1259.6844    19389.062    1.8984538 
    2370    934.20608   -6620.1384   -6515.9263   -1116.3314    19383.964    1.9143538 
    2380    937.74949   -6618.0769   -6513.4696     -517.348    19378.083    1.9303876 
    2390     958.8802   -6618.0048   -6511.0403    92.272831    19371.881    1.9438977 
    2400    961.50148   -6615.8663   -6508.6093    984.60867    19365.893    1.9583336 
    2410    951.12204   -6612.3346   -6506.2355    1961.2784     19360.84    1.9777587 
    2420    947.39627   -6609.5638   -6503.8803    2644.0987    19357.474    1.9994692 
    2430    952.70323   -6607.8014   -6501.5259    3262.3552     19356.36    2.0206923 
    2440    978.21936   -6608.2672   -6499.1454     3084.297    19357.929     2.040374 
    2450    1016.4796   -6610.1191   -6496.7293    1877.2817    19361.957    2.0573001 
    2460    1022.0946   -6608.3596   -6494.3434    1006.9354    19367.525    2.0719875 
    2470    1036.8629    -6607.688   -6492.0244   -118.35473    19373.816    2.0869634 
    2480    1048.0278   -6606.6482   -6489.7391   -656.46775    19379.963    2.1067741 
    2490    1040.4598   -6603.5947   -6487.5299    150.92919    19385.585    2.1324152 
    2500    1030.7191   -6600.3529   -6485.3746    1499.5795    19391.305    2.1615639 
    2510     1032.884   -6598.4769   -6483.2571    1450.2505    19398.083    2.1929047 
    2520    1058.6775     -6599.21   -6481.1129     943.3155    19405.967    2.2257021 
    2530    1083.0817   -6599.7999   -6478.9805    927.97632    19414.575    2.2595986 
    2540    1122.6457   -6602.1248    -6476.892     1290.107    19423.881    2.2951937 
    2550    1120.8699    -6599.937   -6474.9022     2348.749    19434.211    2.3337046 
    2560    1125.4388   -6598.6092   -6473.0648    2944.2284    19446.372    2.3712067 
    2570    1154.0005   -6600.0389   -6471.3084    2279.4633    19460.785      2.40222 
    2580    1158.3289   -6598.8817   -6469.6684    1485.8378    19476.959     2.426364 
    2590     1150.347   -6596.4977   -6468.1747      1307.37    19494.266    2.4519334 
    2600    1104.2738   -6590.0007   -6466.8173    2169.7592    19512.582     2.485984 
    2610    1073.3046   -6585.2608   -6465.5321    2900.2537    19532.538     2.524269 
    2620    1089.2434   -6585.7175   -6464.2108    2934.3056    19554.703    2.5623238 
    2630    1101.7888   -6585.7426   -6462.8364     3114.387    19579.164    2.6046708 
    2640    1114.8048   -6585.8214   -6461.4633      3310.72    19606.049    2.6549772 
    2650    1130.1356   -6586.1726   -6460.1042    2741.7577    19635.434    2.7081714 
    2660    1164.1338    -6588.637   -6458.7761    1675.2431    19666.824    2.7563603 
    2670    1151.1954   -6585.9248   -6457.5072    1209.4138    19699.371    2.7985992 
    2680    1149.7854   -6584.6162   -6456.3559    699.22619    19732.569    2.8381253 
    2690    1144.4989    -6582.938   -6455.2674    650.47089    19766.056     2.879251 
    2700    1177.0531    -6585.555   -6454.2529    214.55156    19799.655    2.9218158 
    2710    1168.0264   -6583.6302   -6453.3351    252.94329     19833.04    2.9700283 
    2720    1145.9333   -6580.3734   -6452.5429    322.47399    19866.184     3.028125 
    2730    1133.8453   -6578.2879   -6451.8058    135.30789    19899.116    3.0924311 
    2740    1128.6808   -6576.9946   -6451.0886    47.278319    19931.676    3.1542724 
    2750    1119.4297   -6575.2536   -6450.3795    133.87679    19963.759    3.2062637 
    2760    1119.9113   -6574.6023   -6449.6745    504.09941    19995.442    3.2474462 
    2770    1128.2256   -6574.8289   -6448.9737     551.7349    20027.008    3.2843704 
    2780    1151.6621   -6576.7467   -6448.2771   -190.21261    20058.455    3.3261977 
    2790    1134.2977   -6574.1369   -6447.6043   -581.12459    20089.219    3.3774017 
    2800    1135.6903   -6573.6673   -6446.9794   -1066.8505    20118.878     3.432212 
    2810    1146.7432   -6574.2871   -6446.3662   -1474.4963    20147.017    3.4868887 
    2820    1146.1102   -6573.6431   -6445.7927   -1697.4012    20173.312    3.5443897 
    2830    1168.3892   -6575.6017   -6445.2661   -2228.2109    20197.566    3.6012606 
    2840    1160.3911   -6574.2559   -6444.8125   -2817.5594     20219.34     3.651417 
    2850    1149.0008   -6572.6172   -6444.4444   -3225.9896    20238.154    3.6979162 
    2860    1136.7235   -6570.9369   -6444.1337    -3636.539    20253.681    3.7441808 
    2870    1134.5976   -6570.4326   -6443.8665   -3937.6948    20265.609    3.7882542 
    2880    1116.8606   -6568.2008   -6443.6133    -3164.578     20273.82    3.8306178 
    2890    1132.0135   -6569.6493   -6443.3714   -2693.1155    20278.944    3.8722923 
    2900    1134.4228   -6569.6825   -6443.1359   -2429.2355    20281.523    3.9169621 
    2910    1142.0807   -6570.3352   -6442.9344   -2414.7809    20281.833    3.9653503 
    2920    1135.5409   -6569.4389   -6442.7677    -2071.698    20279.975    4.0135367 
    2930    1141.2406   -6569.9349   -6442.6278   -1525.6052    20276.296    4.0562553 
    2940    1149.6647   -6570.7671   -6442.5203   -1155.8469     20271.29    4.0960476 
    2950    1146.9841   -6570.4048    -6442.457   -1234.6227    20265.281    4.1346545 
    2960    1146.9835   -6570.3895   -6442.4418   -1048.9056    20258.287    4.1725235 
    2970    1163.2773   -6572.2615   -6442.4962   -748.78227    20250.468    4.2115992 
    2980    1139.3755    -6569.705   -6442.6059   -253.90516    20242.134    4.2548143 
    2990    1139.6313   -6569.9028   -6442.7752   -95.641584    20233.673     4.298822 
    3000    1118.6571   -6567.7401   -6442.9523    450.06592    20225.308    4.3412857 
    3010    1127.4603    -6568.907   -6443.1371     427.4978    20217.415    4.3821967 
    3020    1150.0909   -6571.6285   -6443.3341    17.389086    20210.001    4.4215453 
    3030    1137.2539   -6570.4381   -6443.5758     177.0495     20202.77    4.4558153 
    3040    1135.8605   -6570.5649   -6443.8579   -183.36762    20195.744    4.4819972 
    3050    1133.1915   -6570.5721   -6444.1629    -442.6903    20188.645    4.5010205 
    3060    1132.2401   -6570.7852   -6444.4821   -519.13446    20181.255     4.518424 
    3070    1156.0301   -6573.7974   -6444.8406   -739.96707    20173.485    4.5380934 
    3080     1141.301   -6572.5582   -6445.2444   -534.66433    20165.192    4.5581301 
    3090    1166.6568   -6575.8635   -6445.7212   -1151.7648     20156.43    4.5765976 
    3100    1165.4816   -6576.3044   -6446.2932   -1186.4619    20146.783    4.6006693 
    3110    1118.9422   -6571.7407    -6446.921   -478.17647    20136.237    4.6351445 
    3120    1097.3631   -6569.9424   -6447.5299   -198.45046    20125.328    4.6771141 
    3130    1075.7316     -6568.05   -6448.0505    7.2835631     20114.36    4.7248358 
    3140    1105.6775   -6571.8282   -6448.4882   -428.72565    20103.446    4.7759516 
    3150    1128.4572   -6574.7774   -6448.8963   -222.54597    20092.322    4.8276905 
    3160    1104.3098   -6572.4798   -6449.2924    558.78762    20081.154    4.8766685 
    3170    1096.9851   -6572.0034   -6449.6331     1000.291    20070.565    4.9199402 
    3180    1140.3187   -6577.1573    -6449.953    381.33463    20060.863    4.9559464 
    3190    1140.5251   -6577.5225   -6450.2952    32.961033    20051.621    4.9877636 
    3200    1135.6038   -6577.3622   -6450.6839   -591.52711    20042.451    5.0189779 
    3210    1122.9824   -6576.3544   -6451.0841   -939.50809     20032.86    5.0568257 
    3220    1103.0326   -6574.5151   -6451.4702   -262.32361    20022.594    5.1043304 
    3230    1083.8177   -6572.6947   -6451.7932    437.09633    20012.174    5.1574596 
    3240      1104.38   -6575.2429   -6452.0476     846.8655    20002.205     5.205914 
    3250    1115.7159    -6576.716   -6452.2562    1464.4631    19993.078    5.2469928 
    3260    1103.1065   -6575.4845   -6452.4314    1953.1764    19985.321    5.2820533 
    3270    1101.1606   -6575.4068   -6452.5707    1192.2029    19979.241    5.3122453 
    3280    1119.4294   -6577.5477   -6452.6736    165.16361    19974.257    5.3427571 
    3290    1119.9783   -6577.7039   -6452.7686   -121.78436    19969.505    5.3782139 
    3300    1077.1143     -6572.97   -6452.8163     695.3426    19964.779    5.4228343 
    3310    1106.2664   -6576.2068   -6452.8011    621.85615      19960.6    5.4792899 
    3320    1102.5405   -6575.7037   -6452.7137    1171.9206    19957.066    5.5466622 
    3330    1084.6227   -6573.5635   -6452.5722    1722.5191    19954.596    5.6131565 
    3340    1095.3409   -6574.5401   -6452.3532    1736.9778    19953.613    5.6655593 
    3350    1112.1073   -6576.1276   -6452.0704    2162.3112    19954.215    5.7025238 
    3360    1103.2579   -6574.8282   -6451.7581    2918.2896    19956.766    5.7328297 
    3370    1081.5112   -6572.0383   -6451.3941    2873.0903     19961.85    5.7659351 
    3380     1088.393   -6572.3555   -6450.9436    2072.3819    19969.401    5.7978119 
    3390    1105.1378   -6573.6893   -6450.4095    1678.7287    19978.811    5.8273198 
    3400    1121.8831   -6574.9709   -6449.8231      1484.76    19989.679    5.8601913 
    3410    1120.5319   -6574.2161   -6449.2191    1816.8687    20001.877    5.8987244 
    3420    1126.2412   -6574.2488   -6448.6149    1546.1231    20015.604     5.943328 
    3430    1126.1874   -6573.6353   -6448.0074    1130.6246    20030.663    5.9997752 
    3440    1148.6503   -6575.5475   -6447.4138    524.73046    20046.646    6.0713232 
    3450    1138.8364   -6573.8931   -6446.8542    494.02945    20063.095    6.1469938 
    3460    1123.2745   -6571.6365   -6446.3335    335.00807    20079.923    6.2135759 
    3470    1130.0091    -6571.876   -6445.8218    175.19346    20096.998    6.2701903 
    3480    1150.8078    -6573.696   -6445.3217   -28.147357    20114.151    6.3254633 
    3490    1135.3514    -6571.514   -6444.8639    439.91447    20131.278    6.3862194 
    3500    1115.3755    -6568.873   -6444.4512    745.57741    20148.721    6.4548303 
    3510    1121.5762   -6569.1427   -6444.0292    433.39279    20166.718    6.5322485 
    3520    1111.7614   -6567.5985   -6443.5798    156.98942    20185.062    6.6118094 
    3530    1118.3186     -6567.84   -6443.0898   -808.44648    20203.417     6.681928 
    3540    1145.8901   -6570.3967   -6442.5709   -1787.2691    20220.951    6.7434627 
    3550    1154.9951   -6570.9145   -6442.0731   -2204.4268    20236.835    6.8063101 
    3560    1156.8893   -6570.7015   -6441.6488   -2250.1985    20250.661     6.875796 
    3570    1130.1987   -6567.3682   -6441.2928   -1280.9733     20262.47    6.9491341 
    3580    1133.2187   -6567.3909   -6440.9786   -819.72019        20273    7.0198445 
    3590    1139.4308   -6567.7769   -6440.6717   -1099.5662    20282.682    7.0876534 
    3600    1144.2927    -6568.036   -6440.3884   -1928.2132    20291.273    7.1587794 
    3610     1117.541   -6564.8099   -6440.1465     -1853.72    20298.153     7.236567 
    3620    1096.2218    -6562.185   -6439.8998   -1897.7757    20303.291    7.3139887 
    3630     1129.318   -6565.5874   -6439.6102   -2917.7182     20306.59     7.385645 
    3640    1153.4032   -6567.9836   -6439.3198   -3089.4952    20307.286    7.4593941 
    3650    1140.6071   -6566.3271   -6439.0907   -2345.8575    20305.223    7.5390415 
    3660    1110.1881   -6562.7372   -6438.8941   -1735.8934    20301.026    7.6113234 
    3670     1108.375   -6562.3139    -6438.673   -1494.6279    20295.233    7.6633628 
    3680    1135.4534   -6565.0721   -6438.4105    -1057.467    20288.124    7.7043456 
    3690    1159.6308   -6567.5194   -6438.1608   -292.01461    20280.099    7.7467854 
    3700    1160.0185   -6567.3834   -6437.9816    203.95712    20271.809    7.7965965 
    3710    1116.4923   -6562.3984    -6437.852    799.54369    20263.777    7.8496063 
    3720    1122.9126   -6562.9979   -6437.7353    861.92732    20256.472    7.8971874 
    3730    1135.6964    -6564.282   -6437.5933    737.85263    20249.993    7.9409306 
    3740    1145.0621    -6565.213   -6437.4796     881.3681    20244.238    7.9877949 
    3750    1129.1238    -6563.369   -6437.4136    1520.8944    20239.347    8.0485782 
    3760    1079.1029   -6557.7094   -6437.3339    2129.6906    20235.882    8.1206418 
    3770    1132.5399   -6563.5436   -6437.2071    693.72065    20234.191    8.1940746 
    3780     1171.785   -6567.7896   -6437.0752   -457.07093     20233.17    8.2699544 
    3790    1131.1697   -6563.1879   -6437.0042    173.46742    20231.905    8.3484572 
    3800    1133.5018    -6563.425   -6436.9812    103.11188    20230.743    8.4223185 
    3810    1151.5852   -6565.4385   -6436.9774   -432.76405    20229.642    8.4943016 
    3820    1149.2357   -6565.2263   -6437.0274   -515.07915    20228.196     8.562175 
    3830    1128.7843   -6563.0394   -6437.1218   -308.82229    20226.313    8.6143564 
    3840    1097.9181   -6559.6969   -6437.2225    374.10653    20224.206     8.653408 
    3850     1113.985   -6561.5555   -6437.2888    111.72239    20222.347    8.6850294 
    3860    1131.1681   -6563.5144   -6437.3309    -184.6121     20220.58    8.7115124 
    3870    1130.3857   -6563.4721   -6437.3759    286.26571    20218.729    8.7350435 
    3880     1165.668   -6567.4857   -6437.4537   -101.49272    20217.056     8.761591 
    3890    1193.1912   -6570.7315   -6437.6292   -202.63305     20215.33    8.7970957 
    3900    1174.8523   -6569.0107   -6437.9542    671.56726    20213.509    8.8462283 
    3910    1147.5516   -6566.3899   -6438.3788    1350.0321    20212.298    8.9026996 
    3920    1159.5139   -6568.2249   -6438.8794    915.97551    20212.226    8.9561689 
    3930      1149.01   -6567.6184   -6439.4446    755.12468    20213.037    9.0036105 
    3940    1138.4819   -6567.0608   -6440.0615    935.39452    20214.577    9.0463457 
    3950      1141.12   -6568.0022   -6440.7085    965.87991    20216.969    9.0916172 
    3960    1144.3567   -6569.0411   -6441.3864    533.48284     20220.22    9.1429525 
    3970    1147.6809   -6570.1345    -6442.109    522.30431    20224.012    9.1954099 
    3980    1132.5515   -6569.1991   -6442.8613    737.44029    20228.344    9.2475996 
    3990    1134.3171   -6570.1556   -6443.6208   -389.26118    20233.246    9.3079153 
    4000    1127.4077   -6570.1534   -6444.3894   -1003.6975     20237.86    9.3757468 
    4010    1099.2898   -6567.7454   -6445.1179   -552.42004     20241.67    9.4389073 
    4020    1106.6855   -6569.2519   -6445.7995   -205.06806    20244.962    9.4897609 
    4030    1096.4976   -6568.7297   -6446.4138   -140.98982    20248.065    9.5323355 
    4040    1105.6187   -6570.3082   -6446.9748    -799.5978        20251    9.5692498 
    4050    1119.4324   -6572.3679   -6447.4936   -1804.8587    20253.188     9.609153 
    4060    1119.1157   -6572.8353   -6447.9962   -2529.3746    20253.748    9.6669071 
    4070    1102.7828   -6571.4974   -6448.4803   -2041.0842    20252.108    9.7397571 
    4080    1095.0902   -6571.0772   -6448.9183    -1396.697    20248.594    9.8148611 
    4090    1085.6363   -6570.3944     -6449.29   -475.69839    20243.805    9.8894044 
    4100    1058.3924   -6567.6216   -6449.5563     915.5698    20238.601    9.9604536 
    4110    1065.9437   -6568.6049   -6449.6973     1412.935    20234.134    10.024325 
    4120    1073.0052   -6569.4052   -6449.7099    1471.4944    20230.928    10.085928 
    4130    1077.9738   -6569.8696     -6449.62    1221.6426    20229.013    10.147169 
    4140    1072.3127   -6569.0428   -6449.4247     975.0417    20228.217    10.205138 
    4150    1087.4687   -6570.4299   -6449.1212    827.98499    20228.331    10.256358 
    4160    1114.1902   -6573.0163   -6448.7267     1115.762    20229.256    10.304657 
    4170    1123.6678   -6573.6354   -6448.2886    1026.2574    20231.186    10.351105 
    4180    1107.2432   -6571.3531   -6447.8384    997.68629    20234.085    10.391287 
    4190    1085.8765   -6568.4836   -6447.3525    1150.7078     20237.95    10.425846 
    4200    1115.6492   -6571.2536   -6446.8013    691.94684    20242.851    10.459182 
    4210    1125.9712    -6571.821   -6446.2172    354.07265    20248.434    10.498137 
    4220    1092.5993   -6567.5134   -6445.6324    475.42626    20254.436    10.547851 
    4230    1114.1778   -6569.3003   -6445.0121    493.62074    20260.915    10.607537 
    4240    1152.7148    -6572.944   -6444.3569    491.87027    20267.898    10.676638 
    4250    1146.3435    -6571.611   -6443.7347    814.47281    20275.427    10.754802 
    4260     1141.468    -6570.513   -6443.1805    946.66947    20283.754    10.840269 
    4270    1129.1037   -6568.6265   -6442.6733    646.84998    20292.984    10.924529 
    4280    1111.3587   -6566.1536   -6442.1798    353.35245    20302.883    10.992179 
    4290    1102.3629   -6564.6242    -6441.654     27.65032    20313.192    11.035321 
    4300    1112.7802   -6565.1998   -6441.0675   -887.23986    20323.549    11.062191 
    4310    1133.6083   -6566.9177    -6440.462   -1501.0611    20333.177    11.089585 
    4320    1111.5166   -6563.8414     -6439.85   -1322.5437    20341.567    11.125149 
    4330    1118.9483   -6564.0649   -6439.2446   -1482.0754    20348.742    11.163478 
    4340    1121.7861    -6563.764   -6438.6271   -1392.1371    20354.627    11.204342 
    4350    1138.5908   -6565.0275    -6438.016   -1059.4486    20359.284    11.251241 
    4360    1151.7381   -6565.8885   -6437.4104   -783.18625     20362.98    11.304575 
    4370    1146.4976   -6564.7496    -6436.856   -839.85487    20365.962    11.369387 
    4380    1127.9095   -6562.1747   -6436.3547   -1026.3078    20368.186    11.451039 
    4390    1124.1978    -6561.287   -6435.8811   -1147.9528    20369.479    11.546361 
    4400    1131.6209   -6561.6431    -6435.409   -1310.7818    20369.717    11.639718 
    4410    1131.1531   -6561.1322   -6434.9504   -1205.3695    20368.764    11.714812 
    4420    1125.8703   -6560.0969   -6434.5043   -848.24914     20366.73    11.767992 
    4430     1150.354   -6562.3992   -6434.0755   -1349.3801    20363.823    11.794476 
    4440    1165.1305    -6563.659   -6433.6869   -1827.9002    20359.643    11.798715 
    4450    1178.4019   -6564.8532   -6433.4007   -1422.1687    20353.805    11.797425 
    4460    1162.8591   -6562.9227    -6433.204    -85.65126    20346.698    11.804695 
    4470    1183.4991   -6565.1273   -6433.1062    577.41755    20339.402    11.829584 
    4480    1197.5275    -6566.721    -6433.135    665.89075     20332.57    11.872542 
    4490    1190.3255    -6566.122   -6433.3394    274.34355     20326.28    11.924858 
    4500    1172.7771   -6564.5379   -6433.7129   -89.639669    20320.213    11.977388 
    4510    1138.0247   -6561.1435   -6434.1952   -149.44525    20314.064     12.02876 
    4520    1130.6237   -6560.8471   -6434.7243   -344.13374     20307.73    12.081264 
    4530    1119.6093   -6560.1591    -6435.265   -179.55651     20301.08    12.127913 
    4540    1122.4639   -6561.0061   -6435.7936    32.755062    20294.237    12.156336 
    4550    1136.0493   -6563.0514   -6436.3234    237.78885    20287.394    12.174186 
    4560     1123.773   -6562.2208   -6436.8622    519.76705    20280.747     12.19918 
    4570    1112.2446   -6561.4546   -6437.3821    815.69492    20274.553    12.231737 
    4580    1121.5039   -6562.9904   -6437.8849    674.70279    20269.022    12.264486 
    4590    1090.5856   -6560.0169   -6438.3605    957.93393    20264.128     12.29872 
    4600    1054.1766   -6556.3426   -6438.7476    1006.2199    20260.074    12.337291 
    4610    1061.5612   -6557.4113   -6438.9925   -15.767747    20256.845    12.371051 
    4620    1086.0899   -6560.2584   -6439.1034   -984.72108    20253.593    12.392656 
    4630    1104.3155   -6562.3314   -6439.1433   -637.86902    20249.551    12.405423 
    4640     1087.689   -6560.4698   -6439.1364    539.35989    20244.979     12.42397 
    4650    1076.5686   -6559.1461   -6439.0532    1522.5124    20240.864    12.451493 
    4660    1112.7017   -6563.0017   -6438.8782    1188.5603    20238.008    12.484507 
    4670    1126.5664   -6564.3117   -6438.6416    645.12215    20236.231    12.520735 
    4680    1120.9491   -6563.4406   -6438.3971    576.03443    20235.079      12.5498 
    4690    1112.1675   -6562.1869    -6438.123    443.70162    20234.433    12.567144 
    4700    1127.0474   -6563.5451   -6437.8213    -11.81487    20234.168    12.574468 
    4710    1122.2589   -6562.6925   -6437.5028   -16.521485    20233.942      12.5766 
    4720     1123.143   -6562.4682   -6437.1799    276.32837    20233.717    12.572874 
    4730    1108.9195    -6560.537   -6436.8354    1102.3464    20233.802    12.572563 
    4740    1106.6256   -6559.8975   -6436.4517    1174.1766    20234.823    12.592137 
    4750    1116.3921   -6560.5514   -6436.0161    1528.2234    20236.953    12.635188 
    4760     1092.579   -6557.3954   -6435.5166    2157.2957     20240.54    12.688312 
    4770    1112.0749   -6558.9963   -6434.9426    1780.9668    20246.052    12.730699 
    4780    1124.1433   -6559.7095   -6434.3097    1498.7225    20253.247    12.754449 
    4790    1114.2448   -6557.9508   -6433.6551    1967.4845    20261.958    12.774338 
    4800    1147.1544   -6560.9612   -6432.9944    1866.3279    20272.487    12.810771 
    4810    1159.2541   -6561.6797   -6432.3632    1743.0159     20284.82    12.864193 
    4820    1139.7631   -6558.9453    -6431.803    1695.5464    20298.876    12.927295 
    4830    1164.2724   -6561.1697   -6431.2934    795.08965    20314.528    12.991786 
    4840    1193.9533   -6564.0514   -6430.8641    45.532227    20331.064    13.059195 
    4850    1171.4331   -6561.2436   -6430.5684    -211.0063    20347.808    13.131818 
    4860    1127.9406      -6556.2   -6430.3766   -234.59741    20364.501    13.203322 
    4870    1136.5044   -6557.0062   -6430.2274   -594.61541    20381.065    13.266896 
    4880    1133.9049   -6556.5737   -6430.0849    -400.7356    20397.259    13.320653 
    4890    1128.0754   -6555.7979   -6429.9594   -180.57779    20413.201    13.365611 
    4900    1151.6399   -6558.3187   -6429.8515   -452.85223    20429.034    13.406372 
    4910    1151.0356   -6558.1789   -6429.7791   -433.14399      20444.6      13.4483 
    4920    1156.0533   -6558.7248   -6429.7654    -729.1534     20459.83    13.496429 
    4930    1150.1439   -6558.1122   -6429.8119   -852.32202    20474.497    13.548743 
    4940    1150.6915   -6558.2772   -6429.9159   -1220.9584     20488.44    13.597056 
    4950    1159.2255   -6559.4055   -6430.0921   -1998.2617     20501.29    13.628627 
    4960     1151.793   -6558.8628   -6430.3786   -2422.8214    20512.387    13.644239 
    4970      1112.65    -6554.873   -6430.7552   -2493.1342    20521.307    13.665813 
    4980     1110.244   -6555.0367   -6431.1873   -2478.2336    20527.941    13.701287 
    4990    1120.3514   -6556.6521   -6431.6752    -2430.379    20532.279    13.745904 
    5000    1115.6362   -6556.6801   -6432.2292   -2388.5644    20534.357    13.794336 
Loop time of 1936.66 on 16 procs for 3000 steps with 864 atoms

Performance: 0.134 ns/day, 179.321 hours/ns, 1.549 timesteps/s
97.5% CPU use with 16 MPI tasks x 1 OpenMP threads

MPI task timing breakdown:
Section |  min time  |  avg time  |  max time  |%varavg| %total
---------------------------------------------------------------
Pair    | 1311.8     | 1670.3     | 1888       | 405.5 | 86.25
Bond    | 0.00025439 | 0.00080793 | 0.0018201  |   0.0 |  0.00
Neigh   | 0.035572   | 0.044129   | 0.055506   |   2.5 |  0.00
Comm    | 43.201     | 214.14     | 537.27     |1020.8 | 11.06
Output  | 0.20538    | 0.21795    | 0.40505    |  10.3 |  0.01
Modify  | 5.2255     | 51.955     | 87.362     | 496.1 |  2.68
Other   |            | 0.01358    |            |       |  0.00

Nlocal:        54.0000 ave          61 max          43 min
Histogram: 1 0 1 1 3 1 3 0 5 1
Nghost:        503.938 ave         555 max         461 min
Histogram: 1 1 4 3 0 3 0 1 1 2
Neighs:         0.00000 ave           0 max           0 min
Histogram: 16 0 0 0 0 0 0 0 0 0
FullNghs:      2255.75 ave        2902 max        1578 min
Histogram: 1 1 0 4 2 0 4 3 0 1

Total # of neighbors = 36092
Ave neighs/atom = 41.773148
Ave special neighs/atom = 0.0000000
Neighbor list builds = 300
Dangerous builds = 300
unfix   2

fix     3 all npt temp 1125.0 1125.0 $(100.0*dt) aniso 1.01325 1.01325 $(1000.0*dt)
fix     3 all npt temp 1125.0 1125.0 0.10000000000000000555 aniso 1.01325 1.01325 $(1000.0*dt)
fix     3 all npt temp 1125.0 1125.0 0.10000000000000000555 aniso 1.01325 1.01325 1
run     20000
Per MPI rank memory allocation (min/avg/max) = 8.901 | 8.909 | 8.917 Mbytes
Step Temp PotEng TotEng Press Volume c_msd[4] 
    5000    1115.6362   -6556.6801   -6432.2292   -2388.5644    20534.357    13.794336 
    5010    1138.1733   -6559.1963   -6432.2313   -2551.7914     20533.21    13.847634 
    5020    1156.0972   -6561.2262   -6432.2618   -2166.8759    20529.724    13.909655 
    5030    1147.4071   -6560.3558   -6432.3608   -1572.4172     20524.21    13.977802 
    5040    1132.9442   -6558.8938   -6432.5122   -1494.9803    20517.172     14.04854 
    5050    1118.7493    -6557.491   -6432.6928    -1633.716    20508.709    14.113542 
    5060    1099.8982   -6555.5552   -6432.8599   -1506.0005    20498.734    14.158082 
    5070    1125.7917   -6558.5866   -6433.0028   -1559.4725    20487.316    14.171248 
    5080    1145.7328   -6560.9607   -6433.1525   -1181.0833    20474.463    14.161614 
    5090     1168.979   -6563.7682   -6433.3669   -574.81447    20460.513    14.150048 
    5100    1179.5266   -6565.2842   -6433.7063   -123.58975     20445.98    14.155844 
    5110    1155.8184   -6563.1314   -6434.1982    313.17497     20431.31    14.183861 
    5120    1127.9223   -6560.6319   -6434.8105    467.44556     20416.89    14.226348 
    5130    1126.3751   -6561.1657   -6435.5169    455.70885    20402.891    14.281323 
    5140    1118.8414   -6561.1291   -6436.3207    143.90692    20389.269    14.338011 
    5150    1093.7559   -6559.1827   -6437.1726    211.98614    20375.814    14.382244 
    5160    1123.1009   -6563.3497   -6438.0661   -335.71654    20362.473    14.414889 
    5170    1128.7704   -6564.9393   -6439.0233   -252.63481    20348.868    14.439177 
    5180    1106.4037   -6563.4298   -6440.0088     287.3903    20335.029    14.459895 
    5190    1093.7235   -6562.9608   -6440.9543    598.86657    20321.409    14.476943 
    5200    1100.2871   -6564.5854   -6441.8467    623.50715    20308.288    14.496629 
    5210    1066.3503   -6561.5653   -6442.6123    1377.4535    20295.804    14.533609 
    5220    1067.1388   -6562.2526   -6443.2116    1764.1559    20284.522    14.588843 
    5230    1082.5771   -6564.4205   -6443.6574    1917.9751     20274.83    14.660148 
    5240    1089.3551   -6565.4902    -6443.971    1969.8518    20266.885    14.736789 
    5250    1114.6522   -6568.5521   -6444.2109    1884.4885    20260.715    14.794076 
    5260    1119.1087   -6569.2475   -6444.4092    2299.4348    20256.311    14.825063 
    5270    1104.7811    -6567.816    -6444.576    2257.1572    20253.975     14.84709 
    5280    1074.4722   -6564.5396   -6444.6806    1716.7944    20253.675    14.883721 
    5290    1058.4158   -6562.7486   -6444.6807    1150.4953     20254.94    14.945416 
    5300    1072.5537   -6564.2013   -6444.5564    934.35154    20257.292    15.026357 
    5310    1072.9607   -6564.0068   -6444.3164    1755.2481    20260.624    15.117883 
    5320    1110.0179   -6567.8315   -6444.0073    2178.8757    20265.556    15.204357 
    5330    1142.8271   -6571.1628   -6443.6787    1992.9213    20272.476    15.277199 
    5340    1131.6747   -6569.6412   -6443.4012    1949.4929    20281.288    15.334225 
    5350    1130.4519   -6569.2858   -6443.1822    1719.6103    20291.923     15.37771 
    5360    1102.8269   -6566.0088   -6442.9868     2100.425    20304.271    15.428019 
    5370    1070.9731   -6562.2486   -6442.7799    2390.3879    20318.632     15.49427 
    5380    1081.7047   -6563.1754   -6442.5097    1776.2881    20335.223    15.571022 
    5390    1093.3556   -6564.1306   -6442.1651    1482.0736    20353.634    15.646913 
    5400    1119.4585    -6566.682   -6441.8047    1141.5976    20373.541    15.713324 
    5410    1133.8224   -6567.9501   -6441.4705    1206.2388    20394.709    15.772123 
    5420    1129.5311   -6567.2046   -6441.2038    1393.8751    20417.181    15.830315 
    5430    1122.6028    -6566.225    -6440.997    1119.7381    20441.095    15.884533 
    5440    1101.1477   -6563.6455   -6440.8108    339.54425    20466.187    15.929476 
    5450    1087.7511   -6561.9356   -6440.5953   -319.00006    20491.796    15.975024 
    5460    1102.3202   -6563.3088   -6440.3433   -441.19194    20517.324    16.031445 
    5470    1097.5558   -6562.5017   -6440.0677   -260.53376    20542.653    16.106288 
    5480    1130.8556   -6565.9385   -6439.7898   -1194.3709    20567.813    16.198504 
    5490    1136.1526   -6566.2723   -6439.5328   -1917.8538    20592.053    16.287848 
    5500    1099.0472   -6561.9111   -6439.3107   -1617.5864    20614.732    16.356723 
    5510    1081.0303   -6559.6726    -6439.082   -943.11009    20636.057     16.39743 
    5520      1094.57   -6560.9025   -6438.8016    -801.2512    20656.594    16.430179 
    5530    1099.0753   -6561.0706   -6438.4671   -1339.0911    20676.431    16.483413 
    5540    1086.3128   -6559.2758    -6438.096   -1553.1898    20695.152    16.548694 
    5550    1092.8207   -6559.5865   -6437.6807   -1567.2409    20712.517    16.605003 
    5560     1111.552   -6561.2267   -6437.2314   -1441.2767      20728.5    16.652474 
    5570    1121.9256    -6561.937   -6436.7845   -1768.9505    20743.151    16.699571 
    5580    1095.7523   -6558.5788    -6436.346   -2316.6298    20756.183    16.751123 
    5590    1075.7396    -6555.887   -6435.8866   -2640.3649    20767.094    16.810262 
    5600    1072.7085   -6555.0249   -6435.3626   -3079.6648    20775.518    16.877883 
    5610    1067.2517   -6553.8215   -6434.7679   -3876.3634    20780.976    16.945441 
    5620    1048.6834   -6551.0851   -6434.1029   -4048.3488    20782.779    16.999247 
    5630    1074.4658   -6553.2199   -6433.3616   -4225.3781    20780.666    17.038949 
    5640     1111.802    -6556.595   -6432.5718   -4089.7937    20774.491     17.07358 
    5650    1121.5562   -6556.9302   -6431.8189   -2769.8322    20764.458    17.105336 
    5660    1129.2557   -6557.1191   -6431.1489   -1433.0635    20751.671    17.138618 
    5670    1113.5731   -6554.7792   -6430.5585   -303.45283    20737.399    17.175033 
    5680    1105.5019    -6553.352   -6430.0316    150.96428    20722.674    17.212463 
    5690    1096.8851   -6551.8896   -6429.5304    369.59836    20707.968     17.25526 
    5700    1104.3139   -6552.2279     -6429.04    389.86705     20693.49    17.300355 
    5710    1127.9342   -6554.3981   -6428.5753    279.95147    20679.261     17.35114 
    5720    1105.4539   -6551.4545   -6428.1395    630.19902     20665.24    17.397465 
    5730    1123.9408   -6553.1205   -6427.7432    269.78591    20651.637    17.417987 
    5740    1143.1496   -6554.8838   -6427.3638   -262.10739    20638.181    17.431068 
    5750    1160.4173   -6556.5105   -6427.0642   -138.36425     20624.41    17.459201 
    5760    1150.4911   -6555.1902   -6426.8511    1054.6439     20610.48    17.494908 
    5770    1141.0876   -6553.9991   -6426.7091    1821.8746    20597.392    17.546051 
    5780    1123.6709   -6551.9479   -6426.6007    1395.8897     20585.81     17.62411 
    5790    1122.3174   -6551.6987   -6426.5025    839.44335    20575.446    17.718596 
    5800    1118.9748   -6551.2199   -6426.3966    571.89168    20565.801    17.812235 
    5810      1114.76   -6550.6413   -6426.2881    581.25773    20556.625    17.905235 
    5820    1105.0375   -6549.4257   -6426.1571    802.41057    20547.925    17.991916 
    5830    1118.5463   -6550.7719   -6425.9964    671.01021    20539.866    18.056142 
    5840    1143.1773   -6553.3407   -6425.8176     231.8075    20532.332    18.104712 
    5850    1174.0661   -6556.6574   -6425.6886   -261.58206    20524.905    18.152236 
    5860     1171.068   -6556.2867   -6425.6523   -50.753418    20517.207     18.20601 
    5870    1143.6302   -6553.2828   -6425.7092    530.51091    20509.414    18.265235 
    5880    1131.0897   -6551.9942   -6425.8195    393.92172    20501.976    18.317443 
    5890    1134.3932   -6552.5051   -6425.9619   -287.65456    20494.767    18.359875 
    5900    1124.8445   -6551.6118   -6426.1337     61.52868    20487.277    18.391065 
    5910    1106.5306   -6549.7512   -6426.3161    1244.6222    20479.813     18.39622 
    5920    1111.9977    -6550.527    -6426.482    2063.9974     20473.39    18.378292 
    5930    1115.2432   -6551.0325   -6426.6254    2407.8583    20468.776    18.371368 
    5940    1121.7622   -6551.9003   -6426.7661    2361.5645    20466.337     18.40052 
    5950    1137.5111   -6553.8148   -6426.9237    1494.2272    20466.024    18.446522 
    5960    1152.4556   -6555.6968   -6427.1386    503.16121    20467.121    18.493378 
    5970    1141.9378   -6554.8303   -6427.4454    81.164377    20468.772    18.542815 
    5980    1120.3822   -6552.8259   -6427.8456   -60.676554    20470.544    18.599662 
    5990    1111.3205   -6552.2853   -6428.3158   -245.69417    20472.282    18.673977 
    6000    1117.0503   -6553.4605   -6428.8518   -45.566592    20473.866    18.761546 
    6010    1107.1481    -6552.962    -6429.458    1190.4164    20475.533    18.848845 
    6020    1107.4962   -6553.6818   -6430.1389    2374.4549     20478.33    18.922563 
    6030    1082.8398   -6551.6412   -6430.8488    3244.2783    20483.411    18.977856 
    6040    1079.5944   -6551.9724    -6431.542    3178.3893    20491.572    19.019599 
    6050    1097.5911   -6554.6409   -6432.2029    2283.1654     20502.83    19.064322 
    6060    1105.0177   -6556.1151   -6432.8487    1292.5658    20516.449    19.120111 
    6070    1096.9617   -6555.8495   -6433.4817    453.65895    20531.545    19.181564 
    6080    1075.8117   -6554.0645   -6434.0561    173.39851    20547.411    19.246541 
    6090     1087.386   -6555.8661   -6434.5666   -794.23523     20563.66    19.315934 
    6100    1073.7725   -6554.7633   -6434.9824   -1915.7901    20579.437    19.399388 
    6110    1057.6879    -6553.269   -6435.2824   -2305.4905    20593.727    19.495532 
    6120    1075.5539   -6555.4461   -6435.4664   -2282.0844    20606.111    19.581663 
    6130    1090.1079   -6557.1592   -6435.5561   -2466.9256    20616.511     19.65084 
    6140    1102.3976   -6558.5514   -6435.5773   -2503.0732     20624.77    19.714747 
    6150    1101.3116   -6558.4044   -6435.5514   -2219.3872    20630.813    19.784969 
    6160    1090.0917   -6557.0665   -6435.4652   -1694.3053    20634.865     19.86047 
    6170    1107.3792   -6558.8473   -6435.3175   -1562.0308    20637.324    19.930773 
    6180    1087.6219   -6556.4199    -6435.094   -895.23904    20638.399    19.990032 
    6190     1071.208   -6554.2737   -6434.7789    79.422495    20638.662     20.04889 
    6200    1072.8273   -6553.9908   -6434.3153     725.4633    20638.975    20.119144 
    6210    1092.8115   -6555.5988    -6433.694    413.66781    20639.912      20.1984 
    6220     1089.683   -6554.4788    -6432.923    48.629596    20641.255    20.272453 
    6230    1070.7071   -6551.4557   -6432.0167    24.701178    20642.712    20.333393 
    6240    1115.4293   -6555.3873   -6430.9595   -767.38405    20644.139    20.375651 
    6250    1128.1666   -6555.6727    -6429.824   -917.70734    20644.914    20.411131 
    6260    1084.7476   -6549.7257   -6428.7205    -77.60352    20644.919    20.464069 
    6270    1081.8959   -6548.3468   -6427.6597    379.20902     20644.82    20.535945 
    6280    1110.2225   -6550.4666   -6426.6196    719.50461     20645.09     20.61365 
    6290    1111.4885   -6549.6631   -6425.6748    1898.2272    20646.144    20.689243 
    6300      1104.81    -6548.111   -6424.8678    2331.0544    20648.976    20.754838 
    6310    1121.3754   -6549.2614   -6424.1703    1605.6263    20654.014    20.798893 
    6320    1156.8818   -6552.6517   -6423.5998     496.4121    20660.668    20.833793 
    6330    1155.1473   -6552.0273   -6423.1688    407.11855    20668.029    20.888732 
    6340    1139.0528   -6549.9286   -6422.8656    1063.4902    20676.019     20.96915 
    6350      1157.49    -6551.767   -6422.6473    910.33882    20685.154    21.056264 
    6360    1165.1242   -6552.4875   -6422.5161    328.26533    20695.341    21.142986 
    6370    1159.8037   -6551.8542   -6422.4763   -419.95382    20706.072    21.232793 
    6380    1168.4972   -6552.8633   -6422.5157   -1178.8058    20716.648    21.331007 
    6390    1151.9697   -6551.1496   -6422.6457   -987.96178    20726.402    21.428848 
    6400    1134.0231   -6549.3363   -6422.8343   -526.57588    20735.451    21.505391 
    6410    1131.1314   -6549.2337   -6423.0543   -951.09773    20744.115    21.564413 
    6420    1097.3863    -6545.669   -6423.2539   -1257.9365    20752.069    21.623127 
    6430    1123.7705   -6548.7775   -6423.4192   -1674.5398    20758.959    21.683837 
    6440    1136.7492   -6550.3672   -6423.5612   -1789.6945     20764.41    21.752134 
    6450    1137.7175   -6550.6439   -6423.7298   -1758.8167    20768.254    21.818242 
    6460    1138.3387   -6550.9297   -6423.9463   -1670.3275    20770.478    21.875674 
    6470    1109.1789   -6547.9161   -6424.1856   -1170.9972    20771.175    21.925891 
    6480    1115.3498   -6548.8293   -6424.4104   -1346.7826    20770.692    21.972718 
    6490    1166.3541   -6554.7563   -6424.6478   -2348.1685    20768.813    22.022405 
    6500    1172.1093   -6555.7322   -6424.9816   -2813.1201    20764.656    22.087183 
    6510    1135.9787   -6552.1305   -6425.4103   -2688.4092    20757.742    22.155415 
    6520    1139.8044   -6553.0456   -6425.8987   -2993.4641    20748.029     22.20431 
    6530    1141.6485   -6553.7863   -6426.4337   -2785.0741    20735.274    22.238877 
    6540    1144.6647   -6554.7526   -6427.0635   -2336.7802    20719.583    22.285045 
    6550    1139.3854   -6554.8713   -6427.7712   -1928.1712    20701.328    22.356332 
    6560    1132.7138   -6554.8896   -6428.5337   -986.12901    20680.927    22.438997 
    6570    1104.6393   -6552.5144   -6429.2902    532.44597    20659.255    22.519214 
    6580    1100.7374   -6552.7744   -6429.9855    1235.4784    20637.644     22.59633 
    6590    1128.3512    -6556.517   -6430.6478    1026.2557    20616.776    22.663774 
    6600    1107.3205   -6554.8212    -6431.298    1329.1948    20596.581    22.726084 
    6610    1067.6475    -6550.957   -6431.8593    1856.6492     20577.36    22.789479 
    6620    1071.7024   -6551.8672   -6432.3172    1467.3054    20559.524    22.852446 
    6630    1061.8272   -6551.0913   -6432.6428    1194.6703     20542.84    22.916419 
    6640    1073.4937   -6552.5825   -6432.8326    861.98599    20527.021     22.98512 
    6650    1085.6502   -6554.0012   -6432.8952    904.67076    20511.834    23.047368 
    6660    1110.8741   -6556.7999   -6432.8802    1086.6307    20497.289    23.081474 
    6670    1104.9209   -6556.0643   -6432.8087    1897.8407    20483.632    23.105279 
    6680    1109.0174   -6556.4233   -6432.7108    2327.2915    20471.541    23.140182 
    6690     1089.999   -6554.1561   -6432.5651    2510.7632    20461.476    23.184993 
    6700    1089.1124   -6553.8649   -6432.3728    2072.9678    20453.575    23.227123 
    6710    1058.8961   -6550.2091   -6432.0876    1962.1025    20447.569    23.254576 
    6720     1057.292   -6549.5956   -6431.6531    1318.5377    20443.289    23.273347 
    6730    1112.5053   -6555.1514   -6431.0498    263.43071    20440.163     23.29528 
    6740    1125.9734   -6555.9312   -6430.3272     600.8195    20437.379    23.324561 
    6750    1107.6376   -6553.1125   -6429.5539    1735.5561    20435.189    23.360758 
    6760    1136.5909   -6555.4863   -6428.6978    1945.1937    20434.514    23.401897 
    6770    1149.6596   -6556.0052   -6427.7589    2009.8226    20435.659    23.439211 
    6780    1119.6886   -6551.7094   -6426.8064    2566.5603    20438.763    23.463896 
    6790    1126.7416   -6551.5286   -6425.8389    2285.6085    20444.218    23.481175 
    6800     1141.986   -6552.2353    -6424.845    1973.1713    20451.879    23.523372 
    6810    1157.3581   -6552.9883   -6423.8833    1924.1739    20461.507    23.614992 
    6820    1176.7087   -6554.2744   -6423.0108    1388.1348     20472.98    23.755108 
    6830    1185.9606   -6554.6079   -6422.3122    856.85037     20485.86    23.920455 
    6840    1155.8603   -6550.7453   -6421.8073     668.9136    20499.681    24.078086 
    6850      1141.81   -6548.8321   -6421.4615    480.58319    20514.229     24.20885 
    6860     1124.226   -6546.6123   -6421.2032    493.18662    20529.361    24.323967 
    6870    1128.2223   -6546.8644   -6421.0095    580.44222    20545.056    24.438596 
    6880     1107.934     -6544.44   -6420.8483    1856.3032    20561.525    24.546775 
    6890    1136.2034   -6547.4725   -6420.7273    1972.3261    20579.731    24.639988 
    6900    1153.4799   -6549.3253   -6420.6529    805.92596     20599.81    24.730329 
    6910    1156.5203   -6549.6662   -6420.6546    -806.2683    20620.717    24.813668 
    6920    1142.0381   -6548.1068   -6420.7107   -2001.1266    20640.985    24.869548 
    6930    1138.4666   -6547.7804   -6420.7828   -2758.9563    20659.437    24.901016 
    6940    1121.0572   -6545.9002   -6420.8446   -2384.3803    20675.423    24.920444 
    6950    1105.8259   -6544.2386   -6420.8821   -2240.3316    20689.149    24.937094 
    6960     1105.632   -6544.2058   -6420.8709   -2630.3749    20700.707     24.95848 
    6970    1117.1538   -6545.4355   -6420.8153   -2444.9572    20709.818    24.999496 
    6980    1156.7374   -6549.8123   -6420.7766   -2286.7252     20716.58    25.070835 
    6990    1157.6975   -6549.9391   -6420.7962   -1814.2998    20721.192    25.163253 
    7000    1152.5847   -6549.4725   -6420.8999    -1835.431    20724.013    25.257276 
    7010    1144.6517   -6548.7502   -6421.0625   -2031.1396    20725.066    25.345826 
    7020    1122.7351   -6546.4961   -6421.2533   -1715.9693    20724.238    25.429349 
    7030    1114.8034   -6545.7828   -6421.4248   -1254.3751    20721.792    25.492728 
    7040    1120.9637   -6546.6352     -6421.59   -703.92874    20718.168    25.517481 
    7050    1117.1294   -6546.3743   -6421.7568    -181.4208    20713.893    25.508896 
    7060    1121.9634   -6547.0744   -6421.9177    499.50111    20709.488    25.505959 
    7070    1133.0104   -6548.4547   -6422.0657    959.82772    20705.569    25.543041 
    7080     1173.476   -6553.1611    -6422.258    631.31571      20702.5     25.60708 
    7090    1166.8582   -6552.7155   -6422.5507    489.51603    20700.069    25.662907 
    7100     1149.579   -6551.1995   -6422.9622    215.88169    20698.105     25.69314 
    7110     1123.982   -6548.8259    -6423.444    -84.55669    20696.359    25.701492 
    7120    1123.2453   -6549.2501   -6423.9504   -354.14769    20694.543    25.711741 
    7130    1124.9403   -6549.9586   -6424.4698   -795.71082    20692.378    25.739636 
    7140    1095.0315   -6547.1465   -6424.9941   -307.43842    20689.554    25.778712 
    7150    1102.6667   -6548.4731   -6425.4689   -274.26035    20686.409    25.828016 
    7160    1172.7872   -6556.7973   -6425.9711   -1195.9055    20682.917    25.891383 
    7170    1168.9499   -6557.0007   -6426.6026   -991.01704    20678.398    25.962792 
    7180    1097.6604   -6549.7474   -6427.3018    52.675678    20673.041    26.033623 
    7190    1092.8075   -6549.8683   -6427.9639    -384.0025    20667.603    26.100409 
    7200    1098.8935   -6551.1516   -6428.5684   -863.49482    20661.825    26.168993 
    7210    1105.7053   -6552.4654   -6429.1224    -1026.106    20655.264    26.245141 
    7220    1136.4994   -6556.4491   -6429.6709   -1137.3913    20647.752    26.319531 
    7230    1129.8005   -6556.2651   -6430.2341   -535.15714    20639.239    26.385561 
    7240    1098.9462   -6553.3822   -6430.7931    228.13712    20630.235    26.437196 
    7250    1074.2595   -6551.1103   -6431.2751    948.63062    20621.486    26.479485 
    7260    1086.5011   -6552.8509   -6431.6501     759.5042    20613.564    26.525272 
    7270    1094.0797   -6554.0004   -6431.9542    403.65249    20606.371    26.577033 
    7280    1076.3574   -6552.2637   -6432.1945    333.73971    20599.599     26.62175 
    7290    1068.8358   -6551.5632   -6432.3329    413.77237    20593.182    26.652759 
    7300    1082.1609    -6553.085   -6432.3683    728.84512    20587.191    26.665434 
    7310    1084.5747   -6553.2866   -6432.3007    852.52189    20581.875    26.665212 
    7320    1077.2655   -6552.3069   -6432.1363     659.6977    20577.332    26.672099 
    7330    1093.0817   -6553.8044   -6431.8695    786.48507    20573.441     26.69729 
    7340    1104.8104   -6554.7212   -6431.4779    1347.4786    20570.341    26.740514 
    7350    1109.9231   -6554.8011   -6430.9875     1670.201    20568.477    26.796152 
    7360    1103.9325   -6553.5122   -6430.3669     1991.436    20568.214    26.850336 
    7370    1122.9256   -6554.8564   -6429.5924    2031.7151     20569.82    26.897277 
    7380    1139.2354   -6555.7337   -6428.6503    1897.2869    20573.338    26.938878 
    7390    1146.5228   -6555.4677   -6427.5713    1731.0973    20578.656    26.967117 
    7400    1139.7675   -6553.5252   -6426.3824    1170.4189    20585.586    26.982409 
    7410    1151.3853   -6553.5457    -6425.107    53.812047    20593.589    27.015369 
    7420    1157.4957   -6552.9224    -6423.802   -208.20236     20601.74    27.081851 
    7430    1157.9846   -6551.7528   -6422.5779    216.61229    20609.765    27.165713 
    7440    1161.2704   -6551.0298   -6421.4883    564.74639    20618.004    27.249944 
    7450     1161.353   -6550.1347    -6420.584     1289.521    20626.845    27.320457 
    7460    1173.4674   -6550.7718   -6419.8697     1793.125    20636.919     27.35915 
    7470    1163.2643   -6549.1219    -6419.358    1706.2697    20648.683    27.368118 
    7480    1153.2006   -6547.6603   -6419.0191    1324.6333    20662.095    27.369666 
    7490    1157.9114   -6547.9589   -6418.7921    777.24389    20676.809    27.394746 
    7500    1156.9524   -6547.7257   -6418.6659    276.72649    20692.319     27.46512 
    7510    1143.8017   -6546.2116   -6418.6188    106.94922    20708.179    27.571095 
    7520    1144.5229   -6546.2984   -6418.6252   -153.72422    20724.197    27.695081 
    7530    1151.7468   -6547.1437   -6418.6646   -865.23904    20740.089    27.802749 
    7540    1160.2362   -6548.1708   -6418.7447   -1377.5373    20755.231    27.857115 
    7550    1157.0467   -6547.9603     -6418.89   -1545.7133    20769.118    27.861706 
    7560    1139.9915   -6546.2498    -6419.082   -1683.5798    20781.575    27.854426 
    7570    1140.5502    -6546.531   -6419.3009    -1695.831    20792.452     27.86646 
    7580    1143.4961   -6547.0882   -6419.5295   -1128.8092    20801.791    27.897658 
    7590    1164.9749   -6549.7613   -6419.8066   -1429.9767    20809.965    27.944805 
    7600    1141.3972   -6547.4439   -6420.1194   -1060.5619    20816.848    28.002916 
    7610    1148.9203   -6548.6367    -6420.473   -502.69908    20822.736    28.066207 
    7620    1161.0398   -6550.3727    -6420.857   -574.04477    20828.112     28.12708 
    7630    1180.7306   -6553.0343    -6421.322   -1162.4302    20832.899    28.173836 
    7640     1166.575   -6552.0201   -6421.8869   -1156.8056    20836.652    28.197631 
    7650    1146.0274   -6550.3455   -6422.5044   -1218.2551    20839.293    28.201301 
    7660    1155.3779   -6552.0379   -6423.1537   -1529.3566    20840.732    28.204486 
    7670    1128.0647   -6549.6425   -6423.8052   -1356.1339    20840.767    28.232839 
    7680    1139.9896   -6551.6008   -6424.4333   -1593.2893    20839.451    28.303366 
    7690    1152.5332   -6553.6179   -6425.0511   -1344.2414    20836.649    28.391046 
    7700    1149.2978   -6553.8771   -6425.6712   -856.11585     20832.55    28.453979 
    7710    1153.4328   -6554.9564   -6426.2892   -354.94835     20827.61    28.482486 
    7720    1134.6615   -6553.4738   -6426.9006    100.06917    20822.308     28.48677 
    7730    1100.8381   -6550.2514   -6427.4513   -92.983815    20817.016     28.48113 
    7740    1085.4628   -6548.9587   -6427.8737   -244.43083    20811.643    28.482201 
    7750    1100.4274   -6550.9314   -6428.1771   -688.33411    20805.965    28.513912 
    7760    1091.5053    -6550.147    -6428.388   -682.00505    20799.638    28.588835 
    7770    1086.5376   -6549.7085   -6428.5036   -655.96662    20792.637    28.695345 
    7780    1099.1096   -6551.1464   -6428.5391   -1000.8682    20784.945    28.812764 
    7790    1091.6462   -6550.2826   -6428.5078   -1067.7182    20776.295    28.924551 
    7800    1095.4021   -6550.6118   -6428.4181    -1087.683    20766.576    29.010163 
    7810    1110.4577   -6552.1589   -6428.2857   -949.98813    20755.779    29.065549 
    7820    1105.6977    -6551.463   -6428.1208   -949.63019     20744.01    29.106436 
    7830    1116.8126   -6552.5125   -6427.9304   -1061.3677    20731.265    29.147313 
    7840    1148.7261   -6555.8881    -6427.746   -938.16446    20717.449    29.188702 
    7850    1165.3297   -6557.6141   -6427.6198   -680.10057    20702.688    29.210903 
    7860    1161.7935   -6557.1858    -6427.586   -651.08101    20687.173    29.192712 
    7870    1142.5406   -6555.0811    -6427.629   -323.53775    20670.986    29.142675 
    7880    1146.1118   -6555.5582   -6427.7077    -135.8704    20654.385     29.10688 
    7890    1148.9115   -6555.9962   -6427.8334    287.24071    20637.597    29.112936 
    7900    1121.9445   -6553.1409   -6427.9863    1082.4442    20621.052    29.146355 
    7910    1104.9127   -6551.3838   -6428.1292    1321.2687    20605.421     29.18806 
    7920    1123.2348   -6553.5466    -6428.248    994.01529    20590.921    29.238598 
    7930     1119.995   -6553.2885   -6428.3514    1094.9494    20577.344    29.288376 
    7940     1118.184   -6553.1908   -6428.4557    798.05107    20564.679    29.322434 
    7950    1100.7893   -6551.3317    -6428.537    1088.5337    20552.773     29.35191 
    7960     1083.083   -6549.3739   -6428.5543    1819.9256    20541.893    29.394948 
    7970    1113.2679   -6552.6776   -6428.4908    1543.2433    20532.588    29.446376 
    7980    1142.6974   -6555.8709   -6428.4013    1270.4888    20524.708    29.502322 
    7990     1125.126   -6553.8205    -6428.311    1388.5321    20518.024    29.563759 
    8000    1142.9765   -6555.7426   -6428.2418    1197.1218    20512.586    29.630945 
    8010    1127.9458   -6554.0065   -6428.1824    1595.3639    20508.327    29.704346 
    8020    1122.8733   -6553.3975   -6428.1393    1674.4525    20505.516    29.772521 
    8030    1118.9892   -6552.9074   -6428.0824    926.19973    20504.189    29.823466 
    8040    1109.3235   -6551.7339   -6427.9872    515.39307    20503.774    29.862403 
    8050    1100.4136   -6550.5861   -6427.8333    565.00989    20503.888    29.900045 
    8060    1106.4119   -6551.0107   -6427.5888    699.66163    20504.548    29.938901 
    8070    1116.8247    -6551.816   -6427.2325    675.59243    20505.872    29.980306 
    8080    1135.5611   -6553.4495   -6426.7759    510.66094    20507.824    30.021833 
    8090    1157.4708   -6555.3604   -6426.2428    670.13029     20510.31    30.053321 
    8100    1168.8297   -6556.0888   -6425.7041    753.97766    20513.431    30.070291 
    8110    1138.6814    -6552.217   -6425.1954    1286.5621    20517.325    30.088498 
    8120    1127.0346   -6550.4095   -6424.6871    1687.4753    20522.433    30.125593 
    8130    1148.4253   -6552.2545    -6424.146    1539.8133    20529.116    30.180011 
    8140    1151.0977   -6552.0054   -6423.5987    853.17804    20537.268    30.227264 
    8150     1153.569    -6551.772   -6423.0897     332.2571    20546.305    30.247519 
    8160    1146.4952   -6550.5167   -6422.6234    506.87437    20555.792    30.244689 
    8170    1164.5939   -6552.1142    -6422.202   -47.680652    20565.753    30.239236 
    8180    1149.6344   -6550.0766   -6421.8331    45.475531    20575.819    30.257346 
    8190    1157.6542   -6550.6585   -6421.5205     440.5057     20586.03    30.292687 
    8200    1209.9082   -6556.2538   -6421.2867    149.61601     20596.68    30.326888 
    8210     1212.362   -6556.4717   -6421.2309   -10.351791    20607.573    30.369484 
    8220    1182.3048   -6553.2663   -6421.3784    65.134279    20618.575    30.436881 
    8230    1170.5518   -6552.2564   -6421.6796   -362.66546    20629.684    30.537035 
    8240    1139.4926    -6549.179   -6422.0669   -856.48014    20640.526    30.654634 
    8250    1156.1354   -6551.5028   -6422.5341   -1721.2284    20650.607    30.764139 
    8260    1146.6276    -6550.979    -6423.071   -1630.0754     20659.23    30.860511 
    8270    1121.8653   -6548.8142   -6423.6684   -834.10294    20666.426    30.945515 
    8280    1115.8269   -6548.7497   -6424.2775   -686.07527    20672.807     31.02447 
    8290    1124.6831   -6550.3424   -6424.8823   -739.08438    20678.578    31.089498 
    8300    1123.3413   -6550.7995   -6425.4891   -1248.7601    20683.661    31.134899 
    8310     1110.639   -6549.9895    -6426.096   -1482.8332    20687.626    31.162592 
    8320    1089.8499   -6548.2234    -6426.649   -954.34904    20690.292    31.186882 
    8330    1103.9787   -6550.3003   -6427.1498   -988.57333    20691.988    31.220271 
    8340     1098.469   -6550.1195   -6427.5836   -997.83413     20692.78    31.271122 
    8350    1104.5942     -6551.19   -6427.9708   -981.30555    20692.632    31.347909 
    8360    1107.5408   -6551.8559   -6428.3081   -1205.8409     20691.54    31.439188 
    8370    1122.1809   -6553.8042   -6428.6232    -2015.099    20689.238    31.530001 
    8380    1110.9032   -6552.8527   -6428.9298   -2013.2482    20685.059    31.612418 
    8390    1095.4647   -6551.4003   -6429.1996   -1440.9264    20678.957    31.683966 
    8400    1088.1922   -6550.8095     -6429.42   -756.87142    20671.414    31.749039 
    8410     1086.607   -6550.7702   -6429.5575    383.42576    20663.122     31.80893 
    8420    1115.2339   -6554.0317   -6429.6257    1365.1267    20655.091    31.866311 
    8430    1136.4121   -6556.4433   -6429.6749    1886.1084     20648.25    31.941838 
    8440    1125.5107   -6555.2846   -6429.7322    1882.9051    20643.131    32.035493 
    8450     1154.737   -6558.6414   -6429.8288    946.81735    20639.662    32.112429 
    8460    1144.4462   -6557.6473   -6429.9826     1178.929    20637.182    32.168793 
    8470     1125.799    -6555.797   -6430.2124    2035.2899    20635.854    32.217101 
[...]
   22890    1175.8872   -6559.3874   -6428.2154    32.670079    20519.309    116.90546 
   22900     1163.255   -6558.7252   -6428.9624   -368.41963    20533.404    116.86787 
   22910     1131.081   -6556.0165   -6429.8427   -605.17076    20547.181    116.87637 
   22920    1134.9286   -6557.4222   -6430.8192   -1466.9697    20560.337    116.94208 
   22930    1108.1831   -6555.4547   -6431.8352   -1717.3829    20572.178    117.07474 
   22940    1076.0616   -6552.8434   -6432.8071   -1535.4889    20582.425    117.21453 
   22950     1069.797   -6552.9704   -6433.6329    -1424.541    20591.217    117.27792 
   22960    1089.0345   -6555.8281   -6434.3447   -1421.1871    20598.625    117.24782 
   22970    1074.3998   -6554.7676   -6434.9167   -764.81767    20604.739    117.16491 
   22980    1088.4104     -6556.76   -6435.3461   -716.83767    20610.069    117.07506 
   22990     1101.417   -6558.5338    -6435.669     -1311.28    20614.653    116.99632 
   23000    1094.7749   -6558.0281   -6435.9044   -1933.1883    20617.995    116.94541 
   23010     1093.617   -6558.0615   -6436.0669   -2601.5956    20619.486    116.91873 
   23020    1092.4984   -6558.0279   -6436.1581   -2351.8447    20618.579    116.88629 
   23030    1074.1751   -6555.9951   -6436.1693   -1204.3735    20615.548    116.85521 
   23040    1092.8671   -6558.0261   -6436.1152   -623.05032    20611.333    116.86654 
   23050    1064.7859   -6554.7433   -6435.9648    195.55179    20606.592    116.93405 
   23060    1073.4552   -6555.4594   -6435.7139    400.74382    20602.019    117.04888 
   23070    1105.0242   -6558.6338   -6435.3667    246.66775    20597.833    117.21814 
   23080    1090.9082   -6556.6651   -6434.9726    170.91525    20593.906    117.42509 
   23090    1078.7879   -6554.8865   -6434.5461   -613.39069    20590.092    117.59715 
   23100    1085.2354   -6555.1273   -6434.0676   -1699.7051    20585.699    117.69039 
   23110    1102.8243   -6556.5793   -6433.5576   -2137.1094    20579.783    117.74042 
   23120    1113.7887   -6557.2985   -6433.0537   -1924.4946    20571.941    117.80474 
   23130    1109.0245   -6556.2837   -6432.5704   -1334.7627    20562.366    117.91236 
   23140    1085.2251     -6553.18   -6432.1215   -845.56473    20551.583    118.03702 
   23150    1060.2482    -6549.944   -6431.6717   -246.37713    20540.091    118.10751 
   23160    1067.2275    -6550.238   -6431.1872   -101.99307     20528.39    118.09138 
   23170     1091.169   -6552.3978   -6430.6763   -416.30424    20516.618    118.01169 
   23180    1123.3169   -6555.5054   -6430.1977   -570.54294    20504.524    117.90574 
   23190    1121.1331   -6554.8556   -6429.7916   -261.94497    20491.985    117.79897 
   23200     1103.262   -6552.5282   -6429.4576    363.24459    20479.292    117.69331 
   23210    1102.0048   -6552.0698   -6429.1395    74.622842    20466.934    117.58527 
   23220    1119.5997   -6553.7341   -6428.8411   -910.67258    20454.631    117.48489 
   23230    1111.1853   -6552.5138   -6428.5594   -770.67708    20441.645    117.39998 
   23240    1105.3333   -6551.5817   -6428.2801   -213.96438     20428.03    117.34599 
   23250    1134.6964   -6554.5732   -6427.9961   -205.37236    20414.213    117.33412 
   23260    1179.7706    -6559.368   -6427.7628   -10.546338    20400.272    117.33104 
   23270    1172.8494   -6558.4715   -6427.6384    1135.1426    20386.455    117.31045 
   23280    1152.0694     -6556.13   -6427.6149    1929.6055    20373.701    117.27674 
   23290    1152.1434   -6556.1913   -6427.6679    2371.5808    20362.733    117.24234 
   23300    1096.5346    -6550.059    -6427.739      3420.98    20354.061    117.22366 
   23310    1103.6452   -6550.8893    -6427.776     3482.429    20348.509    117.23336 
   23320    1142.8342   -6555.2667   -6427.7819    2893.9766    20346.132    117.27124 
   23330    1137.3795   -6554.6986   -6427.8222    3118.9541    20346.499    117.33844 
   23340    1129.0669   -6553.8467   -6427.8976    3355.3195    20349.748    117.40321 
   23350     1144.312   -6555.6575   -6428.0078    3040.7957    20356.045    117.43022 
   23360    1127.7383    -6553.947   -6428.1461    3022.2639      20365.2    117.43868 
   23370    1107.1417   -6551.8126   -6428.3093    3047.8975    20377.156    117.45217 
   23380    1075.7809   -6548.4409   -6428.4359    3080.1885    20391.944    117.47351 
   23390    1087.9043   -6549.8331   -6428.4757    2709.4748    20409.568    117.49366 
   23400    1114.9513   -6552.8097   -6428.4352    2460.7088    20429.745    117.50999 
   23410     1105.636   -6551.6876   -6428.3523    2974.7934    20452.308    117.51979 
   23420    1135.4838   -6554.9058   -6428.2409     3040.871    20477.617    117.53854 
   23430    1158.6184   -6557.3752   -6428.1296    2743.2656     20505.78     117.5882 
   23440    1181.0676   -6559.8323   -6428.0824    1629.9764    20536.471    117.68105 
   23450    1170.1191   -6558.6637   -6428.1351    812.99054    20568.745     117.7975 
   23460    1108.8043   -6551.9585   -6428.2697    667.55785    20601.852    117.92083 
   23470    1107.5393   -6551.9395   -6428.3918   -396.77619    20635.498    118.06938 
   23480    1128.6649   -6554.3731   -6428.4689   -1344.6139    20668.776     118.2345 
   23490    1110.9385   -6552.4576   -6428.5307   -1800.5648    20700.778     118.3812 
   23500    1121.4657    -6553.693   -6428.5918   -2431.8028    20730.979    118.47799 
   23510    1115.0967    -6553.036   -6428.6453    -2552.793    20758.831    118.53944 
   23520    1085.7222   -6549.8013   -6428.6873   -2133.7217      20784.2    118.59812 
   23530    1080.1229    -6549.152   -6428.6627   -2056.6916    20807.411    118.67128 
   23540     1099.652    -6551.206   -6428.5381   -2813.0525    20828.483    118.76719 
   23550    1090.1102   -6549.9292   -6428.3258   -3305.1792    20846.796    118.88561 
   23560    1062.1545   -6546.5013   -6428.0164   -3384.4291    20861.881    119.01658 
   23570    1069.8961   -6546.9049   -6427.5564   -3456.7463    20873.626    119.14464 
   23580    1095.7989   -6549.1572   -6426.9191   -3379.9775    20881.981    119.28089 
   23590    1104.4191   -6549.3353   -6426.1357   -3188.6415    20887.038     119.4398 
   23600    1110.8802   -6549.1735   -6425.2531   -2922.9622    20888.986    119.59412 
   23610    1100.5067   -6547.0642    -6424.301   -2587.3132    20888.102    119.71498 
   23620    1103.0808    -6546.357   -6423.3066   -3270.6171    20884.619    119.79984 
   23630    1117.6853   -6546.9731   -6422.2936   -3941.2474    20877.983    119.84872 
   23640    1109.1581    -6545.048   -6421.3198   -3554.3132    20867.644     119.8663 
   23650    1117.1209   -6545.0241   -6420.4076   -3168.3355    20853.891    119.86717 
   23660    1158.5614   -6548.8087   -6419.5694   -3292.9395    20837.068    119.86847 
   23670    1170.6178   -6549.4525   -6418.8684   -2769.0215    20817.203    119.85978 
   23680    1168.4061   -6548.6787   -6418.3412   -2149.7021    20794.751    119.83211 
   23690    1175.4458   -6549.0754   -6417.9526     -2035.78    20770.271    119.78864 
   23700    1155.5177   -6546.5952   -6417.6955   -1523.4757    20743.994    119.73001 
   23710    1184.0648   -6549.6315   -6417.5473   -1338.4392    20716.362    119.65884 
   23720     1199.175   -6551.3015   -6417.5318   -777.43701    20687.639    119.57303 
   23730    1184.7525   -6549.8297   -6417.6687    501.06497    20658.396    119.47714 
   23740    1177.7058   -6549.2875   -6417.9126    1235.1959     20629.77    119.41075 
   23750     1201.617   -6552.3377   -6418.2955    1216.5946    20602.438    119.38594 
   23760    1189.3924   -6551.5135    -6418.835    1303.1887    20576.457    119.36119 
   23770    1168.0608   -6549.7952   -6419.4963    1377.5131    20551.885    119.30051 
   23780    1130.3743   -6546.3154   -6420.2204    1385.8011    20528.764    119.22324 
   23790    1097.6872   -6543.3393   -6420.8907    1745.0083    20507.153    119.15389 
   23800    1144.8106   -6549.2102   -6421.5049    1049.4652    20487.221    119.10522 
   23810    1178.6069   -6553.6155   -6422.1401    723.58721    20468.461    119.06286 
   23820    1179.1888   -6554.3934   -6422.8531    1031.5363    20450.553    119.02126 
   23830    1143.5742   -6551.1901   -6423.6227    1682.0393    20433.757    118.98552 
   23840    1132.5372   -6550.6896   -6424.3534    1920.8546    20418.612    118.94422 
   23850    1143.5645   -6552.6148   -6425.0485    1494.7015    20405.295    118.88058 
   23860    1123.1495   -6550.9727   -6425.6836    1535.1134    20393.507    118.80496 
   23870    1145.6317   -6554.0604   -6426.2635    1618.1508     20383.22    118.75785 
   23880    1127.4078   -6552.5556   -6426.7916    2498.7429    20374.591    118.78087 
   23890    1110.6069   -6551.1384   -6427.2486    2971.8193    20368.284    118.86853 
   23900    1149.6205   -6555.8932   -6427.6513    2538.7152    20364.682    118.99379 
   23910    1179.6083    -6559.663   -6428.0759    2366.2459    20363.487    119.13414 
   23920      1166.01   -6558.6436   -6428.5734    2663.5436    20364.528    119.25617 
   23930    1131.6297   -6555.3298   -6429.0948    3365.5688    20368.077    119.36011 
   23940     1127.617   -6555.3772   -6429.5898    3102.9307    20374.636    119.45218 
   23950    1123.2664   -6555.3365   -6430.0345    2725.4629    20384.058    119.52199 
   23960    1135.7519   -6557.1354   -6430.4406    1524.7858    20395.893    119.55363 
   23970    1148.6977   -6558.9725   -6430.8335    907.36623    20409.172    119.53966 
   23980     1138.454   -6558.2422   -6431.2459    1378.3812    20423.353    119.53308 
   23990    1095.2361   -6553.8214   -6431.6462    2265.0947    20438.822    119.58384 
   24000    1052.6956   -6549.3779   -6431.9481    2242.5185    20456.281    119.70246 
   24010    1074.4566   -6551.9633   -6432.1061    1267.4417    20475.705    119.85899 
   24020     1095.851   -6554.3725   -6432.1286    360.20247    20496.291    120.00199 
   24030    1110.7187   -6555.9829   -6432.0806   -326.12556    20517.193    120.10194 
   24040    1119.7528   -6556.9129   -6432.0028   -228.61438    20537.806    120.20306 
   24050    1127.4108    -6557.685   -6431.9206    197.91739    20558.195    120.35989 
   24060    1142.7189   -6559.3202   -6431.8482   -122.41883    20578.647    120.57144 
   24070    1155.2617    -6560.676   -6431.8048   -758.12433    20598.897    120.80273 
   24080    1162.4054   -6561.4922   -6431.8242   -1516.6769    20618.378    120.99237 
   24090    1133.2731   -6558.3285   -6431.9102   -1630.7426    20636.439    121.09857 
   24100    1100.1621   -6554.7339   -6432.0092    -1559.594    20652.923    121.15094 
   24110    1106.0155   -6555.4388   -6432.0611   -2315.4553    20667.796    121.20743 
   24120     1094.309   -6554.1294   -6432.0576   -2397.5375    20680.496    121.30336 
   24130    1089.3969   -6553.5288   -6432.0049    -2141.932    20690.903    121.44598 
   24140     1100.595   -6554.6526   -6431.8795   -1859.6935     20699.24    121.62173 
   24150    1115.5549   -6556.1264   -6431.6846   -1876.3151    20705.756    121.83698 
   24160    1110.9279   -6555.3596   -6431.4339   -2068.5943    20710.473    122.09143 
   24170    1104.1504   -6554.2904   -6431.1208   -2598.1378    20713.169    122.34909 
   24180    1120.1831   -6555.6888   -6430.7307    -3200.375    20713.376     122.5494 
   24190    1108.1537   -6553.8686   -6430.2524   -3442.6649    20710.561    122.64694 
   24200    1095.1686   -6551.8351   -6429.6674   -3518.6664    20704.478    122.65461 
   24210    1095.5078   -6551.1223   -6428.9168   -3547.0602    20695.062    122.62645 
   24220    1098.7072   -6550.5246   -6427.9622   -3454.3767    20682.299    122.61508 
   24230    1112.0967   -6550.8644   -6426.8083   -3034.6352    20666.324    122.62843 
   24240    1136.6786   -6552.2939   -6425.4957   -2306.7604    20647.551    122.63744 
   24250    1155.5414   -6553.0536   -6424.1513   -1533.5891    20626.657    122.62815 
   24260    1167.4645   -6553.1522   -6422.9198   -956.75137    20604.357    122.61232 
   24270    1156.7791   -6550.9198   -6421.8793   -266.26751    20581.249    122.62847 
   24280    1134.4346   -6547.5868    -6421.039    240.55063    20557.974    122.68594 
   24290    1122.7956   -6545.5978   -6420.3482     514.7063    20535.001    122.73185 
   24300    1143.3469   -6547.2999   -6419.7578    754.39708    20512.606    122.68867 
   24310    1167.7942   -6549.5389   -6419.2697    934.56331    20491.001    122.57276 
   24320    1163.7611   -6548.7497   -6418.9304    1472.9405    20470.395    122.45137 
   24330    1156.0292   -6547.6712   -6418.7144    2033.5727    20451.269    122.36942 
   24340    1166.6385   -6548.7343   -6418.5941    2155.6604    20434.085    122.34624 
   24350     1197.322    -6552.155   -6418.5919     1836.034     20418.95    122.37735 
   24360    1204.7223   -6553.1354   -6418.7468    1196.0429    20405.556    122.43929 
   24370    1193.1948   -6552.1711   -6419.0684    1102.1532    20393.373    122.51229 
   24380    1204.5313   -6553.9175   -6419.5502    1446.0779    20382.296    122.57612 
   24390    1173.8033   -6551.1071   -6420.1676    2373.2847    20372.668    122.62843 
   24400    1129.6557   -6546.8425   -6420.8277    3372.2579    20365.285    122.71251 
   24410    1121.1468   -6546.5182   -6421.4526    3488.2809    20360.984    122.84033 
   24420    1123.8953   -6547.3982    -6422.026    2987.8601    20359.876    122.95686 
   24430    1130.7171   -6548.6861   -6422.5529       2469.4    20361.546    123.03034 
   24440    1134.2614   -6549.5889   -6423.0603    2122.2052    20365.509    123.08647 
   24450    1119.1752   -6548.3897    -6423.544    1974.4216    20371.432    123.13805 
   24460     1128.888    -6549.931   -6424.0018    1760.3079    20379.165    123.15728 
   24470    1125.9419   -6550.0394   -6424.4389     1916.434    20388.546    123.12878 
   24480    1139.7161   -6552.0045   -6424.8674    1707.6195    20399.651    123.09448 
   24490    1153.4932   -6553.9836   -6425.3097    757.87223    20412.253    123.10165 
   24500     1128.119    -6551.599   -6425.7556   -112.14733    20425.547    123.13293 
   24510    1134.3801   -6552.7361   -6426.1943   -1320.4278    20438.638    123.17234 
   24520    1133.7662   -6553.0942   -6426.6208   -1609.8924     20450.56    123.19575 
   24530    1127.2649   -6552.7925   -6427.0444   -1567.8211    20460.962    123.19032 
   24540    1103.9137   -6550.5777   -6427.4344   -592.73587    20469.964    123.17862 
   24550    1095.2184   -6549.9408   -6427.7676     375.1922    20478.377     123.1715 
   24560    1088.9349   -6549.4877   -6428.0154    1081.1988    20487.112    123.18729 
   24570    1118.1361   -6552.9226   -6428.1929    972.54128    20496.776    123.22283 
   24580    1161.9393   -6557.9886   -6428.3725    627.63708    20507.321    123.26922 
   24590    1167.1031   -6558.8145   -6428.6224    325.95934     20518.43    123.34543 
   24600    1144.2748   -6556.6017   -6428.9561   -61.895378     20529.82    123.47207 
   24610    1116.5041   -6553.8473   -6429.2996   -310.09463    20541.155    123.64896 
   24620    1109.8617   -6553.4337    -6429.627   -149.02683    20552.219    123.84105 
   24630    1072.4115   -6549.5065   -6429.8774    189.81225    20563.147    124.03008 
   24640    1104.6893   -6553.2738    -6430.044   -297.15049    20574.143    124.19785 
   24650    1132.4556   -6556.4919   -6430.1648   -308.71924    20584.875     124.3311 
   24660    1143.2383   -6557.8455   -6430.3155    239.78864    20595.317    124.42952 
   24670    1129.1677   -6556.4609   -6430.5006    1256.1015    20606.007    124.49415 
   24680    1111.3151    -6554.675   -6430.7061    1829.3796    20617.831    124.51813 
   24690    1114.4621   -6555.2265   -6430.9065    1274.8709    20631.268    124.53292 
   24700    1100.3844   -6553.8252   -6431.0757    951.97245    20645.931    124.56478 
   24710    1105.7401   -6554.5557   -6431.2087     367.4677    20661.438    124.59654 
   24720     1119.869   -6556.2334   -6431.3103   -269.69025    20677.252    124.63648 
   24730    1116.7322   -6555.9755   -6431.4023   -692.58261    20692.801    124.70728 
   24740    1118.2762   -6556.2429   -6431.4975   -1418.5458    20707.624    124.82485 
   24750    1096.7851   -6553.9249   -6431.5768   -1615.8402    20721.106    124.98795 
   24760    1107.9755    -6555.224   -6431.6277    -1743.663    20733.014    125.18094 
   24770    1107.3426   -6555.1753   -6431.6496   -1474.4631    20743.268    125.39622 
   24780    1111.2375   -6555.6094   -6431.6492   -1392.4995    20752.066    125.62627 
   24790    1129.8818   -6557.6453   -6431.6053   -1738.2467    20759.491    125.85379 
   24800    1148.0215   -6559.6418   -6431.5783   -2001.6923    20765.223    126.03781 
   24810    1126.6399   -6557.2647   -6431.5863   -1647.7181    20769.089    126.13913 
   24820     1124.437   -6557.0461   -6431.6135   -1663.2864    20771.322    126.15759 
   24830    1144.7353   -6559.3646   -6431.6677   -1587.0487    20771.971    126.13236 
   24840    1130.8562   -6557.9101   -6431.7614   -832.56269    20771.159    126.09315 
   24850    1115.3155   -6556.3058   -6431.8907   -509.87484     20769.49    126.04886 
   24860    1099.0321   -6554.6018   -6432.0031   -563.98499    20767.324     125.9982 
   24870    1102.2097   -6555.0219   -6432.0688   -851.81029    20764.619     125.9605 
   24880    1089.9186   -6553.6504   -6432.0684   -1104.2511    20761.104    125.97624 
   24890    1091.2767   -6553.7353   -6432.0018   -1472.2581    20756.529    126.05847 
   24900    1102.9293   -6554.8977   -6431.8643   -1566.3873    20750.579    126.16276 
   24910    1082.3363   -6552.3939   -6431.6576   -954.32589     20743.21    126.23515 
   24920    1090.8919   -6553.0544   -6431.3637   -941.59704    20734.878    126.26621 
   24930    1098.8153   -6553.5503   -6430.9758   -668.93733    20725.691      126.301 
   24940    1098.8459   -6553.0853   -6430.5074   -443.98338    20715.879    126.35539 
   24950    1117.5744   -6554.6351    -6429.968   -591.02403     20705.63    126.41634 
   24960    1144.6095   -6557.0805   -6429.3976   -704.37919    20694.831    126.47173 
   24970    1119.9513   -6553.7664   -6428.8341   -408.87095    20683.409    126.49669 
   24980    1114.2404   -6552.5764   -6428.2813   -154.62705    20671.578    126.49294 
   24990    1101.0234   -6550.5143   -6427.6935    740.73782    20659.669    126.47103 
   25000    1076.8418   -6547.1732   -6427.0498    1469.5916    20648.452      126.449 
Loop time of 13255.5 on 16 procs for 20000 steps with 864 atoms

Performance: 0.130 ns/day, 184.104 hours/ns, 1.509 timesteps/s
97.6% CPU use with 16 MPI tasks x 1 OpenMP threads

MPI task timing breakdown:
Section |  min time  |  avg time  |  max time  |%varavg| %total
---------------------------------------------------------------
Pair    | 10545      | 11795      | 12699      | 648.0 | 88.98
Bond    | 0.0018022  | 0.0049235  | 0.0092139  |   3.2 |  0.00
Neigh   | 0.25869    | 0.29291    | 0.33809    |   4.0 |  0.00
Comm    | 399.33     | 1247.3     | 2295.3     |1833.8 |  9.41
Output  | 1.1962     | 1.2241     | 1.6319     |   9.5 |  0.01
Modify  | 123.34     | 211.98     | 433.59     | 608.4 |  1.60
Other   |            | 0.09126    |            |       |  0.00

Nlocal:        54.0000 ave          59 max          47 min
Histogram: 1 1 1 2 1 2 2 1 1 4
Nghost:        504.375 ave         536 max         463 min
Histogram: 1 0 3 1 2 1 1 3 2 2
Neighs:         0.00000 ave           0 max           0 min
Histogram: 16 0 0 0 0 0 0 0 0 0
FullNghs:      2233.50 ave        2653 max        1745 min
Histogram: 1 0 3 1 0 4 3 1 2 1

Total # of neighbors = 35736
Ave neighs/atom = 41.361111
Ave special neighs/atom = 0.0000000
Neighbor list builds = 2000
Dangerous builds = 2000
unfix   3
                
Total wall time: 4:34:52
