LAMMPS (2 Aug 2023)
OMP_NUM_THREADS environment is not set. Defaulting to 1 thread. (src/comm.cpp:98)
  using 1 OpenMP thread(s) per MPI task
Reading data file ...
  orthogonal box = (0 0 0) to (79.28 19.68 39.36)
  4 by 1 by 2 MPI processor grid
  reading atoms ...
  4096 atoms
Finding 1-2 1-3 1-4 neighbors ...
  special bond factors lj:    0        0        0       
  special bond factors coul:  0        0        0       
     0 = max # of 1-2 neighbors
     0 = max # of 1-3 neighbors
     0 = max # of 1-4 neighbors
     1 = max # of special neighbors
  special bonds CPU = 0.004 seconds
  read_data CPU = 0.056 seconds
2048 atoms in group gSolid
2048 atoms in group gLiquid
Neighbor list info ...
  update: every = 1 steps, delay = 10 steps, check = yes
  max neighbors/atom: 2000, page size: 100000
  master list distance cutoff = 6.22
  ghost atom cutoff = 6.22
  binsize = 3.11, bins = 26 7 13
  1 neighbor lists, perpetual/occasional/extra = 1 0 0
  (1) pair quip, perpetual
      attributes: full, newton on
      pair build: full/bin
      stencil: full/bin/3d
      bin: standard
Setting up Verlet run ...
  Unit style    : metal
  Current step  : 0
  Time step     : 0.001
Per MPI rank memory allocation (min/avg/max) = 6.499 | 6.509 | 6.519 Mbytes
   Step          Temp          PotEng         TotEng         Press          Volume        c_msd[4]   
         0   300           -31390.26      -31231.464      62465.048      61410.669      0            
        10   211.12665     -31351.533     -31239.779      65117.417      61620.696      0.0053050641 
        20   193.46565     -31366.363     -31263.958      57336.18       62246.627      0.020340849  
        30   265.42931     -31429.168     -31288.671      37872.633      63121.589      0.055958875  
        40   238.95983     -31429.349     -31302.863      24985.308      63929.043      0.1124842    
        50   226.61696     -31429.766     -31309.813      15175.596      64556.748      0.17318024   
        60   259.37831     -31449.383     -31312.089      4496.5572      65051.915      0.23177374   
        70   279.57808     -31459.544     -31311.558     -4498.806       65437.396      0.28721915   
        80   290.80469     -31464.116     -31310.187     -10796.086      65704.346      0.33634402   
        90   283.6838      -31459.536     -31309.376     -12938.993      65844.569      0.37539163   
       100   272.95344     -31453.992     -31309.513     -11697.789      65870.381      0.40056866   
       110   292.64842     -31465.002     -31310.097     -10008.418      65810.669      0.41051977   
       120   326.64303     -31483.603     -31310.704     -7502.6566      65694.139      0.40859235   
       130   334.85685     -31488.532     -31311.286     -2663.7763      65551.63       0.40176647   
       140   332.5784      -31488.008     -31311.968      1912.7939      65421.137      0.39742295   
       150   332.24928     -31488.966     -31313.1        4773.1163      65330.739      0.40121037   
       160   314.26232     -31481.204     -31314.858      7025.7784      65291.947      0.4164843    
       170   304.11461     -31478.073     -31317.099      8042.9308      65308.065      0.44334796   
       180   310.63565     -31483.971     -31319.545      7679.5914      65373.59       0.48007354   
       190   323.62317     -31493.259     -31321.959      6238.7875      65475.049      0.52375695   
       200   333.81551     -31500.885     -31324.189      3781.6025      65594.291      0.57019267   
       210   337.92089     -31505.042     -31326.173      723.73905      65710.774      0.61407863   
       220   335.77299     -31505.651     -31327.92      -2044.2886      65805.239      0.64966486   
       230   322.04969     -31499.945     -31329.478     -3097.1427      65865.529      0.67207852   
       240   309.87351     -31494.862     -31330.84      -2713.8841      65892.518      0.67901743   
       250   316.18023     -31499.424     -31332.064     -1842.206       65895.617      0.67175184   
       260   327.64445     -31506.734     -31333.305     -147.16334      65886.002      0.65492222   
       270   334.2982      -31511.651     -31334.7        2422.4187      65877.935      0.63497592   
       280   335.3831      -31513.839     -31336.314      4907.2722      65888.445      0.61833583   
       290   333.60147     -31514.762     -31338.18       6280.8238      65931.18       0.60963528   
       300   329.97256     -31514.949     -31340.288      6131.146       66010.338      0.61136891   
       310   323.11663     -31513.598     -31342.566      5146.3403      66119.75       0.62439461   
       320   318.92083     -31513.779     -31344.968      4039.6967      66248.322      0.64838943   
       330   322.54634     -31518.196     -31347.466      3055.5546      66385.182      0.68196477   
       340   330.85623     -31525.113     -31349.984      2053.4671      66521.275      0.7225319    
       350   332.91089     -31528.582     -31352.366      983.43538      66648.66       0.76640648   
       360   329.23657     -31528.725     -31354.453     -256.55273      66760.228      0.80904879   
       370   322.22897     -31526.78      -31356.218     -1125.5433      66849.708      0.84636838   
       380   306.80983     -31520.128     -31357.728     -696.96113      66915.457      0.87632153   
       390   287.79113     -31511.344     -31359.01       1021.1031      66965.168      0.89936894   
       400   269.82876     -31502.862     -31360.036      3131.6523      67013.835      0.91807262   
       410   259.93237     -31498.391     -31360.804      4681.778       67076.523      0.93554322   
       420   259.82301     -31498.869     -31361.34       5384.9461      67162.207      0.95445467   
       430   265.70102     -31502.27      -31361.629      5127.9174      67272.336      0.97669829   
       440   277.01626     -31508.265     -31361.634      3967.4215      67401.207      1.0032358    
       450   287.21168     -31513.399     -31361.372      2403.9224      67537.616      1.0343556    
       460   291.25588     -31515.118     -31360.951      962.23723      67668.968      1.0698462    
       470   288.09694     -31512.999     -31360.503      423.44765      67785.874      1.1094853    
       480   279.34534     -31507.959     -31360.096      934.354        67886.816      1.1535632    
       490   266.76386     -31500.875     -31359.672      1899.5622      67977.781      1.2023937    
       500   248.11026     -31490.449     -31359.12       2717.6277      68067.078      1.2556909    
       510   225.27752     -31477.607     -31358.363      3112.114       68160.679      1.3121753    
       520   209.09298     -31468.059     -31357.382      2762.8302      68260.276      1.3694872    
       530   206.10681     -31465.25      -31356.154      1497.7455      68361.813      1.4245689    
       540   214.04285     -31467.964     -31354.667     -126.35092      68455.718      1.4743346    
       550   228.20628     -31473.774     -31352.98      -1235.9957      68531.802      1.5166524    
       560   242.96484     -31479.825     -31351.219     -1030.0076      68585.73       1.5512751    
       570   254.62827     -31484.291     -31349.511      385.73187      68623.25       1.5806526    
       580   258.98016     -31485.033     -31347.949      2542.1378      68657.95       1.6096402    
       590   257.58803     -31482.99      -31346.643      4874.104       68706.576      1.6441748    
       600   254.25569     -31480.276     -31345.693      6662.8009      68784.353      1.6898238    
       610   254.90642     -31480.03      -31345.103      7136.6801      68899.541      1.75035      
       620   255.26169     -31479.818     -31344.703      6583.5857      69049.31       1.8266365    
       630   249.12331     -31476.167     -31344.301      5886.7585      69223.142      1.9163216    
       640   240.78536     -31471.235     -31343.782      5240.7533      69410.059      2.0146843    
       650   238.76066     -31469.437     -31343.056      4149.0399      69600.551      2.1165307    
       660   238.41912     -31468.272     -31342.072      3023.0742      69784.361      2.2176883    
       670   231.14458     -31463.293     -31340.944      2372.1841      69953.687      2.3157157    
       680   224.14222     -31458.39      -31339.747      1594.579       70105.701      2.4094583    
       690   221.31305     -31455.57      -31338.425      332.25462      70237.662      2.4979262    
       700   218.45105     -31452.577     -31336.946     -986.44756      70344.398      2.5793544    
       710   218.73307     -31451.075     -31335.295     -2295.3598      70421.131      2.6505252    
       720   225.64827     -31452.886     -31333.445     -3686.2309      70463.966      2.7068694    
       730   241.57666     -31459.309     -31331.438     -4998.8835      70468.999      2.743779     
       740   259.06812     -31466.527     -31329.397     -5521.967       70433.952      2.7587071    
       750   272.19194     -31471.521     -31327.444     -5099.3948      70362.453      2.751884     
       760   281.26412     -31474.502     -31325.623     -4148.8012      70264.156      2.7256844    
       770   288.27157     -31476.523     -31323.935     -3044.7934      70150.855      2.6841399    
       780   287.45104     -31474.51      -31322.356     -1595.1925      70033.805      2.6324677    
       790   285.4029      -31471.901     -31320.832      51.671569      69924.672      2.5763906    
       800   280.56402     -31467.779     -31319.271      1980.2514      69834.844      2.5224481    
       810   267.904       -31459.428     -31317.621      4195.5822      69776.03       2.4780113    
       820   256.87176     -31451.888     -31315.921      5995.2553      69759.838      2.4496455    
       830   246.58108     -31444.793     -31314.273      6925.3559      69793.263      2.4417473    
       840   242.93394     -31441.355     -31312.766      6424.5568      69875.623      2.4556751    
       850   245.56248     -31441.301     -31311.32       4680.0979      69995.881      2.4895782    
       860   250.54748     -31442.429     -31309.809      2513.3936      70135.152      2.5389756    
       870   256.56843     -31443.965     -31308.158      320.89342      70273.395      2.5978596    
       880   264.78673     -31446.506     -31306.349     -1596.5379      70392.993      2.6597392    
       890   268.71117     -31446.709     -31304.475     -2305.0918      70481.864      2.7190125    
       900   269.81003     -31445.474     -31302.658     -1808.2586      70539.014      2.7726735    
       910   274.32914     -31446.118     -31300.91      -919.13695      70572.819      2.8209704    
       920   279.26805     -31447.034     -31299.211     -68.766985      70593.897      2.8662125    
       930   281.80221     -31446.735     -31297.572      810.76865      70611.239      2.9109478    
       940   286.23909     -31447.502     -31295.99       1603.7333      70632.483      2.9570402    
       950   293.93627     -31450.046     -31294.459      1974.2977      70663.139      3.0054363    
       960   301.95081     -31452.847     -31293.019      2112.603       70704.873      3.0563429    
       970   310.40543     -31456.029     -31291.725      2280.5336      70757.214      3.1099326    
       980   315.21026     -31457.48      -31290.633      2823.996       70820.163      3.1666822    
       990   314.22861     -31456.148     -31289.82       3541.3733      70896.469      3.2279451    
      1000   313.43037     -31455.192     -31289.287      3658.2424      70989.371      3.2955118    
      1010   313.53129     -31454.889     -31288.931      2984.1033      71096.933      3.3690491    
      1020   317.1333      -31456.532     -31288.666      1975.0938      71211.495      3.4451372    
      1030   323.4422      -31459.669     -31288.464      542.35547      71323.345      3.518915     
      1040   331.0851      -31463.612     -31288.362     -1219.2784      71421.037      3.5845431    
      1050   344.35883     -31470.808     -31288.531     -2872.3742      71492.585      3.6366325    
      1060   354.63759     -31476.967     -31289.25      -3742.5305      71529.131      3.672575     
      1070   357.26409     -31479.801     -31290.694     -3598.9189      71529.437      3.6931231    
      1080   360.24348     -31483.511     -31292.827     -2842.5079      71500.203      3.7015914    
      1090   356.62414     -31484.221     -31295.452     -1260.212       71452.488      3.7027809    
      1100   343.70087     -31480.135     -31298.208      1100.1444      71402.268      3.7027635    
      1110   335.28563     -31478.351     -31300.877      3160.3207      71368.684      3.7088788    
      1120   328.56314     -31477.413     -31303.498      4557.3929      71366.073      3.7278738    
      1130   320.31149     -31475.657     -31306.11       5248.1062      71401.581      3.76379      
      1140   315.18319     -31475.568     -31308.735      5067.7826      71475.443      3.8181281    
      1150   308.1897      -31474.446     -31311.315      4396.8592      71581.174      3.8904843    
      1160   305.69709     -31475.554     -31313.743      3007.5128      71708.233      3.9780484    
      1170   305.03561     -31477.389     -31315.927      1290.7885      71841.694      4.0752891    
      1180   298.68621     -31475.939     -31317.839      191.29568      71966.433      4.1751155    
      1190   293.96201     -31475.093     -31319.493     -580.00206      72073.715      4.2713538    
      1200   295.27635     -31477.202     -31320.906     -1474.3002      72159.003      4.3588856    
      1210   297.97168     -31479.856     -31322.133     -2182.2728      72218.298      4.4330255    
      1220   298.56925     -31481.281     -31323.242     -2486.5863      72249.882      4.4904661    
      1230   305.09145     -31485.78      -31324.289     -2790.8356      72255.33       4.5296668    
      1240   317.80104     -31493.627     -31325.409     -3064.4535      72236.145      4.5499804    
      1250   323.41881     -31497.914     -31326.722     -2408.0479      72194.64       4.5520789    
      1260   328.3724      -31502.061     -31328.247     -1284.56        72139.411      4.5389104    
      1270   332.70765     -31506.114     -31330.005     -244.96119      72081.527      4.5148498    
      1280   326.04947     -31504.524     -31331.939      763.13905      72030.138      4.4840036    
      1290   319.55426     -31503.079     -31333.933      1303.6934      71992.319      4.4493452    
      1300   319.77314     -31505.216     -31335.953      1178.6593      71970.4        4.4119425    
      1310   323.30599     -31509.169     -31338.037      712.5569       71961.267      4.3708186    
      1320   325.78344     -31512.636     -31340.192      331.10983      71959.456      4.3252402    
      1330   322.62541     -31513.122     -31342.349      423.41044      71961.022      4.2777923    
      1340   314.45944     -31510.847     -31344.397      1083.4101      71966.473      4.2342376    
      1350   305.82595     -31508.148     -31346.268      1875.9048      71980.634      4.2006964    
      1360   297.88698     -31505.632     -31347.954      2288.4725      72008.784      4.1816212    
      1370   290.1077      -31503.023     -31349.463      2052.3786      72052.442      4.1791679    
      1380   284.36226     -31501.302     -31350.783      1345.3258      72107.854      4.1920852    
      1390   282.55647     -31501.459     -31351.896      188.75861      72167.585      4.216409     
      1400   282.88433     -31502.523     -31352.787     -1165.5047      72221.37       4.2469079    
      1410   287.65186     -31505.751     -31353.491     -2291.143       72258.583      4.2782196    
      1420   292.43442     -31508.874     -31354.082     -2791.5776      72271.838      4.3060118    
      1430   290.94309     -31508.596     -31354.594     -2491.6467      72259.94       4.3277413    
      1440   293.95306     -31510.613     -31355.018     -2041.377       72228.035      4.3425974    
      1450   299.07651     -31513.688     -31355.381     -1453.3959      72182.368      4.3514262    
      1460   293.67673     -31511.128     -31355.679     -58.373686      72130.362      4.3564902    
      1470   289.57636     -31509.141     -31355.862      1299.4095      72084.135      4.3609151    
      1480   291.59701     -31510.284     -31355.936      2174.0464      72054.358      4.3677208    
      1490   290.31619     -31509.606     -31355.936      2831.7318      72046.784      4.379002     
      1500   288.43683     -31508.56      -31355.884      3056.0205      72064.271      4.3959039    
      1510   287.50092     -31507.943     -31355.763      2906.1755      72105.959      4.4188172    
      1520   286.30049     -31507.092     -31355.547      2650.1298      72168.021      4.447661     
      1530   284.09731     -31505.592     -31355.214      2321.6701      72246.051      4.4820652    
      1540   283.82451     -31504.963     -31354.729      1638.7373      72335.189      4.5213144    
      1550   288.30193     -31506.666     -31354.061      782.73043      72428.373      4.563781     
      1560   294.37343     -31509.053     -31353.235      20.747613      72517.807      4.6069331    
      1570   299.67228     -31510.948     -31352.326     -485.62028      72597.372      4.6482823    
      1580   302.77678     -31511.676     -31351.41      -698.0271       72663.734      4.686553     
      1590   309.95948     -31514.611     -31350.543     -676.67193      72716.51       4.7214425    
      1600   318.14233     -31518.186     -31349.786     -407.0689       72757.443      4.7533765    
      1610   319.94525     -31518.59      -31349.237      364.49182      72790.553      4.783919     
      1620   318.853       -31517.722     -31348.946      1424.3999      72823.399      4.815758     
      1630   316.28996     -31516.341     -31348.923      2749.7592      72865.466      4.8525985    
      1640   312.73068     -31514.703     -31349.168      3846.0153      72927.129      4.8984153    
      1650   313.81184     -31515.773     -31349.666      3988.4527      73015.255      4.9556426    
      1660   310.95341     -31514.962     -31350.368      3635.0083      73128.389      5.0244288    
      1670   298.66714     -31509.271     -31351.181      3178.0495      73260.659      5.1036839    
      1680   294.96697     -31508.059     -31351.927      1856.4613      73404.601      5.1904122    
      1690   300.38214     -31511.449     -31352.451     -301.52798      73546.343      5.2779648    
