LAMMPS (2 Aug 2023)
OMP_NUM_THREADS environment is not set. Defaulting to 1 thread. (src/comm.cpp:98)
  using 1 OpenMP thread(s) per MPI task
Reading data file ...
  orthogonal box = (0 0 0) to (89.16 20.4 40.8)
  1 by 1 by 1 MPI processor grid
  reading atoms ...
  4096 atoms
Finding 1-2 1-3 1-4 neighbors ...
  special bond factors lj:    0        0        0       
  special bond factors coul:  0        0        0       
     0 = max # of 1-2 neighbors
     0 = max # of 1-3 neighbors
     0 = max # of 1-4 neighbors
     1 = max # of special neighbors
  special bonds CPU = 0.001 seconds
  read_data CPU = 0.051 seconds
2048 atoms in group gSolid
2048 atoms in group gLiquid
Neighbor list info ...
  update: every = 1 steps, delay = 10 steps, check = yes
  max neighbors/atom: 2000, page size: 100000
  master list distance cutoff = 6.3
  ghost atom cutoff = 6.3
  binsize = 3.15, bins = 29 7 13
  1 neighbor lists, perpetual/occasional/extra = 1 0 0
  (1) pair chgnet/gpu, perpetual
      attributes: full, newton on
      pair build: full/bin
      stencil: full/bin/3d
      bin: standard
Setting up Verlet run ...
  Unit style    : metal
  Current step  : 0
  Time step     : 0.0005
Per MPI rank memory allocation (min/avg/max) = 7.477 | 7.477 | 7.477 Mbytes
   Step          Temp          PotEng         TotEng         Press          Volume        c_msd[4]   
         0   300           -14444.699     -14285.903      141427.97      74209.651      0            
        10   286.48594     -14510.754     -14359.111      132531.34      74885.607      0.004622731  
        20   254.6576      -14652.311     -14517.515      114918.99      76511.655      0.043642858  
        30   222.9244      -14765.917     -14647.919      103027.75      78031.296      0.11589654   
        40   199.22798     -14861.709     -14756.254      92235.971      79445.316      0.21289556   
        50   186.66916     -14950.004     -14851.196      81723.57       80842.397      0.33520409   
        60   184.01727     -15023.961     -14926.557      73069.143      82091.442      0.46636864   
        70   187.97835     -15086.137     -14986.636      66042.742      83202.229      0.59967169   
        80   194.92758     -15139.947     -15036.768      59888.756      84230.632      0.73636842   
        90   201.53589     -15186.169     -15079.492      54318.159      85202.235      0.87685057   
       100   206.00638     -15225.089     -15116.046      49131.26       86124.033      1.0201551    
       110   208.29356     -15257.553     -15147.299      44442.721      86998.149      1.1650316    
       120   209.1544      -15284.755     -15174.045      40295.93       87826.958      1.3105044    
       130   209.65147     -15308.006     -15197.033      36687.488      88613.797      1.4559773    
       140   210.76695     -15328.439     -15216.876      33584.363      89362.602      1.6011483    
       150   213.31805     -15347.013     -15234.099      30877.694      90077.399      1.7459043    
       160   217.68211     -15364.305     -15249.081      28482.639      90761.678      1.8901833    
       170   223.74972     -15380.57      -15262.135      26320.013      91418.225      2.0338975    
       180   231.0888      -15395.83      -15273.51       24366.605      92049.055      2.1768905    
       190   238.94685     -15409.914     -15283.435      22604.124      92655.81       2.3190052    
       200   246.5548      -15422.61      -15292.104      20960.604      93239.89       2.4601073    
       210   253.29926     -15433.78      -15299.704      19451.625      93802.145      2.599989     
       220   258.79633     -15443.365     -15306.379      18066.93       94343.304      2.7384549    
       230   262.86891     -15451.395     -15312.253      16825.577      94864.164      2.8753826    
       240   265.65243     -15458.069     -15317.454      15717.433      95365.778      3.0107637    
       250   267.71592     -15463.786     -15322.079      14756.803      95849.46       3.1446562    
       260   269.82402     -15469.035     -15326.212      13925.193      96316.844      3.2772096    
       270   272.36108     -15474.111     -15329.945      13201.308      96769.723      3.4086448    
       280   275.38071     -15479.092     -15333.327      12593.088      97209.849      3.5391823    
       290   278.86018     -15484.014     -15336.407      12064.454      97639.051      3.6690744    
       300   282.97215     -15489.013     -15339.23       11595.812      98058.967      3.7985396    
       310   287.62792     -15494.085     -15341.838      11166.815      98470.89       3.9277441    
       320   292.28641     -15498.991     -15344.278      10779.867      98875.792      4.0568       
       330   296.34497     -15503.454     -15346.593      10433.005      99274.5        4.185816     
       340   299.34184     -15507.249     -15348.801      10103.906      99667.745      4.3148819    
       350   301.05508     -15510.302     -15350.947      9801.8106      100056.04      4.4440268    
       360   301.83837     -15512.804     -15353.035      9497.3134      100439.77      4.5732187    
       370   302.25096     -15515.037     -15355.05       9198.062       100818.98      4.7023455    
       380   302.8322      -15517.307     -15357.011      8912.9155      101193.62      4.8312669    
       390   303.92144     -15519.771     -15358.9        8616.7438      101563.6       4.9598544    
       400   305.64711     -15522.51      -15360.725      8333.6556      101928.67      5.0879393    
       410   308.08499     -15525.564     -15362.489      8043.1388      102288.63      5.2153832    
       420   311.29833     -15528.998     -15364.222      7742.5548      102643.14      5.3420195    
       430   315.09873     -15532.729     -15365.941      7436.4177      102991.74      5.4676724    
       440   319.09684     -15536.587     -15367.682      7118.096       103333.89      5.5921946    
       450   322.93202     -15540.424     -15369.489      6823.4175      103669.08      5.7154421    
       460   326.2914      -15544.146     -15371.434      6551.9435      103997.12      5.8373562    
       470   328.94314     -15547.662     -15373.546      6296.3907      104318.2       5.95794      
       480   330.77501     -15550.961     -15375.875      6040.6452      104632.56      6.0771985    
       490   331.88436     -15554.107     -15378.434      5782.0289      104940.29      6.1951127    
       500   332.45515     -15557.206     -15381.231      5510.7657      105241.26      6.3115915    
       510   332.46416     -15560.188     -15384.207      5248.896       105535.11      6.4264935    
       520   331.71159     -15562.897     -15387.316      4993.2054      105821.6       6.5397475    
       530   330.35935     -15565.346     -15390.48       4753.7708      106100.6       6.6513512    
       540   328.75156     -15567.649     -15393.635      4511.0651      106372.05      6.7613714    
       550   327.05799     -15569.865     -15396.747      4293.5625      106635.87      6.8698487    
       560   325.27759     -15571.95      -15399.774      4086.597       106892.21      6.976877     
       570   323.36027     -15573.88      -15402.719      3905.9694      107141.26      7.0824999    
       580   321.16385     -15575.565     -15405.567      3724.6713      107383.39      7.1867527    
       590   318.62534     -15576.966     -15408.311      3566.3984      107618.89      7.2896121    
       600   316.0451      -15578.238     -15410.949      3415.7437      107848.12      7.3911011    
       610   313.72711     -15579.539     -15413.477      3275.5327      108071.45      7.4912997    
       620   311.73194     -15580.896     -15415.889      3145.1601      108289.2       7.5902767    
       630   309.95259     -15582.261     -15418.197      3014.1521      108501.66      7.6880917    
       640   308.44137     -15583.666     -15420.402      2890.3378      108708.95      7.7847686    
       650   307.42682     -15585.239     -15422.512      2762.1475      108911.18      7.8803038    
       660   307.04172     -15587.048     -15424.524      2633.3425      109108.31      7.9746043    
       670   307.09634     -15589.019     -15426.466      2494.3274      109300.21      8.0675175    
       680   307.38332     -15591.04      -15428.336      2345.6532      109486.56      8.1587917    
       690   307.87058     -15593.102     -15430.139      2186.2842      109666.83      8.2481123    
       700   308.49457     -15595.189     -15431.897      2016.0247      109840.44      8.3351559    
       710   308.9231      -15597.143     -15433.623      1852.4748      110006.69      8.4196239    
       720   308.91477     -15598.812     -15435.298      1693.7582      110165.03      8.501291     
       730   308.53828     -15600.265     -15436.949      1557.352       110315.21      8.5800004    
       740   308.13541     -15601.67      -15438.568      1422.1553      110457.25      8.6557055    
       750   307.77524     -15603.059     -15440.147      1308.6208      110591.23      8.7284243    
       760   307.05535     -15604.228     -15441.697      1223.8566      110717.52      8.7983663    
       770   305.78749     -15605.074     -15443.215      1150.8525      110836.85      8.8658845    
       780   304.19589     -15605.703     -15444.686      1096.7821      110949.98      8.9314023    
       790   302.64385     -15606.302     -15446.106      1029.7087      111057.66      8.9953556    
       800   301.52602     -15607.08      -15447.476      952.89046      111160.3       9.0580793    
       810   301.12286     -15608.174     -15448.783      858.83018      111257.88      9.1198022    
       820   301.60441     -15609.684     -15450.038      773.20615      111350.11      9.1807053    
       830   302.71899     -15611.496     -15451.261      693.73459      111436.81      9.2410483    
       840   304.00565     -15613.386     -15452.469      613.05933      111517.91      9.3010553    
       850   305.09096     -15615.16      -15453.669      560.96361      111593.37      9.3608461    
       860   305.76305     -15616.731     -15454.885      520.96473      111663.58      9.4205706    
       870   305.91501     -15618.031     -15456.104      477.79154      111729.02      9.4803181    
       880   305.58799     -15619.1       -15457.346      446.53841      111790.05      9.5401002    
       890   304.88291     -15619.959     -15458.578      439.2959       111847.17      9.599904     
       900   303.89462     -15620.661     -15459.804      431.80812      111901.12      9.659743     
       910   302.93443     -15621.37      -15461.021      411.5762       111952.52      9.7195264    
       920   302.36993     -15622.243     -15462.193      386.38811      112001.62      9.779009     
       930   302.14633     -15623.273     -15463.341      339.38521      112048.42      9.837904     
       940   301.96779     -15624.301     -15464.463      286.12751      112092.56      9.8958433    
       950   301.77236     -15625.294     -15465.56       238.003        112133.61      9.9524505    
       960   301.58553     -15626.251     -15466.616      200.35864      112171.34      10.007485    
       970   301.23507     -15627.104     -15467.655      171.7939       112205.71      10.0608      
       980   300.35117     -15627.645     -15468.663      147.62857      112236.85      10.112358    
       990   298.85506     -15627.82      -15469.63       135.3775       112264.97      10.162158    
      1000   296.92734     -15627.721     -15470.551      136.85111      112290.46      10.210298    
      1010   295.08244     -15627.595     -15471.402      133.44334      112313.88      10.257043    
      1020   293.82912     -15627.711     -15472.181      125.78588      112335.61      10.302662    
      1030   293.17666     -15628.057     -15472.872      98.966424      112355.81      10.347397    
      1040   292.89695     -15628.525     -15473.489      67.37379       112374.25      10.391494    
      1050   292.81882     -15629.018     -15474.023      34.754785      112390.69      10.435316    
      1060   292.8711      -15629.506     -15474.483     -2.3335097      112404.82      10.479251    
      1070   292.95535     -15629.939     -15474.872     -22.580208      112416.41      10.523719    
      1080   293.05055     -15630.306     -15475.188     -55.410535      112425.43      10.569144    
      1090   293.14438     -15630.598     -15475.43      -70.885163      112431.79      10.615827    
      1100   293.37537     -15630.906     -15475.617     -103.43858      112435.54      10.663947    
      1110   293.72082     -15631.209     -15475.737     -144.28888      112436.48      10.713477    
      1120   294.24447     -15631.529     -15475.78      -173.3514       112434.35      10.764197    
      1130   295.09191     -15631.975     -15475.776     -213.44539      112429.01      10.815783    
      1140   296.27363     -15632.536     -15475.712     -260.7405       112420.17      10.867792    
      1150   297.48964     -15633.084     -15475.617     -295.27986      112407.51      10.919774    
      1160   298.42969     -15633.455     -15475.49      -315.92338      112390.97      10.97134     
      1170   299.21249     -15633.715     -15475.336     -328.86736      112370.76      11.022111    
      1180   300.05331     -15634.003     -15475.179     -326.69808      112347.21      11.071766    
      1190   300.94435     -15634.303     -15475.007     -314.83767      112320.91      11.120059    
      1200   301.6448      -15634.512     -15474.845     -279.07959      112292.57      11.166874    
      1210   301.68628     -15634.37      -15474.681     -234.77679      112263.19      11.212302    
      1220   300.70725     -15633.717     -15474.546     -174.80421      112233.87      11.256484    
      1230   298.92195     -15632.622     -15474.397     -88.780507      112205.84      11.299546    
      1240   297.01639     -15631.455     -15474.238     -11.063525      112180.55      11.341726    
      1250   295.7395      -15630.588     -15474.047      52.570585      112159.09      11.383298    
      1260   295.46044     -15630.205     -15473.812      94.353557      112142.11      11.424499    
      1270   296.36653     -15630.397     -15473.525      117.15215      112129.72      11.465506    
      1280   298.42816     -15631.171     -15473.207      102.27498      112121.56      11.506506    
      1290   301.0532      -15632.224     -15472.87       76.878817      112116.72      11.547689    
      1300   303.32053     -15633.098     -15472.544      54.543732      112114.2       11.589359    
      1310   304.4437      -15633.406     -15472.258      33.153111      112113.17      11.631855    
      1320   304.2013      -15633.029     -15472.009      35.356025      112112.99      11.6754      
      1330   302.93821     -15632.166     -15471.815      55.231851      112113.59      11.720167    
      1340   301.43228     -15631.199     -15471.645      68.25833       112115.22      11.766298    
      1350   300.33372     -15630.473     -15471.5        65.459518      112117.99      11.813858    
      1360   299.82497     -15630.054     -15471.35       50.140909      112121.67      11.862816    
      1370   299.89762     -15629.957     -15471.215      12.413765      112125.78      11.913072    
      1380   300.36645     -15630.059     -15471.069     -37.400906      112129.54      11.96446     
      1390   300.87324     -15630.186     -15470.927     -92.012946      112131.97      12.016817    
      1400   301.08751     -15630.175     -15470.803     -151.27132      112132.15      12.070032    
      1410   300.93072     -15629.974     -15470.685     -216.61862      112129.15      12.123955    
      1420   300.41122     -15629.603     -15470.589     -270.59554      112122.14      12.178341    
      1430   299.5129      -15629.033     -15470.495     -308.15873      112110.56      12.232935    
      1440   298.32772     -15628.311     -15470.4       -310.67579      112094.34      12.287612    
      1450   297.16077     -15627.583     -15470.29      -309.97334      112074.04      12.342493    
      1460   296.32357     -15627.002     -15470.152     -316.61555      112050.22      12.397791    
      1470   296.20898     -15626.777     -15469.988     -325.69937      112023.31      12.453703    
      1480   297.22383     -15627.109     -15469.783     -332.12446      111993.58      12.510351    
      1490   298.97369     -15627.808     -15469.555     -355.41876      111961.24      12.567828    
      1500   300.60021     -15628.436     -15469.322     -368.31446      111926.2       12.626122    
      1510   301.60654     -15628.732     -15469.086     -350.6328       111888.64      12.685195    
      1520   302.03102     -15628.74      -15468.869     -326.44472      111849.26      12.745057    
      1530   302.12841     -15628.581     -15468.658     -284.36423      111808.89      12.805629    
      1540   302.05646     -15628.353     -15468.468     -231.20078      111768.53      12.866899    
      1550   301.86269     -15628.076     -15468.294     -174.41169      111729.25      12.928961    
      1560   302.01852     -15628.002     -15468.137     -130.22852      111692.04      12.991986    
      1570   303.06558     -15628.412     -15467.993     -106.89438      111657.5       13.056106    
      1580   304.81331     -15629.225     -15467.881     -100.22908      111625.71      13.121282    
      1590   306.44593     -15630.023     -15467.815     -98.998532      111596.44      13.187283    
      1600   307.13774     -15630.397     -15467.823     -97.146677      111569.32      13.253762    
      1610   306.40956     -15630.092     -15467.903     -76.650725      111544.12      13.320412    
      1620   304.71024     -15629.338     -15468.049     -62.959146      111520.94      13.387004    
      1630   302.96069     -15628.607     -15468.244     -68.120972      111499.73      13.453359    
      1640   301.9019      -15628.281     -15468.478     -82.386377      111480.15      13.519382    
      1650   301.57376     -15628.356     -15468.727     -112.71458      111461.61      13.585122    
      1660   301.79802     -15628.746     -15468.998     -150.535        111443.34      13.650637    
      1670   302.35478     -15629.339     -15469.296     -179.7228       111424.6       13.716063    
      1680   303.14399     -15630.075     -15469.615     -210.36758      111404.82      13.7815      
      1690   303.9212      -15630.846     -15469.974     -246.22484      111383.51      13.847013    
      1700   304.10218     -15631.34      -15470.372     -260.75569      111360.23      13.912702    
      1710   303.31357     -15631.361     -15470.811     -239.44547      111334.95      13.978775    
      1720   301.82969     -15631.048     -15471.283     -202.87237      111308.35      14.04554     
      1730   300.05797     -15630.594     -15471.767     -153.95125      111281.37      14.113433    
      1740   298.29652     -15630.144     -15472.249     -110.64621      111255.03      14.182868    
      1750   296.88339     -15629.848     -15472.701     -87.911181      111230.09      14.254181    
      1760   296.13231     -15629.883     -15473.134     -88.816232      111206.75      14.327512    
      1770   295.94681     -15630.155     -15473.505     -85.14495       111184.88      14.402873    
      1780   295.82055     -15630.431     -15473.847     -89.498237      111164.29      14.480127    
      1790   295.06997     -15630.335     -15474.148     -92.331043      111144.71      14.559014    
      1800   293.49173     -15629.753     -15474.402     -74.272402      111126         14.639175    
      1810   291.49993     -15628.887     -15474.59      -57.372633      111108.38      14.7202      
      1820   289.73173     -15628.049     -15474.688     -48.883514      111092.01      14.801652    
      1830   288.4715      -15627.379     -15474.685     -45.768731      111076.92      14.883017    
      1840   287.90448     -15626.957     -15474.563     -62.446926      111062.94      14.963849    
      1850   288.25036     -15626.9       -15474.324     -82.804303      111049.63      15.043773    
      1860   289.4481      -15627.173     -15473.962     -115.29272      111036.44      15.122551    
      1870   290.89036     -15627.456     -15473.482     -126.7975       111022.78      15.200011    
      1880   291.89367     -15627.421     -15472.916     -123.49427      111008.45      15.276044    
      1890   292.37882     -15627.039     -15472.277     -97.437918      110993.66      15.350567    
      1900   292.54302     -15626.414     -15471.565     -66.256202      110978.94      15.423428    
      1910   292.49803     -15625.62      -15470.795     -51.840626      110964.85      15.494597    
      1920   292.73834     -15624.933     -15469.98      -43.917686      110951.66      15.564188    
      1930   293.77496     -15624.621     -15469.12      -33.725624      110939.41      15.632499    
      1940   295.46619     -15624.639     -15468.242     -45.58731       110928.06      15.699937    
      1950   297.20796     -15624.671     -15467.353     -42.63461       110917.36      15.767072    
      1960   298.37124     -15624.404     -15466.47      -36.387609      110907.22      15.834429    
      1970   298.84902     -15623.809     -15465.622     -8.8835308      110897.76      15.902272    
      1980   299.05415     -15623.089     -15464.793      33.775865      110889.42      15.970589    
      1990   299.23885     -15622.389     -15463.995      83.06275       110882.91      16.039153    
      2000   299.0948      -15621.541     -15463.224      145.83907      110879.01      16.107701    
      2010   298.42923     -15620.433     -15462.468      208.68123      110878.55      16.176102    
      2020   297.40854     -15619.161     -15461.737      286.86248      110882.41      16.244407    
      2030   296.22593     -15617.802     -15461.003      353.03901      110891.53      16.312913    
      2040   295.79        -15616.833     -15460.265      402.69415      110906.58      16.382006    
      2050   297.11506     -15616.785     -15459.516      398.31921      110927.65      16.451943    
      2060   299.86542     -15617.492     -15458.767      359.17345      110953.92      16.522716    
      2070   302.56582     -15618.196     -15458.042      311.73175      110983.96      16.594085    
      2080   304.12678     -15618.338     -15457.357      277.14114      111016.4       16.665589    
      2090   304.16573     -15617.725     -15456.724      239.5604       111050.14      16.736653    
      2100   302.86682     -15616.479     -15456.165      223.51574      111084.32      16.806795    
      2110   300.84771     -15614.876     -15455.631      208.50413      111118.54      16.875712    
      2120   299.0675      -15613.427     -15455.124      173.14929      111152.48      16.943333    
      2130   298.18855     -15612.449     -15454.612      103.37673      111185.42      17.009799    
      2140   297.93281     -15611.798     -15454.096      33.032167      111216.12      17.075369    
      2150   297.74163     -15611.158     -15453.558     -12.273756      111243.54      17.140432    
      2160   297.30072     -15610.383     -15453.016     -42.953285      111267.17      17.205394    
      2170   296.77648     -15609.546     -15452.456     -59.73713       111286.89      17.270523    
      2180   296.66291     -15608.905     -15451.876     -80.300202      111302.85      17.335892    
      2190   297.03658     -15608.499     -15451.272     -84.307447      111315.14      17.401361    
      2200   297.65772     -15608.209     -15450.653     -86.232873      111324.12      17.466574    
      2210   298.56975     -15608.061     -15450.022     -95.964222      111330.13      17.531132    
      2220   299.42513     -15607.875     -15449.383     -89.720884      111333.44      17.594563    
      2230   299.53641     -15607.311     -15448.76      -67.347969      111334.5       17.656313    
      2240   299.02165     -15606.418     -15448.14      -14.556015      111334.09      17.715896    
      2250   298.79264     -15605.688     -15447.53       44.847579      111333.46      17.77302     
      2260   299.44179     -15605.422     -15446.921      74.989786      111333.78      17.827619    
      2270   300.48332     -15605.362     -15446.31       107.59925      111335.6       17.879786    
      2280   301.05217     -15605.085     -15445.732      152.27756      111339.42      17.929851    
      2290   300.77651     -15604.369     -15445.162      208.45486      111345.93      17.978185    
      2300   299.85889     -15603.342     -15444.62       273.19149      111355.92      18.025161    
      2310   298.78311     -15602.238     -15444.086      343.66668      111370.33      18.071221    
      2320   298.42282     -15601.519     -15443.557      383.93063      111389.98      18.116687    
      2330   299.21844     -15601.4       -15443.018      394.4316       111415.1       18.16164     
      2340   300.49769     -15601.552     -15442.492      373.13163      111445.29      18.206038    
      2350   301.15909     -15601.382     -15441.972      335.31127      111479.5       18.249905    
      2360   300.49437     -15600.528     -15441.471      302.89976      111516.53      18.293332    
      2370   299.25093     -15599.385     -15440.985      298.13201      111555.52      18.3364      
      2380   298.8367      -15598.683     -15440.502      278.67173      111596.05      18.379395    
      2390   299.80841     -15598.711     -15440.016      234.05599      111637.56      18.422722    
      2400   301.75819     -15599.267     -15439.54       163.57488      111679.02      18.46675     
      2410   303.78132     -15599.876     -15439.078      90.221607      111719.11      18.511611    
      2420   304.94797     -15600.072     -15438.657      17.137168      111756.42      18.557228    
      2430   305.16988     -15599.83      -15438.297     -52.778634      111789.76      18.603476    
      2440   304.82804     -15599.336     -15437.984     -100.51004      111818.23      18.650143    
      2450   304.54657     -15598.926     -15437.723     -170.69143      111841.22      18.696861    
      2460   304.539       -15598.721     -15437.522     -208.96619      111858.05      18.74317     
      2470   304.5852      -15598.58      -15437.357     -216.55962      111868.65      18.788627    
      2480   304.78074     -15598.574     -15437.248     -215.67856      111873.53      18.832841    
      2490   305.36362     -15598.82      -15437.185     -184.89294      111873.39      18.875471    
      2500   306.11375     -15599.213     -15437.181     -147.91321      111869.38      18.916149    
      2510   306.62697     -15599.541     -15437.237     -100.62335      111862.76      18.954434    
      2520   306.64499     -15599.677     -15437.363     -42.845346      111854.82      18.989956    
      2530   306.37997     -15599.734     -15437.561      19.819719      111846.93      19.022384    
      2540   306.36101     -15599.989     -15437.826      86.839306      111840.41      19.05143     
      2550   307.1178      -15600.736     -15438.173      108.66674      111836.33      19.076983    
      2560   308.36884     -15601.81      -15438.584      105.41715      111834.9       19.099254    
      2570   309.12848     -15602.722     -15439.094      86.479562      111835.77      19.118716    
      2580   308.95525     -15603.225     -15439.688      81.97231       111838.39      19.13587     
      2590   307.95808     -15603.375     -15440.367      94.666186      111842.48      19.151047    
      2600   306.35801     -15603.27      -15441.108      100.57306      111848.09      19.164381    
      2610   304.61987     -15603.121     -15441.88       88.248699      111855.15      19.175814    
      2620   303.07033     -15603.086     -15442.665      65.593897      111863.27      19.185364    
      2630   301.50248     -15603.032     -15443.441      11.587859      111871.81      19.193106    
      2640   299.63507     -15602.785     -15444.182     -33.029677      111879.72      19.199149    
      2650   297.83876     -15602.54      -15444.888     -74.630876      111886.08      19.203587    
      2660   296.68443     -15602.568     -15445.527     -127.19653      111890.16      19.206314    
      2670   296.52558     -15603.082     -15446.125     -190.89453      111891.11      19.207171    
      2680   297.46946     -15604.115     -15446.659     -262.11754      111887.9       19.206088    
      2690   298.87648     -15605.353     -15447.151     -319.85022      111879.52      19.203185    
      2700   299.71568     -15606.278     -15447.633     -339.76433      111865.34      19.198846    
      2710   299.16664     -15606.464     -15448.109     -310.09993      111845.52      19.19353     
      2720   297.22836     -15605.875     -15448.546     -225.76215      111821.32      19.187737    
      2730   294.95035     -15605.08      -15448.957     -119.82731      111794.9       19.181868    
      2740   293.72881     -15604.781     -15449.305     -37.404814      111768.54      19.176249    
      2750   294.08366     -15605.248     -15449.584      22.93871       111743.97      19.171079    
      2760   295.64662     -15606.296     -15449.804      65.045687      111722.28      19.166506    
      2770   297.43263     -15607.412     -15449.975      108.22105      111704.06      19.162581    
      2780   298.82291     -15608.309     -15450.136      148.70536      111689.87      19.159182    
      2790   299.59843     -15608.857     -15450.274      181.07195      111680.17      19.156155    
      2800   299.80411     -15609.096     -15450.403      206.12989      111675.19      19.153391    
      2810   299.72343     -15609.194     -15450.545      211.61448      111674.98      19.151038    
      2820   299.71575     -15609.32      -15450.675      214.09309      111679.26      19.149355    
      2830   299.82352     -15609.516     -15450.813      175.94835      111687.51      19.148633    
      2840   299.90949     -15609.693     -15450.945      128.1175       111698.66      19.149028    
      2850   299.89497     -15609.824     -15451.084      78.579149      111711.44      19.150533    
      2860   299.31718     -15609.646     -15451.212      11.13588       111724.56      19.153061    
      2870   298.29121     -15609.229     -15451.337     -34.664774      111736.74      19.156462    
      2880   297.37725     -15608.852     -15451.444     -102.86929      111747.01      19.160651    
      2890   296.81963     -15608.637     -15451.524     -163.43506      111754.16      19.165438    
      2900   296.65254     -15608.6       -15451.575     -213.43388      111757.24      19.170437    
      2910   297.01891     -15608.806     -15451.588     -253.19067      111755.52      19.17513     
      2920   297.81163     -15609.215     -15451.577     -287.03802      111748.56      19.178842    
      2930   298.66825     -15609.632     -15451.541     -302.46127      111736.18      19.180862    
      2940   299.24495     -15609.883     -15451.486     -284.00106      111718.6       19.180665    
      2950   299.48888     -15609.948     -15451.423     -247.00942      111696.65      19.177894    
      2960   299.83943     -15610.063     -15451.352     -190.51531      111671.49      19.172458    
      2970   300.81174     -15610.511     -15451.285     -139.18235      111644.53      19.164524    
      2980   302.7695      -15611.484     -15451.222     -83.922014      111617.03      19.154499    
      2990   305.0831      -15612.674     -15451.187     -38.256317      111590.15      19.142918    
      3000   306.76197     -15613.58      -15451.205      1.538605       111564.8       19.130414    
      3010   307.54958     -15614.087     -15451.295      31.440677      111541.69      19.117631    
      3020   307.87963     -15614.439     -15451.473      52.76205       111521.26      19.105367    
      3030   307.83353     -15614.674     -15451.731      38.522516      111503.61      19.094408    
      3040   307.28071     -15614.735     -15452.085      23.798484      111488.28      19.08527     
      3050   306.35268     -15614.669     -15452.51       2.7150509      111474.72      19.078251    
      3060   305.42777     -15614.672     -15453.003     -1.4264979      111462.39      19.073283    
      3070   304.63739     -15614.795     -15453.544     -14.23583       111451.04      19.070139    
      3080   304.05725     -15615.064     -15454.121     -45.893021      111440.28      19.068411    
      3090   303.66921     -15615.454     -15454.716     -74.283686      111429.45      19.067544    
      3100   303.36355     -15615.914     -15455.338     -106.04756      111417.93      19.066882    
      3110   303.2033      -15616.454     -15455.962     -138.1958       111405.1       19.065706    
      3120   303.58505     -15617.281     -15456.588     -187.81555      111390.34      19.063324    
      3130   304.44991     -15618.373     -15457.222     -238.72893      111372.84      19.058997    
      3140   305.11474     -15619.375     -15457.872     -268.59524      111351.81      19.051967    
      3150   305.17982     -15620.082     -15458.544     -251.29478      111326.96      19.041605    
      3160   304.67229     -15620.502     -15459.233     -204.75974      111298.91      19.027437    
      3170   304.18759     -15620.939     -15459.927     -141.08922      111268.89      19.009112    
      3180   304.06218     -15621.553     -15460.606     -81.044488      111238.36      18.986623    
      3190   304.20182     -15622.312     -15461.291     -44.584811      111208.56      18.960419    
      3200   304.10067     -15622.947     -15461.981      1.5579467      111180.25      18.931241    
      3210   303.51431     -15623.316     -15462.66       40.873973      111154.24      18.900028    
      3220   302.48595     -15623.432     -15463.32       74.222207      111131.14      18.867759    
      3230   301.34852     -15623.482     -15463.973      64.451148      111111.35      18.835305    
      3240   300.36424     -15623.577     -15464.588      47.324636      111094.52      18.803269    
      3250   299.76792     -15623.849     -15465.175      38.122404      111080.04      18.77198     
      3260   299.85653     -15624.437     -15465.716      24.425321      111067.45      18.741762    
      3270   300.66496     -15625.379     -15466.231      0.8243641      111056.34      18.712986    
      3280   301.61418     -15626.397     -15466.747     -21.658824      111046.12      18.686129    
      3290   301.91463     -15627.065     -15467.256     -25.10658       111036.28      18.661746    
      3300   301.56721     -15627.384     -15467.758     -33.446413      111026.62      18.640187    
      3310   300.98693     -15627.581     -15468.263     -33.598069      111017.02      18.621655    
      3320   300.62081     -15627.892     -15468.767     -52.193676      111007.39      18.606074    
      3330   300.6161      -15628.371     -15469.249     -87.08692       110997.35      18.592956    
      3340   301.0235      -15629.062     -15469.724     -127.58016      110986.19      18.581625    
      3350   301.6057      -15629.854     -15470.208     -163.83911      110973.15      18.571423    
      3360   302.08628     -15630.579     -15470.679     -183.45229      110957.65      18.561741    
      3370   301.99417     -15631.021     -15471.169     -193.66654      110939.41      18.552112    
      3380   300.99831     -15630.982     -15471.658     -159.26729      110918.55      18.542255    
      3390   299.48382     -15630.664     -15472.141     -112.93498      110895.9       18.532002    
      3400   298.12896     -15630.405     -15472.6       -64.002986      110872.57      18.52137     
      3410   297.31151     -15630.389     -15473.016     -25.72598       110849.61      18.510563    
      3420   297.22036     -15630.731     -15473.407     -2.8148182      110827.78      18.499885    
      3430   297.91364     -15631.439     -15473.748      2.6208933      110807.46      18.489665    
      3440   299.17265     -15632.428     -15474.07      -1.9238495      110788.66      18.480163    
      3450   300.72988     -15633.564     -15474.382     -19.910374      110771.13      18.471545    
      3460   302.20913     -15634.666     -15474.701     -54.342394      110754.36      18.463883    
      3470   303.32869     -15635.592     -15475.034     -75.63254       110737.68      18.457131    
      3480   304.0184      -15636.332     -15475.409     -83.394691      110720.64      18.451255    
      3490   304.15364     -15636.802     -15475.807     -87.91414       110703.06      18.446274    
      3500   303.43473     -15636.88      -15476.266     -69.895955      110684.94      18.442083    
      3510   301.88859     -15636.527     -15476.732     -48.125383      110666.65      18.438454    
      3520   300.25988     -15636.135     -15477.201     -16.16876       110648.7       18.435097    
      3530   299.43853     -15636.16      -15477.661      0.3672094      110631.68      18.431608    
      3540   299.79144     -15636.782     -15478.097     -3.6742846      110615.84      18.427689    
      3550   300.88278     -15637.778     -15478.515     -31.771337      110600.97      18.423136    
      3560   302.03154     -15638.811     -15478.939     -54.533305      110586.49      18.417866    
      3570   302.99438     -15639.745     -15479.364     -82.857004      110571.85      18.411851    
      3580   303.7088      -15640.566     -15479.807     -110.94929      110556.47      18.40505     
      3590   303.9329      -15641.162     -15480.284     -127.28057      110539.86      18.39737     
      3600   303.70937     -15641.534     -15480.775     -130.37927      110521.75      18.388608    
      3610   303.11895     -15641.726     -15481.279     -138.82856      110502.18      18.37852     
      3620   302.45379     -15641.893     -15481.798     -143.87603      110481.09      18.366944    
      3630   301.96297     -15642.15      -15482.315     -154.74746      110458.45      18.353762    
      3640   301.75071     -15642.545     -15482.822     -160.82175      110434.14      18.33891     
      3650   301.80332     -15643.068     -15483.318     -170.6065       110408.08      18.322456    
      3660   302.05752     -15643.685     -15483.799     -161.59722      110380.27      18.304693    
      3670   302.40033     -15644.354     -15484.287     -143.86601      110351.01      18.286124    
      3680   302.63651     -15644.954     -15484.762     -130.55946      110320.71      18.267488    
      3690   302.66499     -15645.447     -15485.241     -100.06196      110289.86      18.249711    
      3700   302.50261     -15645.836     -15485.715     -62.608409      110259.1       18.23364     
      3710   302.24916     -15646.17      -15486.183     -37.449586      110229.12      18.219916    
      3720   301.92111     -15646.469     -15486.656     -10.170419      110200.42      18.2089      
      3730   301.63608     -15646.775     -15487.113      11.052348      110173.48      18.200671    
      3740   301.68731     -15647.245     -15487.556     -4.5260521      110148.56      18.195031    
      3750   301.97233     -15647.83      -15487.99      -27.664479      110125.27      18.191576    
      3760   301.95868     -15648.258     -15488.425     -44.593326      110103.04      18.189852    
      3770   301.30279     -15648.327     -15488.841     -38.19331       110081.48      18.189653    
      3780   300.33169     -15648.227     -15489.255     -38.587364      110060.6       18.190796    
      3790   299.72468     -15648.293     -15489.643     -41.575912      110040.35      18.193065    
      3800   299.55097     -15648.565     -15490.007     -56.296709      110020.62      18.196321    
      3810   299.38811     -15648.828     -15490.356     -80.64647       110001.06      18.200576    
      3820   298.90062     -15648.887     -15490.673     -86.496089      109981.23      18.205933    
      3830   298.23894     -15648.835     -15490.971     -92.764604      109960.98      18.212399    
      3840   297.80775     -15648.872     -15491.236     -119.20943      109940.17      18.219777    
      3850   297.5435      -15648.979     -15491.483     -132.68241      109918.36      18.227625    
      3860   296.98491     -15648.889     -15491.689     -145.01072      109895.29      18.235316    
      3870   296.359       -15648.722     -15491.853     -132.06746      109870.85      18.241989    
      3880   296.41624     -15648.881     -15491.982     -106.22449      109845.37      18.246747    
      3890   297.55118     -15649.578     -15492.078     -87.367787      109819.42      18.24881     
      3900   299.46594     -15650.658     -15492.145     -79.691658      109793.41      18.247689    
      3910   301.63771     -15651.876     -15492.213     -68.6307        109767.55      18.243296    
      3920   303.5906      -15652.987     -15492.291     -72.055999      109741.98      18.235957    
      3930   304.99722     -15653.857     -15492.416     -72.942631      109716.67      18.226294    
      3940   305.78811     -15654.466     -15492.606     -78.713329      109691.53      18.215122    
      3950   305.9103      -15654.787     -15492.863     -93.657869      109666.44      18.203305    
      3960   305.28406     -15654.786     -15493.193     -96.467688      109641.15      18.191742    
      3970   304.09844     -15654.571     -15493.606     -87.653059      109615.62      18.181377    
      3980   303.05475     -15654.473     -15494.06      -84.241758      109589.99      18.173021    
      3990   302.85134     -15654.866     -15494.561     -92.167296      109564.3       18.167314    
      4000   303.40736     -15655.689     -15495.09      -115.84597      109538.38      18.164786    
      4010   304.23426     -15656.677     -15495.639     -137.62719      109511.77      18.165874    
      4020   304.93497     -15657.615     -15496.207     -155.08673      109484.12      18.170808    
      4030   305.07139     -15658.271     -15496.791     -162.50144      109455.12      18.179433    
      4040   304.4821      -15658.525     -15497.357     -163.48297      109424.7       18.191256    
      4050   303.43214     -15658.512     -15497.899     -128.97099      109393         18.205712    
      4060   302.37284     -15658.447     -15498.395     -87.969959      109360.74      18.222238    
      4070   301.60769     -15658.469     -15498.822     -36.943958      109328.82      18.240192    
      4080   301.00352     -15658.521     -15499.193      30.608573      109298.3       18.258918    
      4090   300.69465     -15658.685     -15499.521      89.653297      109270.43      18.277654    
      4100   301.09184     -15659.172     -15499.798      115.82772      109246.13      18.295628    
      4110   302.03295     -15659.92      -15500.048      144.63941      109225.79      18.312183    
      4120   302.76707     -15660.543     -15500.282      156.77878      109209.7       18.326902    
      4130   302.90257     -15660.846     -15500.513      164.50375      109197.85      18.339547    
      4140   302.58945     -15660.934     -15500.767      165.36141      109190.1       18.349946    
      4150   302.03056     -15660.886     -15501.015      153.9771       109186.17      18.35803     
      4160   301.51643     -15660.868     -15501.269      136.90753      109185.62      18.363844    
      4170   301.47339     -15661.104     -15501.529      114.87224      109187.86      18.367619    
      4180   302.30509     -15661.801     -15501.785      71.747132      109192.23      18.369633    
      4190   304.00257     -15662.967     -15502.052      13.684533      109197.78      18.370047    
      4200   306.17473     -15664.428     -15502.363     -47.386635      109203.25      18.368801    
      4210   308.20867     -15665.861     -15502.72      -105.20587      109207.38      18.365754    
      4220   309.41933     -15666.937     -15503.155     -143.28424      109209.13      18.360768    
      4230   309.29439     -15667.387     -15503.671     -147.68026      109207.91      18.353743    
      4240   307.78145     -15667.156     -15504.241     -122.62455      109203.81      18.34476     
      4250   305.45006     -15666.525     -15504.844     -101.38783      109197.43      18.334121    
      4260   303.16991     -15665.901     -15505.427     -55.223533      109189.45      18.322078    
      4270   301.56177     -15665.596     -15505.973     -17.612999      109180.81      18.308829    
      4280   300.95322     -15665.74      -15506.44      -6.7536406      109172.28      18.294556    
      4290   301.18377     -15666.289     -15506.866     -5.7454956      109164.1       18.279348    
      4300   301.50908     -15666.825     -15507.23       1.9244721      109156.28      18.263349    
      4310   301.21205     -15667.004     -15507.566      6.958828       109148.95      18.246642    
      4320   300.26584     -15666.806     -15507.869      15.786186      109142.24      18.229203    
      4330   299.11755     -15666.465     -15508.136      17.0975        109136.25      18.210927    
      4340   298.16843     -15666.204     -15508.377      1.594788       109130.91      18.191753    
      4350   297.46845     -15666.028     -15508.572     -18.538836      109125.91      18.171899    
      4360   296.78852     -15665.828     -15508.732     -31.983221      109120.82      18.151804    
      4370   296.25801     -15665.671     -15508.856     -38.33665       109115.38      18.131821    
      4380   296.02806     -15665.621     -15508.927     -29.339495      109109.52      18.112154    
      4390   296.1879      -15665.739     -15508.961     -14.161358      109103.41      18.092739    
      4400   296.69698     -15665.993     -15508.945      11.620922      109097.37      18.073367    
      4410   297.33941     -15666.291     -15508.903      30.61072       109091.88      18.053724    
      4420   297.75381     -15666.441     -15508.834      43.91002       109087.29      18.033504    
      4430   297.96915     -15666.458     -15508.737      55.659838      109083.86      18.012453    
      4440   298.17034     -15666.446     -15508.619      62.360266      109081.74      17.990404    
      4450   298.42885     -15666.44      -15508.476      53.486916      109080.96      17.967337    
      4460   298.71086     -15666.422     -15508.308      48.140713      109081.34      17.943321    
      4470   298.95152     -15666.371     -15508.13       36.731007      109082.67      17.91867     
      4480   298.92042     -15666.14      -15507.915      27.194518      109084.68      17.893853    
      4490   298.36951     -15665.621     -15507.688      24.825507      109087.14      17.869392    
      4500   297.5475      -15664.931     -15507.433      28.801393      109089.97      17.845681    
      4510   296.98252     -15664.339     -15507.14       30.368268      109093.2       17.822977    
      4520   297.08881     -15664.048     -15506.793      41.05251       109096.88      17.801487    
      4530   297.81773     -15664.041     -15506.4        34.126307      109101.11      17.781321    
      4540   298.75585     -15664.105     -15505.968      30.470233      109105.81      17.762384    
      4550   299.64752     -15664.123     -15505.514      22.755485      109110.85      17.74438     
      4560   300.31638     -15664         -15505.036      15.624893      109116.07      17.726881    
      4570   300.43928     -15663.598     -15504.569      25.93296       109121.36      17.709382    
      4580   299.86072     -15662.839     -15504.117      39.801207      109126.89      17.69128     
      4590   298.91973     -15661.907     -15503.683      66.846043      109132.96      17.67203     
      4600   298.32093     -15661.17      -15503.263      87.913889      109140.05      17.651081    
      4610   298.32973     -15660.767     -15502.855      96.284591      109148.56      17.627931    
      4620   298.73578     -15660.594     -15502.467      73.737101      109158.53      17.602154    
      4630   299.09329     -15660.427     -15502.111      47.390117      109169.48      17.573494    
      4640   299.1076      -15660.103     -15501.779      32.199603      109180.85      17.541872    
      4650   298.79292     -15659.645     -15501.487      23.752505      109192.32      17.507389    
      4660   298.28775     -15659.115     -15501.225      23.124715      109203.72      17.470319    
      4670   297.75937     -15658.594     -15500.984      12.44855       109214.96      17.43106     
      4680   297.21089     -15658.084     -15500.764      12.287889      109225.92      17.390076    
      4690   296.65662     -15657.573     -15500.547      6.5122183      109236.56      17.347747    
      4700   296.19313     -15657.111     -15500.33       10.070853      109246.82      17.304361    
      4710   296.1486      -15656.871     -15500.114     -0.19829772     109256.77      17.260101    
      4720   296.67977     -15656.924     -15499.885     -30.346872      109266.17      17.215209    
      4730   297.57939     -15657.171     -15499.656     -80.96099       109274.37      17.169916    
      4740   298.43295     -15657.401     -15499.435     -129.41115      109280.44      17.124496    
      4750   298.97956     -15657.473     -15499.217     -170.8604       109283.54      17.079312    
      4760   299.07664     -15657.319     -15499.012     -209.51083      109282.93      17.034726    
      4770   298.88703     -15657.033     -15498.826     -235.90672      109278.04      16.991216    
      4780   298.55445     -15656.666     -15498.635     -239.39553      109268.59      16.949107    
      4790   298.07158     -15656.215     -15498.44      -226.80737      109254.69      16.90846     
      4800   297.39076     -15655.675     -15498.26      -184.77014      109236.82      16.869153    
      4810   296.36255     -15654.922     -15498.051     -133.20258      109216.03      16.831058    
      4820   294.88971     -15653.91      -15497.819     -74.301541      109193.52      16.794149    
      4830   293.13612     -15652.709     -15497.546     -15.763534      109170.57      16.758426    
      4840   291.57369     -15651.552     -15497.216      52.268338      109148.43      16.723928    
      4850   290.66404     -15650.675     -15496.82       111.51312      109128.4       16.690723    
      4860   290.66539     -15650.217     -15496.362      151.8592       109111.58      16.658868    
      4870   291.56958     -15650.17      -15495.836      188.9201       109098.68      16.628264    
      4880   292.89318     -15650.314     -15495.28       202.49         109090.21      16.598642    
      4890   293.96039     -15650.334     -15494.735      218.94648      109086.28      16.569709    
      4900   294.33785     -15650         -15494.201      261.48702      109087.06      16.541364    
      4910   294.21746     -15649.434     -15493.698      287.9916       109093.14      16.513645    
      4920   294.05213     -15648.877     -15493.229      293.42029      109104.81      16.486711    
      4930   294.22005     -15648.527     -15492.791      271.55511      109121.92      16.460831    
      4940   294.87164     -15648.459     -15492.377      225.47369      109143.77      16.436201    
      4950   295.90207     -15648.614     -15491.987      170.25053      109169.24      16.41291     
      4960   296.85989     -15648.734     -15491.6        83.195896      109197.01      16.390959    
      4970   297.13446     -15648.521     -15491.242      15.156539      109225.3       16.370214    
      4980   296.39043     -15647.785     -15490.9       -28.146597      109252.66      16.350525    
      4990   294.98272     -15646.693     -15490.553     -74.132309      109278.19      16.331678    
      5000   293.79495     -15645.705     -15490.193     -117.67001      109301.09      16.313339    
      5010   293.35897     -15645.082     -15489.801     -159.09855      109320.54      16.295211    
      5020   293.4034      -15644.685     -15489.38      -184.5215       109335.88      16.277113    
      5030   293.61333     -15644.337     -15488.921     -192.85956      109346.75      16.258918    
      5040   294.01599     -15644.063     -15488.435     -194.54921      109353.13      16.240658    
      5050   294.56768     -15643.844     -15487.923     -161.92744      109355.27      16.222567    
      5060   295.21605     -15643.675     -15487.411     -116.91032      109353.99      16.205053    
      5070   296.05528     -15643.6       -15486.892     -61.774498      109350.36      16.188595    
      5080   297.06066     -15643.637     -15486.396      5.3338704      109345.61      16.173808    
      5090   298.30875     -15643.811     -15485.91       80.141992      109341.19      16.16148     
      5100   299.83732     -15644.167     -15485.457      142.78192      109338.59      16.152208    
      5110   301.43033     -15644.598     -15485.044      183.29924      109339.01      16.146299    
      5120   302.64486     -15644.886     -15484.69       214.468        109343.18      16.143812    
      5130   303.29732     -15644.926     -15484.384      237.75383      109351.58      16.14459     
      5140   303.7797      -15644.936     -15484.139      235.14009      109364.51      16.148315    
      5150   304.45423     -15645.098     -15483.944      226.67197      109381.8       16.154691    
      5160   305.15766     -15645.343     -15483.817      188.89603      109403.01      16.163553    
      5170   305.61237     -15645.508     -15483.741      139.53312      109427.23      16.174854    
      5180   305.73656     -15645.563     -15483.731      87.999621      109453.32      16.18858     
      5190   305.25798     -15645.36      -15483.781      33.434565      109480.14      16.204585    
      5200   303.90742     -15644.745     -15483.881     -15.696568      109506.54      16.222607    
      5210   301.7517      -15643.751     -15484.028     -44.468787      109531.55      16.242231    
      5220   299.19788     -15642.556     -15484.184     -71.9785        109554.58      16.262826    
      5230   296.85755     -15641.474     -15484.341     -104.11987      109575.12      16.283681    
      5240   295.13137     -15640.688     -15484.468     -132.73536      109592.64      16.304119    
      5250   294.02133     -15640.171     -15484.539     -156.58689      109606.7       16.323515    
      5260   293.51381     -15639.916     -15484.553     -183.78928      109616.91      16.341298    
      5270   293.50063     -15639.851     -15484.495     -195.51937      109622.91      16.356881    
      5280   293.61284     -15639.788     -15484.373     -191.98949      109624.59      16.369697    
      5290   293.65113     -15639.607     -15484.172     -148.39079      109622.27      16.379327    
      5300   293.96743     -15639.492     -15483.889     -104.49915      109616.94      16.385551    
      5310   294.90072     -15639.63      -15483.533     -48.314292      109609.68      16.388418    
      5320   296.45141     -15640.006     -15483.088     -5.7962966      109601.68      16.388104    
      5330   298.20981     -15640.452     -15482.604      37.974317      109593.87      16.38487     
      5340   300.03569     -15640.898     -15482.083      88.689921      109587.13      16.379102    
      5350   301.82537     -15641.32      -15481.558      141.07131      109582.5       16.371187    
      5360   303.33112     -15641.635     -15481.075      189.75869      109580.99      16.361549    
      5370   304.43853     -15641.787     -15480.642      235.43904      109583.47      16.350668    
      5380   305.25269     -15641.856     -15480.28       274.77343      109590.75      16.339006    
      5390   306.14967     -15642.053     -15480.001      296.51244      109603.45      16.327149    
      5400   307.40881     -15642.523     -15479.806      281.26793      109621.78      16.315851    
      5410   308.85351     -15643.185     -15479.702      233.05226      109645.27      16.305947    
      5420   309.63077     -15643.579     -15479.685      168.62149      109672.73      16.298196    
      5430   309.10509     -15643.393     -15479.777      106.94109      109702.72      16.293263    
      5440   307.55961     -15642.766     -15479.968      40.386797      109733.82      16.29161     
      5450   305.96516     -15642.167     -15480.213     -17.384767      109764.66      16.29344     
      5460   304.93631     -15641.925     -15480.516     -95.551081      109793.96      16.298805    
      5470   304.6501      -15642.106     -15480.849     -173.05396      109820.23      16.307795    
      5480   304.84047     -15642.569     -15481.211     -246.46228      109841.95      16.320524    
      5490   305.04839     -15643.066     -15481.598     -302.21147      109857.76      16.337134    
      5500   304.84287     -15643.362     -15482.003     -326.54161      109866.76      16.357859    
      5510   304.12735     -15643.402     -15482.422     -338.0567       109868.61      16.382867    
      5520   303.10166     -15643.264     -15482.826     -328.91598      109863.29      16.412384    
      5530   301.96886     -15643.055     -15483.216     -290.78852      109851.3       16.446439    
      5540   301.10781     -15642.941     -15483.559     -258.25216      109833.56      16.48484     
      5550   300.83886     -15643.098     -15483.858     -232.22765      109810.99      16.527174    
      5560   301.41851     -15643.678     -15484.131     -215.53959      109784.29      16.572789    
      5570   302.59317     -15644.533     -15484.364     -204.53348      109753.96      16.620902    
      5580   303.79505     -15645.392     -15484.587     -159.0629       109720.52      16.670671    
      5590   304.76957     -15646.136     -15484.815     -99.305208      109684.92      16.721088    
      5600   305.29408     -15646.653     -15485.055     -28.603833      109648.55      16.771212    
      5610   305.08338     -15646.803     -15485.316      43.545448      109612.96      16.820388    
      5620   304.164       -15646.591     -15485.591      116.95598      109579.6       16.868131    
      5630   303.00741     -15646.268     -15485.88       187.78459      109549.95      16.914127    
      5640   302.04272     -15646.044     -15486.167      244.57706      109525.28      16.958283    
      5650   301.36393     -15645.963     -15486.445      285.23376      109506.59      17.000622    
      5660   301.22523     -15646.162     -15486.717      298.06541      109494.46      17.041389    
      5670   301.70733     -15646.68      -15486.98       308.77966      109489         17.081026    
      5680   302.59932     -15647.422     -15487.25       309.59252      109490.14      17.119999    
      5690   303.53329     -15648.195     -15487.529      305.8443       109497.63      17.158849    
      5700   303.85659     -15648.676     -15487.838      303.38101      109511.18      17.198203    
      5710   303.11758     -15648.616     -15488.17       315.41857      109530.49      17.238549    
      5720   301.6087      -15648.162     -15488.515      318.24726      109555.58      17.280249    
      5730   300.11697     -15647.718     -15488.86       300.09484      109586.27      17.323524    
      5740   299.23979     -15647.582     -15489.188      250.94423      109621.93      17.368297    
      5750   299.07938     -15647.798     -15489.489      173.22629      109661.34      17.414332    
      5760   299.06466     -15648.069     -15489.768      77.365937      109702.72      17.461294    
      5770   298.88608     -15648.219     -15490.012     -7.3201026      109744.08      17.508659    
      5780   298.54668     -15648.268     -15490.241     -82.716971      109783.64      17.55581     
      5790   298.13224     -15648.246     -15490.439     -140.45372      109819.87      17.602205    
      5800   297.79718     -15648.233     -15490.603     -189.81742      109851.71      17.647484    
      5810   297.99112     -15648.479     -15490.746     -223.49451      109878.36      17.691354    
      5820   298.85351     -15649.054     -15490.864     -252.46864      109899.26      17.733426    
      5830   300.07311     -15649.8       -15490.965     -279.12374      109914         17.773311    
      5840   301.07953     -15650.44      -15491.073     -291.25662      109922.3       17.810822    
      5850   301.49995     -15650.783     -15491.193     -272.77843      109924.21      17.845915    
      5860   301.45156     -15650.891     -15491.326     -213.65138      109920.41      17.878609    
      5870   301.33719     -15650.979     -15491.475     -159.14227      109912.23      17.908965    
      5880   301.51589     -15651.245     -15491.647     -110.49939      109901.03      17.937257    
      5890   302.12724     -15651.768     -15491.846     -77.132351      109887.91      17.96396     
      5900   302.9384      -15652.423     -15492.071     -50.548453      109873.71      17.989761    
      5910   303.41299     -15652.957     -15492.354     -21.789978      109859.05      18.015559    
      5920   303.15418     -15653.14      -15492.674      8.4595058      109844.5       18.042125    
      5930   302.19226     -15653.01      -15493.053      28.092369      109830.64      18.069847    
      5940   300.82673     -15652.722     -15493.488      42.464563      109817.89      18.098658    
      5950   299.35878     -15652.4       -15493.944      61.627786      109806.54      18.128274    
      5960   298.34542     -15652.34      -15494.42       76.464339      109796.91      18.158261    
      5970   298.0993      -15652.682     -15494.892      77.225986      109789.19      18.188143    
      5980   298.61523     -15653.424     -15495.361      63.881029      109783.33      18.217632    
      5990   299.43837     -15654.323     -15495.824      39.768312      109779.02      18.24659     
      6000   300.13129     -15655.147     -15496.282      8.9774872      109775.67      18.275024    
      6010   300.55613     -15655.822     -15496.732     -15.919452      109772.61      18.302956    
      6020   300.5559      -15656.263     -15497.172     -27.251727      109769.33      18.330605    
      6030   300.08088     -15656.429     -15497.59      -32.598347      109765.6       18.35831     
      6040   299.12838     -15656.304     -15497.969     -21.650937      109761.32      18.386358    
      6050   297.9624      -15656.016     -15498.298     -10.622282      109756.73      18.414865    
      6060   296.81169     -15655.685     -15498.576      3.6070984      109752.09      18.443667    
      6070   295.90451     -15655.391     -15498.762      20.140383      109747.67      18.472295    
      6080   295.68374     -15655.396     -15498.885      38.063922      109743.83      18.500051    
      6090   296.58281     -15655.935     -15498.947      40.849495      109740.88      18.526393    
      6100   298.24337     -15656.821     -15498.955      31.232777      109738.84      18.551184    
      6110   300.02603     -15657.765     -15498.955      10.22586       109737.5       18.574788    
      6120   301.63188     -15658.615     -15498.955     -11.416345      109736.41      18.598068    
      6130   303.06494     -15659.389     -15498.97      -38.449823      109735.09      18.622262    
      6140   303.94271     -15659.9       -15499.017     -58.872857      109733.03      18.648678    
      6150   304.01163     -15660.008     -15499.088     -49.352195      109729.85      18.678434    
      6160   303.57724     -15659.883     -15499.193     -18.076481      109725.77      18.712347    
      6170   303.10299     -15659.764     -15499.325      30.919083      109721.47      18.750799    
      6180   302.75101     -15659.735     -15499.483      95.123346      109717.96      18.793725    
      6190   302.3952      -15659.715     -15499.651      145.05951      109716.47      18.840901    
      6200   302.1563      -15659.779     -15499.842      195.09646      109718.07      18.891862    
      6210   302.12581     -15659.964     -15500.043      236.35206      109723.67      18.945896    
      6220   301.95528     -15660.087     -15500.256      254.23991      109733.97      19.002209    
      6230   301.35988     -15659.999     -15500.483      254.46014      109749.19      19.060007    
      6240   300.53913     -15659.808     -15500.726      242.70186      109769.23      19.118368    
      6250   299.755       -15659.629     -15500.962      209.86627      109793.59      19.176212    
      6260   299.38613     -15659.664     -15501.193      158.05807      109821.41      19.232413    
      6270   299.68201     -15660.03      -15501.403      91.872907      109851.51      19.285903    
      6280   300.25309     -15660.551     -15501.621      17.908978      109882.44      19.335808    
      6290   300.54149     -15660.919     -15501.836     -49.002714      109912.64      19.381483    
      6300   300.32541     -15661.024     -15502.056     -99.865346      109940.75      19.422522    
      6310   299.97081     -15661.062     -15502.282     -152.75436      109965.73      19.458836    
      6320   299.96339     -15661.282     -15502.506     -201.4032       109986.61      19.490945    
      6330   300.35039     -15661.718     -15502.736     -250.06068      110002.47      19.519971    
      6340   300.98852     -15662.302     -15502.982     -292.08208      110012.51      19.547547    
      6350   301.62726     -15662.904     -15503.247     -318.38769      110016.11      19.575603    
      6360   302.08772     -15663.436     -15503.534     -345.58402      110012.87      19.605602    
      6370   302.21942     -15663.815     -15503.845     -359.17022      110002.46      19.638366    
      6380   301.72646     -15663.91      -15504.2       -351.96346      109984.84      19.674107    
      6390   300.31954     -15663.545     -15504.58      -320.30721      109960.45      19.712672    
      6400   298.4141      -15662.916     -15504.959     -255.00462      109930.2       19.753922    
      6410   296.95382     -15662.517     -15505.333     -183.43257      109895.63      19.797982    
      6420   296.65287     -15662.699     -15505.675     -110.1727       109858.39      19.845018    
      6430   297.45671     -15663.435     -15505.985     -43.905237      109820.09      19.895221    
      6440   298.38253     -15664.206     -15506.266      26.807894      109782.19      19.948784    
      6450   298.56601     -15664.569     -15506.532      109.17205      109746.18      20.005708    
      6460   297.83294     -15664.43      -15506.781      188.43766      109713.66      20.065454    
      6470   296.85733     -15664.135     -15507.002      275.23953      109686.24      20.126894    
      6480   296.42527     -15664.099     -15507.195      339.48707      109665.51      20.188776    
      6490   297.06545     -15664.585     -15507.342      380.5209       109652.59      20.250069    
      6500   298.75851     -15665.617     -15507.478      402.56707      109648.06      20.310008    
      6510   301.03897     -15666.955     -15507.609      388.19821      109652.01      20.368093    
      6520   303.17492     -15668.239     -15507.763      357.19118      109663.9       20.424006    
      6530   304.46363     -15669.133     -15507.974      308.20148      109682.81      20.47773     
      6540   304.46763     -15669.404     -15508.243      261.49868      109707.5       20.529427    
      6550   303.5319      -15669.278     -15508.613      210.23902      109736.75      20.57943     
      6560   302.1606      -15669.032     -15509.092      126.95         109769.29      20.628066    
      6570   300.36396     -15668.668     -15509.679      61.804809      109803.4       20.675586    
      6580   297.92307     -15668.062     -15510.365     -14.539908      109837.52      20.722288    
      6590   295.1019      -15667.334     -15511.131     -82.089337      109870.13      20.768421    
      6600   292.70875     -15666.845     -15511.908     -139.63131      109899.87      20.814025    
      6610   291.14752     -15666.73      -15512.62      -196.45614      109925.63      20.858847    
      6620   290.24583     -15666.857     -15513.224     -266.10824      109946.34      20.902527    
      6630   289.74546     -15667.057     -15513.688     -320.90204      109960.76      20.944821    
      6640   289.42457     -15667.218     -15514.019     -349.33525      109967.99      20.985726    
      6650   289.29489     -15667.332     -15514.202     -370.25161      109967.62      21.025455    
      6660   289.68885     -15667.603     -15514.264     -380.37411      109959.48      21.064444    
      6670   290.49876     -15667.99      -15514.223     -369.8652       109943.65      21.103049    
      6680   291.18706     -15668.235     -15514.104     -333.22459      109920.62      21.14156     
      6690   291.44334     -15668.183     -15513.916     -277.45585      109891.37      21.180254    
      6700   291.82737     -15668.152     -15513.682     -206.20847      109857.31      21.21932     
      6710   292.8445      -15668.406     -15513.398     -126.81902      109820.12      21.259066    
      6720   294.10086     -15668.774     -15513.101     -48.010424      109781.53      21.299969    
      6730   295.0987      -15668.995     -15512.793      41.769412      109743.26      21.34237     
      6740   295.57763     -15668.943     -15512.488      133.81548      109707.15      21.386387    
      6750   295.75465     -15668.743     -15512.194      228.99934      109675.03      21.431825    
      6760   295.7118      -15668.435     -15511.908      317.74255      109648.75      21.478253    
      6770   295.44269     -15668.002     -15511.618      395.04625      109629.93      21.525293    
      6780   294.97613     -15667.471     -15511.334      463.20921      109619.97      21.572537    
      6790   294.34701     -15666.845     -15511.041      494.23947      109619.9       21.619421    
      6800   293.51348     -15666.092     -15510.729      521.20365      109630.15      21.665485    
      6810   292.32942     -15665.129     -15510.393      526.57         109650.93      21.710159    
      6820   290.98139     -15664.045     -15510.023      514.34356      109681.99      21.752955    
      6830   289.80499     -15663.001     -15509.601      475.7779       109722.74      21.793558    
      6840   289.02317     -15662.119     -15509.133      405.05573      109772.03      21.831744    
      6850   288.71939     -15661.427     -15508.602      303.97336      109828.14      21.867405    
      6860   288.98278     -15660.98      -15508.016      182.80673      109888.76      21.900844    
      6870   289.6091      -15660.705     -15507.409      61.622541      109951.23      21.932813    
      6880   290.25359     -15660.416     -15506.779     -53.252053      110012.87      21.964147    
      6890   290.70532     -15660.031     -15506.155     -152.2871       110071.25      21.995511    
      6900   291.06969     -15659.614     -15505.545     -227.86489      110124.47      22.027462    
      6910   291.53952     -15659.264     -15504.946     -285.91413      110171.09      22.060644    
      6920   291.92596     -15658.887     -15504.364     -323.89931      110210.06      22.095716    
      6930   292.08752     -15658.407     -15503.799     -335.33962      110240.84      22.133127    
      6940   292.16031     -15657.885     -15503.238     -325.3234       110263.49      22.172849    
      6950   292.46529     -15657.486     -15502.679     -302.88636      110278.5       22.214481    
      6960   293.41637     -15657.428     -15502.116     -275.57949      110286.61      22.257592    
      6970   294.82918     -15657.614     -15501.555     -259.02824      110288.55      22.301943    
      6980   296.17382     -15657.778     -15501.008     -226.88608      110284.93      22.34745     
      6990   296.91315     -15657.636     -15500.474     -165.28454      110276.68      22.394006    
      7000   297.2839      -15657.326     -15499.968     -92.923187      110265.24      22.441389    
      7010   297.74577     -15657.076     -15499.473     -29.02271       110252.19      22.489347    
      7020   298.468       -15656.986     -15499.001      25.515916      110238.89      22.537351    
      7030   299.20165     -15656.924     -15498.55       81.635197      110226.55      22.584861    
      7040   299.76075     -15656.784     -15498.115      134.66222      110216.38      22.631377    
      7050   300.00706     -15656.506     -15497.706      176.59076      110209.39      22.676398    
      7060   299.75742     -15655.982     -15497.315      203.73816      110206.32      22.719331    
      7070   299.04638     -15655.246     -15496.955      222.85306      110207.63      22.759544    
      7080   298.13405     -15654.395     -15496.586      229.44367      110213.55      22.796466    
      7090   297.22565     -15653.554     -15496.226      222.43699      110224.08      22.829715    
      7100   296.48862     -15652.782     -15495.845      187.70805      110238.85      22.859216    
      7110   296.07506     -15652.164     -15495.446      154.88502      110257.12      22.885381    
      7120   296.24434     -15651.824     -15495.016      106.17301      110278.04      22.908889    
      7130   296.84607     -15651.688     -15494.561      40.639253      110300.53      22.930485    
      7140   297.61371     -15651.635     -15494.102     -21.770381      110323.19      22.950902    
      7150   298.32961     -15651.539     -15493.627     -74.384933      110344.7       22.970581    
      7160   298.87686     -15651.379     -15493.177     -112.62905      110363.97      22.989654    
      7170   299.32072     -15651.162     -15492.726     -116.93305      110380.3       23.008127    
      7180   299.58719     -15650.884     -15492.306     -109.32512      110393.67      23.025965    
      7190   299.79403     -15650.59      -15491.903     -92.92083       110404.36      23.043045    
      7200   300.28315     -15650.465     -15491.519     -87.143412      110412.7       23.059109    
      7210   300.86672     -15650.413     -15491.158     -88.94806       110418.87      23.073778    
      7220   301.16824     -15650.244     -15490.83      -96.996844      110422.95      23.086413    
      7230   301.23033     -15649.97      -15490.522     -99.342618      110424.88      23.096248    
      7240   301.26744     -15649.72      -15490.253     -114.44522      110424.6       23.10258     
      7250   301.46298     -15649.563     -15489.993     -125.62353      110421.89      23.104898    
      7260   301.94453     -15649.585     -15489.76      -137.85437      110416.53      23.103257    
      7270   302.58696     -15649.725     -15489.559     -138.30921      110408.37      23.098343    
      7280   303.27882     -15649.914     -15489.382     -141.91295      110397.47      23.091307    
      7290   303.96225     -15650.137     -15489.243     -135.46055      110383.85      23.083564    
      7300   304.16459     -15650.144     -15489.143     -124.85369      110367.68      23.076663    
      7310   303.35952     -15649.659     -15489.085     -84.704492      110349.32      23.07215     
      7320   301.83916     -15648.841     -15489.071     -25.410867      110329.68      23.071299    
      7330   300.7696      -15648.273     -15489.07       58.112004      110310.08      23.075007    
      7340   300.7665      -15648.275     -15489.074      106.84039      110292.13      23.08384     
      7350   301.49175     -15648.68      -15489.094      138.71502      110276.86      23.097964    
      7360   302.55204     -15649.278     -15489.131      167.80513      110264.92      23.117035    
      7370   303.63548     -15649.923     -15489.202      203.40259      110256.88      23.140401    
      7380   304.48963     -15650.488     -15489.316      201.84799      110253.26      23.167435    
      7390   304.62068     -15650.731     -15489.49       192.20854      110253.98      23.197456    
      7400   303.85983     -15650.563     -15489.724      184.60203      110258.75      23.229766    
      7410   302.7147      -15650.26      -15490.027      175.84875      110267.33      23.263504    
      7420   301.96189     -15650.203     -15490.369      168.51122      110279.43      23.297568    
      7430   301.94996     -15650.596     -15490.767      153.04649      110294.77      23.331071    
      7440   302.41481     -15651.296     -15491.222      132.70914      110312.96      23.363491    
      7450   302.95108     -15652.073     -15491.715      104.68764      110333.5       23.394623    
      7460   303.08653     -15652.688     -15492.258      94.132812      110355.83      23.424256    
      7470   302.57911     -15652.994     -15492.833      68.26808       110379.55      23.452205    
      7480   301.5723      -15653.053     -15493.424      35.563326      110404.12      23.478579    
      7490   300.32989     -15652.969     -15493.998      5.0999633      110428.89      23.503571    
      7500   299.09695     -15652.841     -15494.523     -49.449498      110453.06      23.527308    
      7510   297.96013     -15652.688     -15494.971     -104.40999      110475.59      23.549747    
      7520   296.93588     -15652.529     -15495.355     -144.55709      110495.38      23.570659    
      7530   296.25656     -15652.459     -15495.644     -165.03792      110511.64      23.589521    
      7540   295.99357     -15652.523     -15495.848     -162.28458      110524.01      23.605555    
      7550   296.19498     -15652.778     -15495.996     -140.38911      110532.61      23.617977    
      7560   296.83914     -15653.206     -15496.083     -91.877326      110538.01      23.62617     
      7570   297.75995     -15653.735     -15496.125     -55.451574      110541.27      23.629702    
      7580   298.7747      -15654.289     -15496.142     -32.147183      110543.25      23.628424    
      7590   299.53045     -15654.699     -15496.152     -31.589686      110544.44      23.622292    
      7600   299.5793      -15654.725     -15496.151     -29.273024      110544.93      23.611139    
      7610   299.0514      -15654.443     -15496.149     -18.681107      110544.8       23.59481     
      7620   298.41929     -15654.098     -15496.138     -12.06841       110544.24      23.573454    
      7630   297.82141     -15653.754     -15496.111      8.4620098      110543.48      23.547538    
      7640   297.08476     -15653.322     -15496.069      14.793012      110542.86      23.517886    
      7650   296.22217     -15652.787     -15495.991      38.933699      110542.62      23.485745    
      7660   295.44351     -15652.271     -15495.887      67.795743      110543.22      23.452545    
      7670   295.1069      -15651.938     -15495.731      82.319649      110545.25      23.419653    
      7680   295.42536     -15651.908     -15495.534      80.305288      110548.95      23.388209    
      7690   295.93067     -15651.92      -15495.278      80.739983      110554.32      23.358926    
[...]
      8350   302.6039      -15666.253     -15506.079      90.096762      109663.05      22.05279     
      8360   301.40718     -15665.994     -15506.453      68.507894      109670.41      22.021572    
      8370   301.08943     -15666.197     -15506.825      33.726778      109679.05      21.987642    
      8380   301.91314     -15667.015     -15507.206     -22.096331      109688.2       21.950949    
      8390   303.25274     -15668.093     -15507.575     -81.220424      109696.73      21.911546    
      8400   304.14606     -15668.951     -15507.96      -139.33317      109703.4       21.869476    
      8410   304.07407     -15669.315     -15508.363     -166.80347      109707.06      21.824615    
      8420   303.07162     -15669.203     -15508.781     -172.16273      109707.19      21.776851    
      8430   301.42464     -15668.739     -15509.189     -159.65664      109703.7       21.726412    
      8440   299.6272      -15668.188     -15509.589     -126.45039      109696.9       21.673722    
      8450   298.19587     -15667.776     -15509.935     -86.166056      109687.53      21.619245    
      8460   297.52115     -15667.722     -15510.238     -55.347028      109676.44      21.563463    
      8470   297.35439     -15667.882     -15510.486     -23.257253      109664.36      21.50679     
      8480   297.38804     -15668.095     -15510.681      10.384664      109651.98      21.449617    
      8490   297.10631     -15668.102     -15510.837      46.776975      109639.98      21.392206    
      8500   296.03912     -15667.651     -15510.952      83.027332      109629.13      21.33475     
      8510   294.41864     -15666.856     -15511.015      111.26657      109620.17      21.277415    
      8520   293.14186     -15666.188     -15511.023      130.47844      109613.65      21.220422    
      8530   293.03146     -15666.065     -15510.958      114.78601      109609.86      21.164153    
      8540   294.12861     -15666.508     -15510.82       70.049522      109608.47      21.108896    
      8550   295.97971     -15667.302     -15510.634      16.88639       109608.58      21.05484     
      8560   297.74911     -15668.009     -15510.404     -35.791162      109609.05      21.002053    
      8570   298.77535     -15668.302     -15510.154     -74.369139      109608.77      20.950634    
      8580   298.91905     -15668.122     -15509.898     -109.50318      109606.87      20.900769    
      8590   298.6902      -15667.736     -15509.634     -110.91808      109602.78      20.852804    
      8600   298.6746      -15667.449     -15509.355     -100.82279      109596.45      20.807097    
      8610   298.9366      -15667.312     -15509.078     -98.206399      109588.06      20.763945    
      8620   299.36303     -15667.25      -15508.791     -90.829099      109577.7       20.723632    
      8630   299.74026     -15667.161     -15508.503     -60.433346      109565.63      20.686346    
      8640   299.74135     -15666.885     -15508.226     -18.90242       109552.46      20.652343    
      8650   299.35124     -15666.392     -15507.939      22.947923      109539.01      20.62199     
      8660   299.12395     -15665.999     -15507.667      60.654457      109526.18      20.595638    
      8670   299.54589     -15665.939     -15507.384      91.870721      109514.77      20.573578    
      8680   300.72803     -15666.296     -15507.114      110.57217      109505.4       20.556036    
      8690   302.43071     -15666.949     -15506.867      101.478        109498.42      20.543178    
      8700   304.09878     -15667.613     -15506.648      95.894538      109493.66      20.535083    
      8710   305.05946     -15667.961     -15506.487      83.820435      109490.93      20.531629    
      8720   304.93665     -15667.803     -15506.394      63.537924      109489.97      20.532574    
      8730   303.95183     -15667.237     -15506.349      35.929255      109490.28      20.537498    
      8740   302.52274     -15666.482     -15506.351      9.8120801      109491.3       20.545673    
      8750   300.92036     -15665.666     -15506.383     -1.3838609      109492.56      20.55626     
      8760   299.65026     -15665.032     -15506.421     -24.40647       109493.75      20.568561    
      8770   299.10204     -15664.764     -15506.443     -40.771197      109494.45      20.581784    
      8780   299.21289     -15664.85      -15506.47      -76.257088      109494.23      20.595092    
      8790   299.66537     -15665.092     -15506.473     -84.65057       109492.48      20.607962    
      8800   300.17411     -15665.362     -15506.474     -93.330631      109488.9       20.620025    
      8810   300.58941     -15665.589     -15506.481     -79.155987      109483.43      20.630885    
      8820   301.0564      -15665.85      -15506.494     -60.600334      109476.34      20.639994    
      8830   301.69542     -15666.203     -15506.51      -17.41428       109468.04      20.646969    
      8840   302.50917     -15666.668     -15506.544      22.197799      109459.41      20.651528    
      8850   303.60619     -15667.295     -15506.59       64.508242      109451.36      20.653443    
      8860   304.83874     -15668.033     -15506.676      85.323983      109444.7       20.652498    
      8870   305.5568      -15668.53      -15506.793      99.319055      109439.9       20.648357    
      8880   305.32314     -15668.559     -15506.945      112.8842       109437.22      20.640457    
      8890   304.02602     -15668.039     -15507.112      140.13056      109436.97      20.628246    
      8900   302.04494     -15667.162     -15507.284      154.71077      109439.63      20.611272    
      8910   300.00734     -15666.232     -15507.432      168.70851      109445.51      20.589298    
      8920   298.60753     -15665.612     -15507.553      151.20599      109454.8       20.562138    
      8930   298.19447     -15665.469     -15507.628      121.12981      109467.19      20.529762    
      8940   298.50889     -15665.689     -15507.683      77.201381      109481.97      20.492151    
      8950   299.04471     -15665.998     -15507.708      34.109564      109498.25      20.449378    
      8960   299.65789     -15666.344     -15507.729     -12.727248      109515.09      20.401779    
      8970   300.30545     -15666.7       -15507.742     -57.944625      109531.52      20.34989     
      8980   300.41599     -15666.764     -15507.747     -92.971621      109546.61      20.294449    
      8990   299.63408     -15666.366     -15507.764     -107.91759      109559.64      20.236146    
      9000   298.23024     -15665.636     -15507.776     -101.62396      109570.34      20.175733    
      9010   296.81673     -15664.877     -15507.766     -95.571249      109578.85      20.114018    
      9020   295.73418     -15664.263     -15507.725     -86.695238      109585.29      20.051712    
      9030   295.01294     -15663.788     -15507.632     -78.930295      109589.84      19.989439    
      9040   294.77712     -15663.533     -15507.502     -93.703269      109592.6       19.927564    
      9050   295.15052     -15663.535     -15507.306     -113.02233      109593.33      19.866345    
      9060   296.15762     -15663.814     -15507.052     -126.25604      109591.67      19.806168    
      9070   297.31137     -15664.131     -15506.758     -141.92116      109587.32      19.747479    
      9080   298.03904     -15664.188     -15506.429     -149.24656      109580.01      19.690605    
      9090   297.99451     -15663.814     -15506.08      -147.75752      109569.63      19.635598    
      9100   297.22007     -15663.025     -15505.701     -135.49229      109556.24      19.582253    
      9110   295.92935     -15661.943     -15505.302     -82.926941      109540.24      19.530119    
      9120   294.74932     -15660.89      -15504.873     -43.051641      109522.6       19.478619    
      9130   294.60106     -15660.336     -15504.398     -17.173147      109504.2       19.427264    
      9140   295.99265     -15660.568     -15503.893     -20.357045      109485.59      19.375791    
      9150   298.42482     -15661.341     -15503.379     -50.759398      109466.68      19.324431    
      9160   300.62287     -15662.012     -15502.886     -89.636882      109446.88      19.273601    
      9170   301.65906     -15662.121     -15502.447     -96.541546      109425.48      19.223833    
      9180   301.49047     -15661.653     -15502.068     -90.695644      109402.3       19.175589    
      9190   300.76288     -15660.948     -15501.748     -74.704337      109377.47      19.129137    
      9200   300.04122     -15660.289     -15501.471     -63.17371       109351.28      19.084599    
      9210   299.68792     -15659.86      -15501.229     -43.83963       109324.06      19.04185     
      9220   299.60722     -15659.591     -15501.003     -30.642188      109296.16      19.000805    
      9230   299.2729      -15659.211     -15500.8        0.27558891     109267.93      18.9612      
      9240   298.36607     -15658.535     -15500.604      74.202959      109240.12      18.922665    
      9250   297.50399     -15657.891     -15500.416      138.74994      109214.16      18.884849    
      9260   297.45659     -15657.662     -15500.212      182.16319      109191.39      18.847377    
      9270   298.09176     -15657.784     -15499.998      213.45224      109172.66      18.809916    
      9280   298.5951      -15657.834     -15499.782      240.99599      109158.56      18.772365    
      9290   298.46677     -15657.54      -15499.556      284.95207      109149.7       18.734763    
      9300   297.72429     -15656.926     -15499.334      329.62077      109146.9       18.697213    
      9310   296.89286     -15656.249     -15499.098      351.56252      109150.98      18.659993    
      9320   296.60752     -15655.834     -15498.834      361.60322      109162.33      18.623664    
      9330   297.27453     -15655.909     -15498.556      347.35353      109181.09      18.589241    
      9340   298.53595     -15656.287     -15498.266      305.59095      109206.88      18.557963    
      9350   299.61316     -15656.561     -15497.969      252.33556      109238.8       18.531185    
      9360   300.18065     -15656.574     -15497.683      196.4775       109275.66      18.509965    
      9370   300.49274     -15656.469     -15497.412      145.23506      109316.3       18.494963    
      9380   300.74742     -15656.359     -15497.168      78.788153      109359.56      18.486216    
      9390   301.06105     -15656.293     -15496.935      10.157926      109404.05      18.483245    
      9400   301.54125     -15656.339     -15496.727     -59.006575      109448.3       18.48534     
      9410   302.02135     -15656.405     -15496.539     -113.96273      109490.93      18.491679    
      9420   302.29947     -15656.402     -15496.389     -170.0374       109530.72      18.501411    
      9430   302.25203     -15656.257     -15496.269     -203.52999      109566.6       18.513755    
      9440   301.86805     -15655.959     -15496.174     -214.2411       109597.86      18.52799     
      9450   301.22878     -15655.55      -15496.103     -223.28277      109624.31      18.543543    
      9460   300.51367     -15655.119     -15496.051     -216.52656      109645.85      18.559976    
      9470   299.77604     -15654.683     -15496.005     -213.06284      109662.58      18.577082    
      9480   299.20113     -15654.334     -15495.961     -200.11212      109674.64      18.594893    
      9490   299.20028     -15654.28      -15495.907     -181.43936      109682.35      18.613665    
      9500   299.64833     -15654.458     -15495.848     -171.46905      109686.07      18.633872    
      9510   300.05739     -15654.615     -15495.789     -164.17472      109686.08      18.655978    
      9520   300.10687     -15654.588     -15495.735     -145.73636      109682.66      18.680288    
      9530   299.6132      -15654.265     -15495.673     -127.21082      109676.21      18.706987    
      9540   298.82675     -15653.777     -15495.602     -101.42984      109667.14      18.736243    
      9550   298.19955     -15653.365     -15495.522     -67.513735      109656.02      18.768238    
      9560   298.18605     -15653.253     -15495.417     -50.219216      109643.49      18.803103    
      9570   298.771       -15653.42      -15495.274     -30.557339      109629.94      18.840859    
      9580   299.82269     -15653.81      -15495.107     -4.1338686      109615.85      18.881426    
      9590   301.33439     -15654.396     -15494.893      9.8184833      109601.76      18.924459    
      9600   303.25551     -15655.169     -15494.65       24.311497      109587.98      18.969349    
      9610   304.92847     -15655.772     -15494.368      48.772975      109574.82      19.015285    
      9620   305.44548     -15655.733     -15494.055      98.762578      109562.8       19.061349    
      9630   304.89466     -15655.101     -15493.714      164.40047      109552.96      19.106496    
      9640   304.23048     -15654.368     -15493.333      202.87993      109546.57      19.149673    
      9650   303.91889     -15653.766     -15492.895      221.69925      109544.43      19.189982    
      9660   303.9298      -15653.307     -15492.43       239.93018      109546.99      19.226789    
      9670   304.24053     -15652.963     -15491.922      238.49337      109554.55      19.259529    
      9680   304.93212     -15652.816     -15491.41       221.09617      109567.05      19.287675    
      9690   306.02508     -15652.895     -15490.909      200.2305       109584.1       19.310856    
      9700   307.37036     -15653.145     -15490.447      161.80872      109605.18      19.328712    
      9710   308.57608     -15653.393     -15490.057      116.07475      109629.5       19.341026    
      9720   309.31588     -15653.484     -15489.757      72.917899      109656.07      19.347963    
      9730   309.16451     -15653.2       -15489.553      51.458766      109684         19.349984    
      9740   308.24275     -15652.599     -15489.439      30.736393      109712.8       19.347768    
      9750   307.45012     -15652.163     -15489.423      6.4929877      109742.04      19.342117    
      9760   307.39021     -15652.196     -15489.488     -42.796444      109771.14      19.333663    
      9770   307.82609     -15652.573     -15489.635     -87.354178      109799.16      19.32279     
      9780   308.22118     -15653.021     -15489.874     -143.13968      109825.11      19.309863    
      9790   307.97668     -15653.23      -15490.212     -190.38062      109847.83      19.295374    
      9800   306.81724     -15653.048     -15490.643     -218.56884      109866.36      19.279958    
      9810   304.98885     -15652.594     -15491.157     -222.59027      109880.18      19.264147    
      9820   303.04373     -15652.128     -15491.721     -215.02547      109889.19      19.248337    
      9830   301.46416     -15651.859     -15492.288     -196.63581      109893.55      19.232841    
      9840   300.60548     -15651.968     -15492.851     -174.88374      109893.68      19.217941    
      9850   300.47298     -15652.419     -15493.373     -172.78306      109890.04      19.204081    
      9860   300.78492     -15653.056     -15493.844     -164.76505      109882.77      19.191819    
      9870   301.39976     -15653.811     -15494.274     -150.51471      109872.04      19.181715    
      9880   301.9398      -15654.491     -15494.668     -128.44466      109858.2       19.174327    
      9890   302.13796     -15654.963     -15495.035     -99.384689      109841.7       19.17023     
      9900   301.8987      -15655.18      -15495.379     -79.977826      109823.1       19.170077    
      9910   301.25586     -15655.162     -15495.701     -42.382146      109802.91      19.174496    
      9920   300.28286     -15654.948     -15496.002      0.77239139     109781.9       19.183926    
      9930   299.20578     -15654.645     -15496.269      34.951871      109760.91      19.198462    
      9940   298.58954     -15654.555     -15496.505      56.071563      109740.65      19.217791    
      9950   298.90944     -15654.923     -15496.704      52.179893      109721.58      19.241301    
      9960   299.80982     -15655.575     -15496.88       49.762297      109703.73      19.268372    
      9970   300.45389     -15656.075     -15497.039      31.311348      109686.91      19.298355    
      9980   300.36508     -15656.183     -15497.193      30.535372      109670.85      19.330549    
      9990   299.83628     -15656.05      -15497.34       30.5915        109655.48      19.364361    
     10000   299.37646     -15655.944     -15497.478      16.604197      109640.74      19.399345    
Loop time of 14018.3 on 1 procs for 10000 steps with 4096 atoms

Performance: 0.031 ns/day, 778.795 hours/ns, 0.713 timesteps/s, 2.922 katom-step/s
95.8% CPU use with 1 MPI tasks x 1 OpenMP threads

MPI task timing breakdown:
Section |  min time  |  avg time  |  max time  |%varavg| %total
---------------------------------------------------------------
Pair    | 13820      | 13820      | 13820      |   0.0 | 98.59
Bond    | 0.08449    | 0.08449    | 0.08449    |   0.0 |  0.00
Neigh   | 5.0776     | 5.0776     | 5.0776     |   0.0 |  0.04
Comm    | 0.86145    | 0.86145    | 0.86145    |   0.0 |  0.01
Output  | 189.35     | 189.35     | 189.35     |   0.0 |  1.35
Modify  | 2.1481     | 2.1481     | 2.1481     |   0.0 |  0.02
Other   |            | 0.4908     |            |       |  0.00

Nlocal:           4096 ave        4096 max        4096 min
Histogram: 1 0 0 0 0 0 0 0 0 0
Nghost:           4766 ave        4766 max        4766 min
Histogram: 1 0 0 0 0 0 0 0 0 0
Neighs:              0 ave           0 max           0 min
Histogram: 1 0 0 0 0 0 0 0 0 0
FullNghs:       154836 ave      154836 max      154836 min
Histogram: 1 0 0 0 0 0 0 0 0 0

Total # of neighbors = 154836
Ave neighs/atom = 37.801758
Ave special neighs/atom = 0
Neighbor list builds = 897
Dangerous builds = 232
Setting up Verlet run ...
  Unit style    : metal
  Current step  : 10000
  Time step     : 0.0005
Per MPI rank memory allocation (min/avg/max) = 8.897 | 8.897 | 8.897 Mbytes
   Step          Temp          PotEng         TotEng         Press          Volume        c_msd[4]   
     10000   299.37646     -15655.947     -15497.481      16.605005      109640.74      19.399345    
     10010   299.31898     -15655.911     -15497.476     -3.9013442      109640.76      19.404019    
     10020   298.84503     -15655.652     -15497.468      6.5264889      109640.88      19.40852     
     10030   298.19291     -15655.27      -15497.43       31.431097      109641.39      19.412925    
     10040   297.69894     -15654.944     -15497.366      57.816781      109642.53      19.417331    
     10050   297.71302     -15654.851     -15497.265      63.627948      109644.43      19.421805    
     10060   298.46214     -15655.095     -15497.113      58.778973      109647         19.426254    
     10070   299.76146     -15655.578     -15496.908      45.18273       109649.93      19.430494    
     10080   301.23442     -15656.098     -15496.648      26.910287      109652.86      19.434333    
     10090   302.75184     -15656.596     -15496.343      14.289063      109655.5       19.437629    
     10100   304.40321     -15657.116     -15495.989      1.0681493      109657.61      19.440266    
     10110   306.15019     -15657.676     -15495.624     -15.69678       109659         19.442143    
     10120   307.64714     -15658.102     -15495.258     -31.344419      109659.54      19.443225    
     10130   308.49184     -15658.223     -15494.932     -36.240538      109659.16      19.443541    
     10140   308.52151     -15657.928     -15