LAMMPS (2 Aug 2023)
OMP_NUM_THREADS environment is not set. Defaulting to 1 thread. (src/comm.cpp:98)
  using 1 OpenMP thread(s) per MPI task
Reading data file ...
  orthogonal box = (0 0 0) to (95.74189 23.935472 47.870945)
  1 by 1 by 1 MPI processor grid
  reading atoms ...
  4096 atoms
Finding 1-2 1-3 1-4 neighbors ...
  special bond factors lj:    0        0        0       
  special bond factors coul:  0        0        0       
     0 = max # of 1-2 neighbors
     0 = max # of 1-3 neighbors
     0 = max # of 1-4 neighbors
     1 = max # of special neighbors
  special bonds CPU = 0.004 seconds
  read_data CPU = 0.074 seconds
2048 atoms in group gSolid
2048 atoms in group gLiquid
Neighbor list info ...
  update: every = 1 steps, delay = 10 steps, check = yes
  max neighbors/atom: 2000, page size: 100000
  master list distance cutoff = 6.3
  ghost atom cutoff = 6.3
  binsize = 3.15, bins = 31 8 16
  1 neighbor lists, perpetual/occasional/extra = 1 0 0
  (1) pair chgnet/gpu, perpetual
      attributes: full, newton on
      pair build: full/bin
      stencil: full/bin/3d
      bin: standard
Setting up Verlet run ...
  Unit style    : metal
  Current step  : 0
  Time step     : 0.0005
Per MPI rank memory allocation (min/avg/max) = 7.105 | 7.105 | 7.105 Mbytes
   Step          Temp          PotEng         TotEng         Press          Volume        c_msd[4]   
         0   300           -14999.284     -14840.488      25435.404      109702.37      0            
        10   296.47973     -15001.688     -14844.755      24743.98       109972.09      0.0014604448 
        20   286.90059     -15008.225     -14856.362      22652.146      110760.17      0.013472164  
        30   273.09828     -15016.479     -14871.922      19789.449      111950.13      0.05326665   
        40   257.83689     -15023.285     -14886.807      17091.965      113283.51      0.12872117   
        50   244.32646     -15027.654     -14898.327      15010.741      114513.2       0.22754307   
        60   235.13766     -15031.226     -14906.762      13499.542      115586.26      0.33714824   
        70   231.63037     -15036.131     -14913.524      12367.487      116574.89      0.45732442   
        80   234.27825     -15043.588     -14919.58       11465.17       117541.23      0.59207842   
        90   242.60143     -15053.598     -14925.184      10771.774      118501.57      0.74266333   
       100   255.29654     -15065.387     -14930.253      10274.049      119444.69      0.90685956   
       110   271.57726     -15078.536     -14934.785      9937.9768      120354.25      1.0808743    
       120   291.23262     -15093.021     -14938.866      9708.9697      121221.56      1.2614581    
       130   312.93846     -15108.319     -14942.675      9512.1776      122047.86      1.4469908    
       140   334.01235     -15123.225     -14946.425      9290.5022      122840.21      1.6371823    
       150   352.09523     -15136.694     -14950.323      8989.3376      123606.4       1.8323425    
       160   365.73879     -15148.182     -14954.589      8583.9183      124351.65      2.0326071    
       170   374.79713     -15157.771     -14959.383      8057.3966      125077.48      2.2373131    
       180   380.58592     -15166.153     -14964.701      7396.4479      125781.89      2.4445911    
       190   384.76193     -15173.877     -14970.215      6615.8405      126460.03      2.6515926    
       200   387.36831     -15180.531     -14975.489      5754.2913      127105.28      2.8551842    
       210   386.63183     -15184.979     -14980.326      4934.7775      127711.19      3.0525757    
       220   381.21889     -15186.521     -14984.735      4199.072       128273.7       3.2417997    
       230   373.5192      -15186.498     -14988.787      3541.5709      128791.53      3.4216041    
       240   366.7776      -15186.619     -14992.476      2952.0568      129264.94      3.5910142    
       250   362.06514     -15187.516     -14995.867      2403.0061      129694.95      3.7491399    
       260   358.50446     -15188.779     -14999.016      1902.4463      130082.56      3.8952049    
       270   353.77221     -15189.225     -15001.966      1510.6949      130428.9       4.0287863    
       280   345.89791     -15187.832     -15004.741      1229.1796      130736.58      4.1502171    
       290   336.33407     -15185.331     -15007.303      1037.2648      131009.66      4.2606771    
       300   328.323       -15183.436     -15009.648      904.20943      131252.98      4.3620065    
       310   323.45812     -15183.015     -15011.802      752.23457      131470.96      4.4560828    
       320   321.33079     -15183.892     -15013.805      594.17888      131666.25      4.5439481    
       330   320.41213     -15185.303     -15015.702      466.84046      131840.54      4.6260836    
       340   320.56138     -15187.219     -15017.539      356.31428      131995.44      4.7028638    
       350   321.87116     -15189.717     -15019.344      254.70834      132132.43      4.7746289    
       360   322.98328     -15192.09      -15021.128      138.92672      132252.6       4.8414094    
       370   322.79193     -15193.801     -15022.94       28.590439      132356.27      4.9029001    
       380   322.04388     -15195.205     -15024.741     -83.861292      132443.63      4.9587537    
       390   321.4433      -15196.674     -15026.527     -201.64252      132514.52      5.0084243    
       400   322.11589     -15198.808     -15028.305     -330.40269      132568.42      5.051284     
       410   325.66577     -15202.479     -15030.098     -484.0493       132604.46      5.0868904    
       420   331.02219     -15207.176     -15031.959     -642.51197      132621.16      5.1149542    
       430   334.18333     -15210.828     -15033.938     -761.71642      132616.97      5.1354375    
       440   332.19513     -15211.852     -15036.014     -774.03068      132591.61      5.1486837    
       450   326.85078     -15211.095     -15038.086     -719.87796      132547.51      5.1558574    
       460   322.73051     -15210.938     -15040.11      -635.24946      132488.67      5.158562     
       470   321.89489     -15212.441     -15042.056     -568.68397      132419.28      5.1583779    
       480   322.9382      -15214.904     -15043.967     -504.27702      132342.54      5.1564242    
       490   324.02392     -15217.376     -15045.864     -430.4098       132261.11      5.1533853    
       500   325.04458     -15219.827     -15047.774     -377.62237      132177.47      5.1495902    
       510   325.63646     -15222.061     -15049.695     -303.1866       132093.51      5.1451938    
       520   324.30571     -15223.293     -15051.631     -215.32225      132011.16      5.140465     
       530   321.53081     -15223.727     -15053.534     -124.76341      131932.57      5.1357629    
       540   319.17996     -15224.343     -15055.394     -31.038344      131859.84      5.1314441    
       550   316.87085     -15224.926     -15057.2        57.328822      131794.84      5.1279276    
       560   313.57001     -15224.91      -15058.931      126.03006      131739.03      5.12567      
       570   310.61266     -15225.003     -15060.589      166.63923      131693.21      5.1249009    
       580   308.81961     -15225.634     -15062.169      165.34617      131657.27      5.125523     
       590   307.14803     -15226.252     -15063.672      131.97019      131630.03      5.1270606    
       600   305.51193     -15226.82      -15065.107      61.519977      131609.41      5.1286796    
       610   304.40785     -15227.604     -15066.474     -19.607243      131592.72      5.1293325    
       620   303.60326     -15228.489     -15067.786     -101.93089      131577.21      5.1281251    
       630   302.74        -15229.279     -15069.033     -160.80059      131560.44      5.1243457    
       640   302.40678     -15230.305     -15070.235     -205.39427      131540.77      5.1175815    
       650   303.67522     -15232.131     -15071.389     -234.31124      131517.21      5.107633     
       660   306.26611     -15234.647     -15072.535     -262.00329      131489.2       5.0945612    
       670   307.73879     -15236.589     -15073.696     -269.83312      131456.4       5.0785911    
       680   305.42766     -15236.539     -15074.87      -221.53481      131419.2       5.0601542    
       690   300.35013     -15235.004     -15076.022     -140.98616      131379.31      5.0400101    
       700   295.33095     -15233.417     -15077.092     -64.127438      131339.26      5.0190227    
       710   292.12041     -15232.689     -15078.064     -27.000131      131301.16      4.9976893    
       720   291.15735     -15233.023     -15078.908     -9.7341237      131265.96      4.9762156    
       730   291.54671     -15233.969     -15079.647     -6.1773439      131233.86      4.9548657    
       740   291.52994     -15234.605     -15080.293     -9.1210443      131204.66      4.9340726    
       750   290.6642      -15234.674     -15080.819     -7.1856182      131177.98      4.9143224    
       760   289.50565     -15234.482     -15081.241     -3.6510646      131153.6       4.8960637    
       770   288.71248     -15234.376     -15081.555      8.9635148      131131.46      4.8797497    
       780   288.41563     -15234.407     -15081.743      18.592157      131111.6       4.8659001    
       790   288.26789     -15234.398     -15081.812      22.938092      131094.11      4.8549594    
       800   288.93121     -15234.693     -15081.756      23.839393      131078.9       4.8471037    
       810   290.34115     -15235.278     -15081.595      35.502523      131065.81      4.8422163    
       820   290.69492     -15235.195     -15081.325      40.758426      131054.89      4.8400782    
       830   290.59665     -15234.779     -15080.961      57.475994      131046.18      4.8402753    
       840   291.8625      -15234.996     -15080.507      69.638459      131039.86      4.8424112    
       850   293.61849     -15235.381     -15079.963      64.085838      131036.04      4.8461723    
       860   295.50043     -15235.772     -15079.358      42.363882      131034.33      4.8512216    
       870   297.98382     -15236.444     -15078.715      5.1633641      131033.94      4.85723      
       880   301.0303      -15237.396     -15078.054     -41.454208      131033.68      4.8638817    
       890   304.50346     -15238.597     -15077.417     -100.77221      131032.19      4.8709066    
       900   308.50302     -15240.121     -15076.824     -189.89072      131027.76      4.8779317    
       910   312.34935     -15241.654     -15076.321     -257.61193      131018.19      4.8843131    
       920   314.98583     -15242.688     -15075.959     -302.03423      131001.96      4.8894935    
       930   315.24516     -15242.623     -15075.757     -325.6868       130978.31      4.8931818    
       940   313.41595     -15241.629     -15075.731     -320.14891      130947.18      4.8954595    
       950   310.38668     -15240.148     -15075.854     -289.15775      130909.32      4.8966774    
       960   306.54828     -15238.35      -15076.087     -248.21602      130866.16      4.8972283    
       970   303.11575     -15236.829     -15076.384     -193.07287      130819.35      4.897438     
       980   301.04994     -15236.069     -15076.717     -139.41451      130770.64      4.8977445    
       990   299.15378     -15235.405     -15077.057     -77.137788      130721.75      4.8986938    
      1000   296.78348     -15234.471     -15077.377      0.92956888     130674.51      4.9008756    
      1010   294.98965     -15233.803     -15077.659      57.860807      130630.86      4.9046855    
      1020   293.6969      -15233.354     -15077.895      114.31208      130592.23      4.9102662    
      1030   292.89936     -15233.098     -15078.06       158.75994      130559.8       4.9176216    
      1040   293.39046     -15233.445     -15078.148      203.73321      130534.47      4.926624     
      1050   295.13982     -15234.395     -15078.171      220.23912      130516.82      4.9370029    
      1060   297.03313     -15235.377     -15078.151      221.52947      130506.83      4.9482619    
      1070   298.60459     -15236.16      -15078.103      201.29495      130503.93      4.9598728    
      1080   299.89962     -15236.781     -15078.038      194.56201      130507.15      4.9713941    
      1090   300.97012     -15237.279     -15077.97       175.54905      130515.72      4.9826504    
      1100   301.7599      -15237.643     -15077.915      157.38046      130528.75      4.9935212    
      1110   302.56895     -15238.035     -15077.879      135.59629      130545.41      5.0039158    
      1120   303.64891     -15238.605     -15077.878      97.983219      130564.77      5.0136559    
      1130   305.05716     -15239.385     -15077.912      49.122981      130585.54      5.0223335    
      1140   306.49637     -15240.229     -15077.994     -32.369419      130606.14      5.0294646    
      1150   307.49905     -15240.921     -15078.155     -118.18628      130624.34      5.0344716    
      1160   307.60432     -15241.214     -15078.393     -201.72074      130637.83      5.0369588    
      1170   307.29961     -15241.372     -15078.712     -288.29873      130644.5       5.0367413    
      1180   307.9459      -15242.107     -15079.105     -370.80233      130642.26      5.0337063    
      1190   308.59226     -15242.942     -15079.598     -418.60296      130629.44      5.0279254    
      1200   306.94543     -15242.637     -15080.164     -422.04063      130605.38      5.0196705    
      1210   303.26873     -15241.326     -15080.8       -387.3968       130570.72      5.0093453    
      1220   300.07799     -15240.288     -15081.451     -319.06446      130527.22      4.9974263    
      1230   298.83711     -15240.274     -15082.094     -251.05851      130477.37      4.9846528    
      1240   298.37992     -15240.643     -15082.704     -184.4003       130423.57      4.9718878    
      1250   297.42938     -15240.722     -15083.286     -104.08131      130368.09      4.9599657    
      1260   296.4494      -15240.745     -15083.828     -22.103254      130313.37      4.9495604    
      1270   295.99227     -15241.003     -15084.328      57.659311      130261.7       4.9410423    
      1280   295.92709     -15241.415     -15084.775      132.675        130215.21      4.9346423    
      1290   295.30363     -15241.49      -15085.18       200.13984      130175.68      4.9305756    
      1300   293.7394      -15241.014     -15085.531      274.34174      130144.64      4.9291823    
      1310   292.6188      -15240.691     -15085.802      303.50049      130123.47      4.9308651    
      1320   292.90388     -15241.063     -15086.024      292.06837      130112.41      4.9356697    
      1330   294.21374     -15241.888     -15086.154      247.49125      130110.46      4.9433791    
      1340   296.11542     -15242.971     -15086.231      173.21742      130115.74      4.9535606    
      1350   297.99932     -15244         -15086.263      80.752718      130125.67      4.9654464    
      1360   299.32755     -15244.716     -15086.276     -16.008618      130137.24      4.9779252    
      1370   299.41603     -15244.762     -15086.275     -91.369089      130147.63      4.9898163    
      1380   297.97788     -15243.994     -15086.268     -141.55271      130154.74      5.0003715    
      1390   296.50467     -15243.194     -15086.248     -168.00143      130157.34      5.0093767    
      1400   297.04702     -15243.418     -15086.185     -195.99087      130154.89      5.0169424    
      1410   300.43618     -15245.118     -15086.091     -252.3877       130146.81      5.0231222    
      1420   304.83814     -15247.365     -15086.008     -289.96119      130131.97      5.0277748    
      1430   307.26476     -15248.621     -15085.98      -308.99852      130109.63      5.0308951    
      1440   307.07685     -15248.56      -15086.018     -280.69258      130079.86      5.0326231    
      1450   305.37599     -15247.776     -15086.135     -213.48356      130043.91      5.0332737    
      1460   302.51159     -15246.441     -15086.316     -143.14019      130003.98      5.0334093    
      1470   298.98936     -15244.769     -15086.507     -59.762364      129962.41      5.0336294    
      1480   296.54777     -15243.662     -15086.693      9.91649        129921.61      5.0344703    
      1490   296.22724     -15243.643     -15086.843      46.340306      129883.47      5.0362037    
      1500   297.20149     -15244.263     -15086.948      49.572748      129848.82      5.038775     
      1510   298.41541     -15244.998     -15087.041      41.549826      129817.67      5.0419722    
      1520   300.63998     -15246.237     -15087.102      23.63596       129789.55      5.0455988    
      1530   303.83133     -15248.01      -15087.186      5.1445274      129763.77      5.0494894    
      1540   305.58342     -15249.059     -15087.307      29.4713        129739.77      5.0537069    
      1550   304.35569     -15248.59      -15087.488      105.9334       129718.17      5.0587435    
      1560   302.82517     -15247.996     -15087.705      187.07105      129700.9       5.0653695    
      1570   302.98937     -15248.342     -15087.963      243.53997      129689.95      5.0742385    
      1580   302.55859     -15248.406     -15088.256      280.52778      129686.54      5.0857789    
      1590   299.79913     -15247.255     -15088.565      317.03154      129691.42      5.1002105    
      1600   296.95769     -15246.053     -15088.867      331.39915      129705.17      5.1175264    
      1610   296.98974     -15246.352     -15089.149      279.00526      129727.53      5.1372738    
      1620   300.00063     -15248.197     -15089.401      181.9088       129756.55      5.1583988    
      1630   303.9144      -15250.527     -15089.659      52.656833      129789.09      5.1796613    
      1640   306.64196     -15252.267     -15089.955     -66.976337      129821.36      5.199861     
      1650   306.53482     -15252.588     -15090.333     -138.39494      129850.07      5.2180997    
      1660   303.3776      -15251.34      -15090.756     -188.53142      129873.22      5.2339699    
      1670   299.57253     -15249.79      -15091.22      -242.49505      129889.58      5.2472914    
      1680   297.74801     -15249.274     -15091.67      -306.03497      129897.98      5.2578804    
      1690   297.88963     -15249.777     -15092.098     -381.98934      129896.96      5.2653898    
      1700   298.30109     -15250.394     -15092.497     -457.57857      129884.79      5.2692873    
      1710   297.69192     -15250.456     -15092.882     -486.296        129860.1       5.2692393    
      1720   296.34499     -15250.097     -15093.235     -465.23283      129822.78      5.2654999    
      1730   295.75395     -15250.107     -15093.559     -411.46057      129774.08      5.2587541    
      1740   296.70876     -15250.885     -15093.831     -359.7228       129716.04      5.2498282    
      1750   298.2246      -15251.935     -15094.078     -319.89881      129650.64      5.2394545    
      1760   298.5146      -15252.314     -15094.305     -256.38319      129579.54      5.2283622    
      1770   297.25081     -15251.852     -15094.511     -161.58853      129504.95      5.2173653    
      1780   296.03661     -15251.377     -15094.679     -82.078396      129429.66      5.2072606    
      1790   296.82001     -15251.924     -15094.811     -22.941512      129356.04      5.1985971    
      1800   299.10077     -15253.227     -15094.906      21.362913      129285.7       5.1916676    
      1810   301.02424     -15254.33      -15094.992      81.617799      129219.84      5.1866582    
      1820   301.96328     -15254.924     -15095.089      157.30012      129159.92      5.1836283    
      1830   303.18467     -15255.682     -15095.2        208.84958      129107.65      5.1824935    
      1840   305.14733     -15256.877     -15095.356      248.63623      129064.16      5.1831298    
      1850   305.92887     -15257.497     -15095.563      275.7209       129030.08      5.185575     
      1860   305.09895     -15257.33      -15095.835      315.86662      129005.76      5.1900539    
      1870   304.84124     -15257.52      -15096.161      328.82334      128991.71      5.1968703    
      1880   305.96632     -15258.504     -15096.55       310.7443       128987.7       5.2061502    
      1890   306.48382     -15259.221     -15096.993      283.27129      128992.76      5.2178818    
      1900   304.93639     -15258.918     -15097.509      267.02338      129005.69      5.2320662    
      1910   302.88508     -15258.389     -15098.065      256.39383      129025.59      5.2487107    
      1920   301.38337     -15258.17      -15098.642      228.74104      129051.75      5.2677592    
      1930   299.57345     -15257.785     -15099.215      200.58143      129083.09      5.2890351    
      1940   297.23762     -15257.107     -15099.774      191.74149      129118.61      5.3122914    
      1950   295.44147     -15256.666     -15100.283      172.08346      129157.73      5.3372532    
      1960   295.13315     -15256.949     -15100.729      121.3007       129199.69      5.3635165    
      1970   296.14869     -15257.887     -15101.129      60.638186      129242.99      5.3905771    
      1980   297.98765     -15259.222     -15101.491     -46.047701      129285.68      5.4178235    
      1990   299.65333     -15260.429     -15101.816     -147.66366      129324.94      5.4444002    
      2000   299.49797     -15260.666     -15102.136     -227.02299      129358.03      5.469528     
      2010   296.80036     -15259.549     -15102.446     -254.88743      129383.04      5.4925828    
      2020   293.33554     -15257.986     -15102.718     -271.71914      129399.39      5.5132283    
      2030   290.39948     -15256.639     -15102.924     -263.7426       129407.16      5.5312529    
      2040   288.40864     -15255.691     -15103.031     -248.3645       129406.97      5.5465792    
      2050   288.26908     -15255.611     -15103.025     -232.79277      129399.6       5.559283     
      2060   289.68361     -15256.234     -15102.899     -225.62269      129385.8       5.5696012    
      2070   290.98825     -15256.703     -15102.677     -216.8845       129366.09      5.5778272    
      2080   291.50191     -15256.648     -15102.351     -198.47027      129341.03      5.584254     
      2090   291.81696     -15256.403     -15101.939     -162.32335      129311.49      5.5892153    
      2100   292.22668     -15256.121     -15101.44      -139.44025      129278.65      5.5930257    
      2110   292.98904     -15255.963     -15100.878     -130.06612      129243.3       5.5957519    
      2120   294.44788     -15256.116     -15100.259     -136.20745      129205.86      5.5972508    
      2130   295.84273     -15256.188     -15099.592     -154.06942      129166.22      5.5973587    
      2140   296.31348     -15255.753     -15098.908     -131.28494      129124.13      5.5959898    
      2150   295.86337     -15254.822     -15098.216     -90.983413      129080.28      5.5934765    
      2160   295.28648     -15253.814     -15097.513     -44.026682      129035.92      5.5904077    
      2170   295.39813     -15253.157     -15096.797     -0.29634094     128992.37      5.5874871    
      2180   296.37593     -15252.945     -15096.068      24.70865       128950.78      5.5853011    
      2190   298.40653     -15253.286     -15095.334      27.414774      128911.76      5.5840567    
      2200   301.06622     -15253.984     -15094.624      16.668959      128875.3       5.5834781    
      2210   303.2211      -15254.456     -15093.955     -3.098544       128840.97      5.5830604    
      2220   303.79145     -15254.143     -15093.34      -6.6935107      128808.19      5.582402     
      2230   303.26484     -15253.309     -15092.784      4.9079517      128776.74      5.5815503    
      2240   303.29348     -15252.817     -15092.278      17.119665      128746.88      5.5809243    
      2250   304.81805     -15253.172     -15091.825      18.076763      128718.84      5.5810424    
      2260   307.13801     -15253.998     -15091.424      21.471539      128692.61      5.5823332    
      2270   308.85029     -15254.584     -15091.103      34.786089      128668.21      5.5850735    
      2280   309.48616     -15254.689     -15090.872      51.663859      128645.93      5.5893779    
      2290   309.30729     -15254.474     -15090.751      89.714573      128626.21      5.5953059    
      2300   308.6926      -15254.127     -15090.73       138.63236      128609.96      5.6030577    
      2310   307.39872     -15253.511     -15090.798      197.06135      128598.38      5.6129243    
      2320   305.32542     -15252.562     -15090.948      261.67929      128592.99      5.6251194    
      2330   303.23613     -15251.671     -15091.162      324.53885      128595.33      5.6397723    
      2340   301.55189     -15251.032     -15091.415      370.45105      128606.81      5.6570667    
      2350   299.70012     -15250.314     -15091.677      410.25461      128628.37      5.6772305    
      2360   298.30302     -15249.838     -15091.94       419.14032      128660.63      5.7004653    
      2370   298.67705     -15250.295     -15092.199      373.30717      128703.29      5.7266371    
      2380   300.39828     -15251.449     -15092.442      290.81904      128754.7       5.7551308    
      2390   301.47766     -15252.266     -15092.687      175.0245       128812.12      5.7850567    
      2400   301.67654     -15252.627     -15092.943      76.473127      128872.1       5.8154079    
      2410   301.65526     -15252.894     -15093.221     -29.872594      128931.62      5.8454846    
      2420   301.36976     -15253.025     -15093.504     -135.95901      128987.62      5.8747001    
      2430   300.79298     -15253.02      -15093.804     -216.94135      129037.26      5.9024202    
      2440   300.16525     -15252.989     -15094.106     -297.71232      129078.41      5.9280723    
      2450   299.78329     -15253.094     -15094.412     -378.65674      129109.16      5.95104      
      2460   299.6894      -15253.345     -15094.713     -417.35728      129127.77      5.9707216    
      2470   299.15308     -15253.367     -15095.019     -435.15607      129133.53      5.9868807    
      2480   297.61221     -15252.85      -15095.317     -422.54186      129126.52      5.9995587    
      2490   295.60623     -15252.057     -15095.586     -377.19734      129107.67      6.0090625    
      2500   294.42238     -15251.654     -15095.811     -328.72473      129078.72      6.015893     
      2510   294.59743     -15251.912     -15095.976     -275.00821      129041.6       6.0205684    
      2520   295.19936     -15252.35      -15096.095     -228.60573      128998.13      6.0237168    
      2530   295.36458     -15252.493     -15096.151     -178.01705      128949.92      6.0260571    
      2540   295.18458     -15252.42      -15096.173     -117.18596      128898.66      6.0283915    
      2550   294.60805     -15252.072     -15096.13      -60.166468      128846.21      6.0314072    
      2560   294.51844     -15251.925     -15096.03      -10.476348      128794.24      6.0354749    
      2570   295.93809     -15252.525     -15095.879      14.42146       128744.12      6.0407121    
      2580   298.24193     -15253.535     -15095.67       24.54984       128696.51      6.0470137    
      2590   299.61938     -15254.045     -15095.45       53.829766      128651.64      6.0541967    
      2600   299.47147     -15253.732     -15095.216      89.527836      128610.15      6.06224      
      2610   299.21082     -15253.351     -15094.972      120.7128       128572.91      6.0712382    
      2620   300.12014     -15253.584     -15094.724      123.29433      128540.56      6.08125      
      2630   301.83814     -15254.244     -15094.475      116.3751       128513.04      6.0920457    
      2640   302.5726      -15254.403     -15094.246      119.48068      128489.94      6.103125     
      2650   301.24367     -15253.493     -15094.039      156.71828      128471.22      6.1140454    
      2660   299.15998     -15252.191     -15093.84       186.61245      128457.61      6.124746     
      2670   298.76509     -15251.78      -15093.638      209.82289      128449.85      6.1353904    
      2680   300.68263     -15252.591     -15093.433      201.90532      128448.29      6.146105     
      2690   303.10172     -15253.66      -15093.222      187.90382      128452.56      6.1567695    
      2700   304.24947     -15254.105     -15093.06       178.16551      128462.05      6.1672392    
      2710   303.73155     -15253.698     -15092.927      179.49601      128476.31      6.1774088    
      2720   301.93396     -15252.669     -15092.849      188.7489       128495.19      6.1872133    
      2730   299.33206     -15251.227     -15092.784      184.27366      128518.73      6.196716     
      2740   297.89785     -15250.407     -15092.724      132.78474      128546.52      6.206141     
      2750   299.21425     -15251.009     -15092.629      44.948824      128576.95      6.2156166    
      2760   301.53186     -15252.132     -15092.525     -49.685979      128607.5       6.2250461    
      2770   303.26748     -15252.945     -15092.42      -146.44249      128635.4       6.2340678    
      2780   304.17374     -15253.355     -15092.35      -226.75826      128658         6.242071     
      2790   303.33332     -15252.873     -15092.313     -288.57421      128673.2       6.2483047    
      2800   300.72768     -15251.489     -15092.308     -308.6018       128679.67      6.2520202    
      2810   298.53835     -15250.338     -15092.315     -317.71132      128677.06      6.2527953    
      2820   298.64481     -15250.394     -15092.315     -342.96825      128665.35      6.250527     
      2830   300.27501     -15251.241     -15092.3       -358.1102       128644.29      6.2454242    
      2840   301.85981     -15252.066     -15092.286     -340.06652      128613.9       6.2380299    
      2850   302.87374     -15252.619     -15092.302     -291.46669      128575.08      6.2290364    
      2860   303.07559     -15252.767     -15092.343     -212.60948      128529.6       6.2190566    
      2870   301.81861     -15252.171     -15092.412     -107.66005      128479.96      6.2085703    
      2880   300.03783     -15251.312     -15092.495      6.0751511      128429.29      6.1981173    
      2890   299.73119     -15251.25      -15092.596      88.378343      128380.75      6.1884154    
      2900   301.43545     -15252.247     -15092.691      113.30221      128336.56      6.1801728    
      2910   303.93515     -15253.679     -15092.8        114.27549      128297.37      6.1737458    
      2920   306.02095     -15254.938     -15092.954      100.64904      128262.93      6.1692929    
      2930   306.868       -15255.607     -15093.176      104.12161      128232.76      6.1669293    
      2940   306.08614     -15255.503     -15093.485      109.28372      128206.72      6.1667349    
      2950   304.03352     -15254.788     -15093.857      124.79124      128184.85      6.1687408    
      2960   301.68138     -15253.953     -15094.267      127.42398      128167.31      6.1729593    
      2970   299.6416      -15253.294     -15094.688      130.15522      128154.05      6.1792155    
      2980   298.04019     -15252.865     -15095.107      118.84954      128144.98      6.187136     
      2990   297.5711      -15253.002     -15095.492      95.743125      128139.61      6.1962193    
      3000   298.12532     -15253.647     -15095.844      62.043015      128137.12      6.2061065    
      3010   298.54718     -15254.199     -15096.172      22.16789       128136.45      6.2165825    
      3020   298.45938     -15254.453     -15096.473      1.3730327      128136.48      6.2273087    
      3030   297.98631     -15254.484     -15096.754     -17.105616      128136.56      6.2378525    
      3040   298.00396     -15254.754     -15097.014     -49.689846      128136.12      6.2477469    
      3050   299.179       -15255.614     -15097.253     -92.636162      128134.31      6.256538     
      3060   300.88749     -15256.746     -15097.48      -145.3686       128129.88      6.2637915    
      3070   301.72258     -15257.436     -15097.728     -183.74406      128121.43      6.2692016    
      3080   301.48937     -15257.571     -15097.987     -217.46314      128108.03      6.2726486    
      3090   301.82591     -15258.023     -15098.261     -259.80682      128088.85      6.2739817    
      3100   303.11687     -15259.012     -15098.566     -285.46982      128062.99      6.2729168    
      3110   303.6479      -15259.635     -15098.908     -301.93488      128029.94      6.2692386    
      3120   302.63085     -15259.477     -15099.288     -282.80484      127989.53      6.2628969    
      3130   300.99602     -15259.02      -15099.696     -224.45818      127942.56      6.2542697    
      3140   299.34282     -15258.563     -15100.115     -150.81689      127890.88      6.2441404    
      3150   297.86018     -15258.162     -15100.499     -72.529317      127836.76      6.2332864    
      3160   296.44914     -15257.762     -15100.845      8.6965351      127782.53      6.2222918    
      3170   295.54131     -15257.582     -15101.146      79.277292      127730.45      6.21158      
      3180   295.16129     -15257.632     -15101.397      138.925        127682.5       6.2014805    
      3190   295.28289     -15257.876     -15101.577      190.85396      127640.24      6.1922977    
      3200   295.02427     -15257.877     -15101.715      235.78797      127604.89      6.184441     
      3210   294.16495     -15257.508     -15101.8        287.40255      127577.52      6.1784436    
      3220   293.9306      -15257.396     -15101.812      319.17584      127559.19      6.174875     
      3230   295.21757     -15258.039     -15101.774      316.46878      127550.43      6.1740678    
      3240   296.73109     -15258.759     -15101.693      297.39026      127550.83      6.1759774    
      3250   297.02111     -15258.789     -15101.57       296.66854      127559.64      6.1802364    
      3260   296.23866     -15258.214     -15101.409      318.36636      127576.59      6.186428     
      3270   295.90452     -15257.836     -15101.208      304.77257      127601.79      6.1942898    
      3280   297.25116     -15258.302     -15100.961      272.28848      127634.62      6.2035675    
      3290   299.78028     -15259.35      -15100.67       220.61179      127673.91      6.2140386    
      3300   301.95894     -15260.19      -15100.357      161.8471       127717.97      6.2253873    
      3310   302.87938     -15260.369     -15100.049      100.13697      127764.94      6.2372215    
      3320   302.82239     -15260.057     -15099.767      44.67348       127813.03      6.2491905    
      3330   302.13546     -15259.416     -15099.49      -10.061699      127860.61      6.2609058    
      3340   301.48018     -15258.802     -15099.222     -65.138456      127906.1       6.2718958    
      3350   301.5529      -15258.566     -15098.948     -132.09555      127947.97      6.2817866    
      3360   302.55852     -15258.833     -15098.683     -207.56071      127984.45      6.2902654    
      3370   304.41139     -15259.556     -15098.425     -298.32859      128013.58      6.2969385    
      3380   305.90944     -15260.113     -15098.189     -368.62937      128033.16      6.3012677    
      3390   305.60492     -15259.767     -15098.004     -385.20025      128041.68      6.3028633    
      3400   304.54823     -15259.06      -15097.856     -370.62101      128039.02      6.3017965    
      3410   304.6143      -15258.989     -15097.751     -338.2884       128025.95      6.2986157    
      3420   304.96002     -15259.106     -15097.685     -306.78163      128003.74      6.2941678    
      3430   303.76311     -15258.468     -15097.68      -248.14871      127973.74      6.2892608    
      3440   301.63104     -15257.361     -15097.702     -171.90968      127937.9       6.2846342    
      3450   300.27686     -15256.698     -15097.756     -91.55243       127898.64      6.2808562    
      3460   299.70207     -15256.477     -15097.838     -34.283937      127858.25      6.278233     
      3470   298.97769     -15256.18      -15097.925      26.911745      127818.48      6.2768225    
      3480   298.09514     -15255.815     -15098.028      77.955447      127781.01      6.2766771    
      3490   297.57739     -15255.639     -15098.125      126.21803      127747.24      6.2780248    
      3500   297.46577     -15255.671     -15098.216      144.11798      127718.26      6.281292     
      3510   297.59412     -15255.812     -15098.29       152.78219      127694.46      6.286886     
      3520   298.10611     -15256.166     -15098.372      154.11286      127675.91      6.294992     
      3530   298.82754     -15256.603     -15098.427      125.2118       127662.33      6.3053731    
      3540   299.46532     -15256.99      -15098.477      105.56885      127652.79      6.3173391    
      3550   299.67953     -15257.163     -15098.537      90.41876       127646.55      6.3301152    
      3560   299.79486     -15257.279     -15098.592      68.115742      127643.08      6.3430228    
      3570   300.91475     -15257.941     -15098.661      46.451528      127641.67      6.3554562    
      3580   302.26544     -15258.733     -15098.738      19.201413      127641.56      6.366849     
      3590   302.42511     -15258.922     -15098.842      2.5727739      127642.01      6.3766828    
      3600   301.372       -15258.51      -15098.987     -0.16235173     127642.54      6.3846506    
      3610   299.85298     -15257.878     -15099.16       1.5341654      127643.04      6.3907478    
      3620   298.72042     -15257.443     -15099.325     -4.6721414      127643.55      6.3951648    
      3630   298.74038     -15257.623     -15099.494     -21.38406       127643.91      6.3981515    
      3640   300.24769     -15258.596     -15099.669     -50.308287      127643.63      6.3999734    
      3650   301.79541     -15259.604     -15099.857     -79.549222      127641.91      6.4007792    
      3660   301.72161     -15259.773     -15100.066     -91.133645      127638.02      6.4006338    
      3670   300.13459     -15259.181     -15100.313     -85.824111      127631.69      6.3996212    
      3680   298.16963     -15258.398     -15100.571     -79.604642      127623.13      6.3978661    
      3690   296.58827     -15257.808     -15100.817     -74.448974      127612.6       6.3954147    
      3700   295.63472     -15257.526     -15101.041     -82.203496      127600.29      6.392212     
      3710   295.25097     -15257.51      -15101.227     -98.99488       127586.05      6.3881469    
      3720   295.12266     -15257.589     -15101.374     -116.65507      127569.45      6.3831642    
      3730   294.84608     -15257.543     -15101.475     -124.58782      127550.15      6.3773454    
      3740   294.61802     -15257.469     -15101.521     -132.04605      127527.97      6.3709109    
      3750   294.60455     -15257.453     -15101.513     -130.77287      127502.81      6.3640069    
      3760   294.32908     -15257.238     -15101.444     -128.80097      127474.77      6.3566732    
      3770   293.26798     -15256.543     -15101.31      -112.19893      127444.07      6.3488906    
      3780   291.77699     -15255.543     -15101.099     -104.66204      127411.17      6.340669     
      3790   291.45383     -15255.044     -15100.772     -81.685954      127376.49      6.3319288    
      3800   292.89488     -15255.379     -15100.344     -82.382357      127340.64      6.322619     
      3810   294.78758     -15255.86      -15099.823     -75.380376      127303.7       6.312608     
      3820   296.37964     -15256.104     -15099.225     -54.943814      127265.9       6.3018422    
      3830   298.22532     -15256.457     -15098.6       -31.488458      127227.85      6.2904566    
      3840   300.10209     -15256.82      -15097.97      -8.0847719      127190.24      6.2787657    
      3850   301.20664     -15256.85      -15097.415      25.529394      127153.67      6.2671847    
      3860   302.10226     -15256.827     -15096.918      54.285469      127118.99      6.2562826    
      3870   303.58558     -15257.193     -15096.499      82.948464      127087.02      6.2467007    
      3880   305.34088     -15257.797     -15096.174      108.21592      127058.41      6.2389173    
      3890   306.76531     -15258.316     -15095.939      142.05031      127033.74      6.2332499    
      3900   307.11314     -15258.365     -15095.804      202.09915      127013.9       6.2299172    
      3910   306.13069     -15257.793     -15095.752      266.59314      127000.34      6.2290569    
      3920   305.04186     -15257.237     -15095.772      326.2868       126994.67      6.2306903    
      3930   303.69155     -15256.604     -15095.853      365.82937      126998.24      6.2348128    
      3940   301.57798     -15255.584     -15095.953      395.73102      127011.91      6.2414569    
      3950   299.63573     -15254.674     -15096.071      418.84869      127036.25      6.2507915    
      3960   298.58133     -15254.23      -15096.185      404.19695      127071.5       6.2631101    
      3970   298.10465     -15254.077     -15096.284      356.92975      127116.92      6.2785613    
      3980   297.82536     -15254.004     -15096.359      290.60638      127170.94      6.2970085    
      3990   297.53357     -15253.896     -15096.405      213.66958      127231.46      6.3179345    
      4000   297.59048     -15253.947     -15096.427      125.82268      127296.12      6.340422     
      4010   298.87502     -15254.622     -15096.421      22.701485      127362.32      6.3633788    
      4020   301.31568     -15255.891     -15096.398     -86.883692      127427.16      6.3858089    
      4030   303.77104     -15257.174     -15096.382     -216.80119      127487.47      6.4069158    
      4040   304.82796     -15257.76      -15096.408     -303.29074      127539.92      6.4260307    
      4050   303.81086     -15257.29      -15096.477     -363.75489      127582.16      6.4428164    
      4060   301.25048     -15256.052     -15096.594     -386.52739      127612.88      6.4571414    
      4070   298.60105     -15254.794     -15096.738     -391.0775       127631.72      6.4690081    
      4080   296.98506     -15254.081     -15096.881     -392.39457      127638.88      6.4784768    
      4090   297.07256     -15254.254     -15097.007     -388.87466      127634.68      6.4855884    
      4100   298.63287     -15255.189     -15097.117     -405.52278      127619.5       6.4903937    
      4110   300.87532     -15256.496     -15097.237     -428.95361      127593.25      6.4928582    
      4120   302.35925     -15257.43      -15097.385     -423.09421      127555.66      6.4929061    
      4130   302.23245     -15257.558     -15097.58      -367.88524      127507.31      6.4904861    
      4140   301.36104     -15257.347     -15097.83      -282.89788      127450.04      6.4856505    
      4150   300.70912     -15257.308     -15098.136     -181.40031      127386.54      6.4786309    
      4160   300.31482     -15257.474     -15098.511     -69.831725      127319.87      6.4700048    
      4170   299.91197     -15257.695     -15098.946      35.474038      127253.28      6.4606354    
      4180   299.35399     -15257.888     -15099.434      142.20717      127189.71      6.4512421    
      4190   298.13465     -15257.79      -15099.981      253.44346      127132.05      6.4423526    
      4200   296.87635     -15257.693     -15100.551      360.48901      127083.32      6.4344476    
      4210   296.6074      -15258.125     -15101.125      441.02891      127046.16      6.4280824    
      4220   296.32893     -15258.529     -15101.676      483.05769      127022.4       6.4239263    
      4230   295.49415     -15258.594     -15102.183      530.20813      127012.95      6.4226465    
      4240   295.47442     -15259.027     -15102.627      537.07902      127018.5       6.4248823    
      4250   297.24623     -15260.364     -15103.026      499.58675      127038.85      6.4308744    
      4260   299.4021      -15261.848     -15103.368      432.39278      127072.57      6.440421     
      4270   300.0296      -15262.513     -15103.701      365.26855      127117.47      6.45307      
      4280   299.00458     -15262.27      -15104          318.53997      127171.39      6.4682488    
      4290   297.72604     -15261.872     -15104.28       256.35616      127232.67      6.4853079    
      4300   297.13355     -15261.795     -15104.516      156.53301      127299.35      6.5035116    
      4310   297.17684     -15262.003     -15104.701      36.698018      127368.5       6.522045     
      4320   297.22978     -15262.182     -15104.852     -83.068685      127436.66      6.5401509    
      4330   296.60012     -15261.948     -15104.952     -175.60148      127500.55      6.5571719    
      4340   295.30209     -15261.327     -15105.018     -229.74556      127557.71      6.5726295    
      4350   293.45042     -15260.357     -15105.028     -244.44816      127606.79      6.586154     
      4360   290.91415     -15258.956     -15104.969     -229.45372      127647.56      6.5974882    
      4370   288.41689     -15257.492     -15104.827     -193.69924      127680.67      6.6065005    
      4380   287.3328      -15256.663     -15104.572     -159.34016      127707.31      6.6131254    
      4390   288.68611     -15257.002     -15104.195     -133.0448       127728.65      6.6173498    
      4400   292.33723     -15258.469     -15103.729     -139.97788      127745.48      6.6192585    
      4410   296.7476      -15260.268     -15103.193     -165.96593      127757.77      6.6189346    
      4420   300.26816     -15261.606     -15102.668     -173.75631      127765.01      6.616536     
      4430   302.18108     -15262.155     -15102.205     -156.57382      127767.11      6.6123934    
      4440   302.66565     -15262.038     -15101.831     -126.02904      127764.68      6.6069933    
      4450   302.47837     -15261.655     -15101.547     -110.61028      127758.66      6.6008642    
      4460   302.41935     -15261.41      -15101.333     -104.0556       127749.65      6.5944263    
      4470   301.82218     -15260.95      -15101.19      -93.134253      127737.96      6.5880149    
      4480   300.29534     -15260.039     -15101.087     -78.27338       127723.95      6.5818588    
      4490   299.15372     -15259.35      -15101.001     -69.797009      127708.08      6.5760346    
      4500   299.41934     -15259.407     -15100.918     -62.947023      127690.61      6.5705255    
      4510   300.6395      -15259.982     -15100.848     -72.324323      127671.73      6.5653505    
      4520   301.957       -15260.624     -15100.792     -90.395692      127651.23      6.560555     
      4530   302.81278     -15261.046     -15100.761     -84.458368      127628.75      6.5561631    
      4540   302.85885     -15261.061     -15100.751     -75.509603      127604.46      6.5523681    
      4550   301.74104     -15260.507     -15100.789     -45.374903      127578.78      6.5493928    
      4560   300.03123     -15259.646     -15100.834     -26.358104      127552.44      6.5474854    
      4570   298.34589     -15258.793     -15100.872     -20.666103      127526.01      6.5467469    
      4580   297.25556     -15258.244     -15100.901     -17.915456      127499.66      6.5471234    
      4590   296.99975     -15258.109     -15100.901     -16.890669      127473.51      6.5485226    
      4600   297.39901     -15258.288     -15100.869     -5.9198387      127447.61      6.5508417    
      4610   297.93326     -15258.514     -15100.812      11.385273      127422.23      6.554002     
      4620   298.21174     -15258.583     -15100.733      37.458134      127397.88      6.5579732    
      4630   298.15143     -15258.443     -15100.626      81.718375      127375.27      6.5626922    
      4640   298.1419      -15258.312     -15100.5        134.10987      127355.54      6.5682041    
      4650   298.39729     -15258.301     -15100.353      181.24153      127340.06      6.5746989    
      4660   298.66699     -15258.266     -15100.175      224.42107      127330.1       6.582463     
      4670   298.41573     -15257.937     -15099.979      266.05521      127326.74      6.5918174    
      4680   298.02372     -15257.497     -15099.747      303.62343      127330.99      6.6030946    
      4690   298.9838      -15257.747     -15099.489      322.65679      127343.66      6.6164812    
      4700   301.47055     -15258.778     -15099.204      297.95104      127364.96      6.631732     
      4710   304.27506     -15259.961     -15098.902      263.79718      127394.1       6.6481958    
      4720   306.10904     -15260.665     -15098.635      237.80921      127429.94      6.6651905    
      4730   306.13593     -15260.454     -15098.41       226.35302      127471.55      6.6822213    
      4740   305.21098     -15259.789     -15098.235      229.63463      127518.47      6.699034     
      4750   304.27777     -15259.16      -15098.1        230.15073      127570.61      6.7156802    
      4760   303.1985      -15258.495     -15098.006      215.61336      127627.81      6.7324008    
      4770   302.34259     -15257.973     -15097.937      175.34683      127689.54      6.7492996    
      4780   302.40078     -15257.945     -15097.878      82.21329       127754.44      6.7661433    
      4790   302.2334      -15257.806     -15097.827     -29.543225      127819.88      6.7822346    
      4800   300.40246     -15256.81      -15097.8       -136.36949      127882.69      6.7966985    
      4810   297.41376     -15255.178     -15097.751     -216.1852       127939.94      6.8086808    
      4820   295.64449     -15254.17      -15097.679     -278.08988      127989.54      6.8175873    
      4830   296.29651     -15254.377     -15097.541     -354.8612       128029.83      6.8231957    
      4840   298.28712     -15255.22      -15097.33      -399.42449      128059.03      6.8254914    
      4850   299.97272     -15255.857     -15097.076     -423.45788      128076.04      6.8246786    
      4860   300.45034     -15255.8       -15096.765     -398.94817      128080.58      6.8210636    
      4870   299.93069     -15255.177     -15096.417     -335.48539      128073.67      6.8151468    
      4880   299.03896     -15254.323     -15096.036     -251.71751      128057.38      6.8076218    
      4890   298.55384     -15253.629     -15095.598     -165.95055      128034.3       6.7990797    
      4900   298.79007     -15253.272     -15095.117     -80.869056      128007.06      6.789917     
      4910   299.67079     -15253.223     -15094.601     -5.7863856      127978.15      6.7806045    
      4920   301.00838     -15253.396     -15094.067      63.347506      127949.79      6.7717887    
      4930   302.46108     -15253.646     -15093.547      125.70369      127923.92      6.7642629    
      4940   303.4116      -15253.664     -15093.062      173.94827      127902.26      6.7587472    
      4950   304.62221     -15253.878     -15092.635      197.75475      127886.05      6.7555366    
      4960   306.53225     -15254.535     -15092.281      204.75091      127875.85      6.7544906    
      4970   307.82099     -15254.939     -15092.004      205.44056      127871.69      6.7554061    
      4980   307.77337     -15254.733     -15091.823      205.91137      127873.45      6.7582072    
      4990   306.8553      -15254.155     -15091.731      216.27553      127881.06      6.7628308    
      5000   306.05898     -15253.73      -15091.727      222.6584       127894.64      6.7693056    
      5010   305.5793      -15253.529     -15091.78       202.83922      127914.2       6.7777156    
      5020   304.56435     -15253.119     -15091.907      173.20343      127939.1       6.788076     
      5030   302.5927      -15252.232     -15092.064      139.91559      127968.37      6.8001687    
      5040   300.32354     -15251.225     -15092.257      121.06867      128001.06      6.8135342    
      5050   298.56948     -15250.502     -15092.463      103.74275      128036.47      6.8276453    
      5060   297.63139     -15250.18      -15092.637      72.63005       128074         6.8420857    
      5070   297.68936     -15250.379     -15092.806      38.571135      128112.78      6.8564724    
      5080   298.84993     -15251.148     -15092.961     -7.0510914      128151.77      6.870458     
      5090   299.96479     -15251.875     -15093.098     -60.872685      128189.69      6.8837293    
      5100   300.23554     -15252.16      -15093.239     -105.97462      128225.01      6.8959398    
      5110   299.81451     -15252.092     -15093.394     -128.99069      128256.54      6.9068484    
      5120   298.99964     -15251.825     -15093.559     -152.93351      128283.67      6.9164239    
      5130   298.20624     -15251.576     -15093.73      -170.6414       128305.81      6.9246859    
      5140   297.33695     -15251.285     -15093.899     -175.69492      128322.54      6.9316498    
      5150   295.91955     -15250.683     -15094.046     -168.77565      128333.87      6.9373767    
      5160   294.86916     -15250.255     -15094.175     -165.24411      128340.06      6.9419272    
      5170   295.16301     -15250.502     -15094.266     -177.61675      128341.26      6.9453256    
      5180   296.17319     -15251.088     -15094.317     -181.75775      128337.36      6.9475241    
      5190   296.59639     -15251.331     -15094.337     -177.14642      128328.32      6.9484893    
      5200   296.65915     -15251.345     -15094.317     -142.57136      128314.44      6.9482586    
      5210   297.71274     -15251.838     -15094.252     -113.64622      128296.66      6.9471265    
      5220   299.94189     -15252.922     -15094.157     -80.755727      128276         6.9455337    
      5230   302.34322     -15254.062     -15094.025     -45.602606      128253.43      6.9438435    
      5240   303.84655     -15254.74      -15093.908      12.016298      128230.07      6.9422636    
      5250   303.87906     -15254.646     -15093.797      86.429258      128207.6       6.940917     
      5260   303.01308     -15254.1       -15093.709      151.22362      128188.03      6.9399934    
      5270   302.40055     -15253.715     -15093.648      185.86809      128173.1       6.9397697    
      5280   302.40676     -15253.675     -15093.605      204.36551      128163.78      6.9403761    
      5290   303.31776     -15254.145     -15093.592      204.36669      128160.49      6.9417556    
      5300   305.28145     -15255.206     -15093.614      188.17885      128163.08      6.9438286    
      5310   306.97404     -15256.183     -15093.695      176.30789      128170.98      6.946752     
      5320   307.475       -15256.617     -15093.864      161.33238      128183.69      6.950786     
      5330   306.98847     -15256.629     -15094.134      159.45015      128200.81      6.9560283    
      5340   306.00602     -15256.48      -15094.505      167.16307      128222.22      6.9625716    
      5350   304.68468     -15256.242     -15094.966      150.18587      128247.92      6.9705191    
      5360   302.86152     -15255.809     -15095.498      111.89318      128277.39      6.979803     
      5370   301.06331     -15255.411     -15096.052      72.758415      128309.57      6.9901234    
      5380   299.93739     -15255.367     -15096.604      0.4463743      128343.16      7.0010833    
      5390   299.5256      -15255.687     -15097.142     -91.585295      128376.13      7.0120232    
      5400   299.27559     -15256.053     -15097.64      -186.23892      128405.85      7.0219226    
      5410   298.38123     -15256.021     -15098.082     -269.53837      128429.69      7.0297085    
      5420   296.72087     -15255.551     -15098.49      -327.75061      128445.36      7.034571     
      5430   295.38467     -15255.178     -15098.825     -367.79817      128451.3       7.0361025    
      5440   295.18533     -15255.342     -15099.094     -402.8269       128446.5       7.0341804    
      5450   295.75664     -15255.846     -15099.296     -419.04424      128430.19      7.028759     
      5460   296.40816     -15256.342     -15099.447     -407.20868      128402.06      7.0198545    
      5470   296.43496     -15256.475     -15099.566     -342.42542      128362.69      7.007644     
      5480   294.95785     -15255.763     -15099.636     -226.28606      128314.19      6.9926389    
      5490   292.43264     -15254.439     -15099.649     -93.759795      128259.94      6.97569      
      5500   290.55856     -15253.385     -15099.586      59.531442      128203.95      6.9579307    
      5510   290.21306     -15253.039     -15099.423      171.83565      128150.45      6.940655     
      5520   290.88397     -15253.125     -15099.154      269.53143      128102.76      6.924826     
      5530   292.20643     -15253.456     -15098.785      336.30981      128063.53      6.9109906    
      5540   294.07099     -15253.999     -15098.341      366.34929      128034.54      6.8993665    
      5550   296.35005     -15254.698     -15097.834      357.59058      128016.48      6.8898893    
      5560   298.15954     -15255.135     -15097.313      323.82967      128008.89      6.8823154    
      5570   298.53521     -15254.826     -15096.805      290.03002      128010.7       6.8763086    
      5580   297.35037     -15253.713     -15096.319      267.05978      128020.81      6.8716311    
      5590   296.11336     -15252.594     -15095.855      240.77635      128038.43      6.8683503    
      5600   296.57052     -15252.397     -15095.417      203.19113      128062.72      6.8667316    
      5610   298.09339     -15252.796     -15095.009      158.02358      128092.46      6.8669969    
      5620   299.31725     -15253.065     -15094.631      114.64293      128126.26      6.8692454    
      5630   299.99317     -15253.094     -15094.301      82.577584      128162.85      6.8735923    
      5640   300.08392     -15252.858     -15094.018      56.713939      128201.25      6.8801266    
      5650   299.13357     -15252.115     -15093.778      48.997635      128240.74      6.8888103    
      5660   297.67285     -15251.127     -15093.563      58.575719      128281.11      6.8995793    
      5670   297.36098     -15250.757     -15093.358      66.450694      128322.59      6.9123955    
      5680   298.3703      -15251.076     -15093.143      54.38196       128365.35      6.9272243    
      5690   299.52344     -15251.482     -15092.939      20.537954      128409.02      6.9439263    
      5700   300.32051     -15251.705     -15092.739     -10.381509      128452.7       6.9621515    
      5710   300.46565     -15251.612     -15092.57      -43.279812      128495.46      6.9813785    
      5720   300.37711     -15251.404     -15092.409     -86.896566      128536.29      7.0009796    
      5730   300.62647     -15251.393     -15092.265     -119.87283      128574.05      7.0203501    
      5740   300.52472     -15251.211     -15092.137     -154.99047      128607.76      7.0391307    
      5750   300.06761     -15250.843     -15092.011     -199.01693      128636.4       7.0571459    
      5760   299.93282     -15250.652     -15091.892     -230.80193      128658.87      7.0742588    
      5770   299.8616      -15250.503     -15091.78      -259.63842      128674.28      7.0902568    
      5780   299.80047     -15250.357     -15091.667     -287.31031      128681.93      7.1047641    
      5790   301.12969     -15250.941     -15091.547     -319.14281      128681.08      7.1173178    
      5800   304.53043     -15252.633     -15091.439     -373.73895      128670.89      7.1275261    
      5810   307.9822      -15254.407     -15091.386     -429.0472       128649.97      7.1350178    
      5820   309.39942     -15255.179     -15091.407     -448.17604      128617.05      7.1394513    
      5830   308.83917     -15255.016     -15091.541     -419.0035       128571.83      7.1406394    
      5840   306.98921     -15254.267     -15091.771     -340.50167      128515.43      7.1385891    
      5850   304.89359     -15253.469     -15092.082     -229.60973      128450.26      7.1334348    
      5860   303.54411     -15253.136     -15092.464     -91.53422       128379.71      7.1253947    
      5870   303.22162     -15253.4       -15092.899      55.980011      128307.86      7.1148926    
      5880   303.81109     -15254.179     -15093.365      202.27245      128239.02      7.1025774    
      5890   304.93585     -15255.312     -15093.904      352.87735      128177.39      7.0893025    
      5900   305.01157     -15255.932     -15094.483      485.21414      128127.06      7.0760659    
      5910   302.67138     -15255.305     -15095.095      620.7105       128091.69      7.0638825    
      5920   299.13084     -15254.03      -15095.694      726.76581      128074.75      7.0537454    
      5930   296.05315     -15252.922     -15096.215      775.15379      128078.84      7.046419     
      5940   294.30214     -15252.418     -15096.638      766.4235       128104.99      7.0421945    
      5950   294.16966     -15252.668     -15096.958      691.02232      128152.5       7.0409122    
      5960   294.75626     -15253.187     -15097.166      568.54571      128218.85      7.0421115    
      5970   294.71088     -15253.295     -15097.298      425.87994      128300.25      7.0452355    
      5980   294.25466     -15253.104     -15097.35       277.94431      128392.27      7.04984      
      5990   294.3176      -15253.117     -15097.329      112.45677      128490.3       7.0555949    
      6000   294.96931     -15253.38      -15097.247     -48.775015      128589.39      7.0620832    
      6010   295.78302     -15253.674     -15097.11      -177.65719      128684.84      7.0688039    
      6020   296.11707     -15253.674     -15096.933     -298.40618      128772.82      7.0753086    
      6030   295.72026     -15253.271     -15096.74      -366.4002       128850.09      7.0811478    
      6040   295.73275     -15253.043     -15096.506     -421.22972      128914.77      7.0860525    
      6050   297.25226     -15253.604     -15096.263     -472.9557       128965.56      7.0897509    
      6060   299.47971     -15254.521     -15096.001     -514.97881      129001.3       7.0919818    
      6070   301.66995     -15255.443     -15095.763     -537.58959      129021.19      7.0925918    
      6080   303.61156     -15256.267     -15095.559     -543.84628      129024.94      7.0914925    
      6090   304.58088     -15256.638     -15095.417     -517.18016      129012.84      7.0887094    
      6100   304.42943     -15256.469     -15095.328     -452.30814      128986.09      7.0844787    
      6110   304.07414     -15256.248     -15095.295     -376.90842      128946.86      7.0792964    
      6120   303.67779     -15256.048     -15095.305     -277.59701      128897.76      7.0737319    
      6130   302.12623     -15255.272     -15095.351     -160.09226      128841.89      7.0683922    
      6140   299.20899     -15253.79      -15095.413     -31.952809      128782.83      7.0638574    
      6150   296.34201     -15252.317     -15095.458      82.626934      128724.36      7.0605152    
      6160   295.02542     -15251.633     -15095.47       150.36945      128669.66      7.0584021    
      6170   295.50165     -15251.84      -15095.425      177.55369      128620.64      7.0572412    
      6180   296.63315     -15252.344     -15095.33       189.95715      128577.97      7.0566586    
      6190   297.40242     -15252.61      -15095.189      202.29789      128541.88      7.0564665    
      6200   298.2637      -15252.887     -15095.01       212.4348       128512.54      7.0567437    
      6210   299.10662     -15253.12      -15094.797      231.23706      128490.13      7.0577168    
      6220   298.7115      -15252.682     -15094.568      258.20808      128474.95      7.0597532    
      6230   296.57744     -15251.276     -15094.292      298.11761      128467.57      7.0632837    
      6240   294.27325     -15249.731     -15093.967      355.02582      128468.99      7.068791     
      6250   293.98754     -15249.168     -15093.554      394.26153      128480.56      7.0768493    
      6260   296.39486     -15249.918     -15093.03       394.34579      128503.1       7.0879224    
      6270   300.36573     -15251.422     -15092.432      363.21998      128536.3       7.1021927    
      6280   304.15405     -15252.799     -15091.804      326.45463      128579.15      7.1195222    
      6290   306.81537     -15253.611     -15091.208      289.86404      128630.35      7.139494     
      6300   308.03958     -15253.746     -15090.694      253.1057       128688.63      7.1615322    
      6310   307.97749     -15253.316     -15090.298      199.58088      128752.75      7.1849849    
      6320   307.32744     -15252.683     -15090.008      132.33182      128821.02      7.2091444    
      6330   306.85758     -15252.236     -15089.81       44.755376      128891.35      7.2332511    
      6340   306.75133     -15252.078     -15089.708     -54.758554      128961.16      7.2564822    
      6350   306.69849     -15252.012     -15089.67      -133.67291      129027.69      7.2780193    
      6360   306.36619     -15251.868     -15089.702     -189.36165      129088.68      7.2972344    
      6370   305.76614     -15251.646     -15089.798     -229.40167      129142.64      7.3138593    
      6380   304.98392     -15251.38      -15089.946     -251.63304      129188.56      7.3278967    
      6390   303.90696     -15250.992     -15090.128     -249.58926      129226.05      7.3394694    
      6400   302.66519     -15250.554     -15090.347     -239.43594      129255.33      7.3486253    
      6410   301.59408     -15250.195     -15090.555     -229.39227      129276.88      7.3553896    
      6420   300.30629     -15249.715     -15090.757     -206.73857      129291.19      7.3599954    
      6430   298.51384     -15248.948     -15090.939     -182.99731      129299.07      7.362958     
      6440   297.20498     -15248.404     -15091.088     -156.28659      129301.41      7.3646978    
      6450   297.29683     -15248.553     -15091.187     -144.82043      129299.07      7.3654406    
      6460   298.33704     -15249.164     -15091.248     -150.11166      129292.47      7.3652004    
      6470   299.90806     -15250.028     -15091.281     -163.08045      129281.6       7.3639993    
      6480   301.30913     -15250.807     -15091.318     -181.15434      129266.2       7.3619714    
      6490   301.71963     -15251.063     -15091.357     -182.92073      129245.91      7.3592617    
      6500   300.93139     -15250.694     -15091.405     -171.5505       129220.75      7.3559393    
      6510   299.52162     -15249.999     -15091.456     -145.18091      129191.22      7.3521127    
      6520   298.80094     -15249.664     -15091.503     -122.25637      129158.1       7.3480104    
      6530   299.24554     -15249.926     -15091.529     -103.13526      129122.13      7.3438965    
      6540   299.65222     -15250.154     -15091.542     -77.587712      129083.94      7.3399178    
      6550   299.17904     -15249.913     -15091.552     -27.397858      129044.38      7.3361068    
      6560   298.27973     -15249.441     -15091.556      50.775696      129004.97      7.3326408    
      6570   297.96263     -15249.256     -15091.538      117.03375      128967.87      7.3298395    
      6580   298.87025     -15249.703     -15091.505      163.58919      128934.91      7.327889     
      6590   300.03147     -15250.266     -15091.453      200.29966      128907.38      7.3268761    
      6600   299.6587      -15250.026     -15091.411      238.62686      128886.21      7.3269442    
      6610   297.63423     -15248.906     -15091.362      293.54101      128872.47      7.328345     
      6620   295.88206     -15247.911     -15091.295      328.01642      128867.49      7.3313094    
      6630   295.92474     -15247.822     -15091.183      332.86229      128872.07      7.3358671    
      6640   298.01431     -15248.788     -15091.043      300.80856      128886.13      7.3418978    
      6650   301.05002     -15250.236     -15090.884      240.63033      128908.55      7.3491979    
      6660   303.48168     -15251.369     -15090.73       180.5587       128937.52      7.3575789    
      6670   304.56034     -15251.822     -15090.612      133.70163      128971.2       7.3669438    
      6680   304.85392     -15251.912     -15090.547      102.11493      129008.14      7.3772703    
      6690   304.92979     -15251.932     -15090.526      65.907113      129047.3       7.3885135    
      6700   304.23024     -15251.599     -15090.563      38.611204      129087.65      7.4003804    
      6710   302.41986     -15250.724     -15090.647      24.602698      129128.35      7.4123878    
      6720   300.49201     -15249.82      -15090.764      7.4830513      129168.98      7.4240065    
      6730   299.71602     -15249.541     -15090.895     -29.548793      129208.96      7.4347831    
      6740   299.92892     -15249.783     -15091.025     -94.653042      129247.2       7.4443956    
      6750   299.64736     -15249.775     -15091.166     -151.92515      129281.97      7.452685     
      6760   298.72967     -15249.456     -15091.332     -213.11587      129311.57      7.4596705    
      6770   298.4716      -15249.49      -15091.503     -285.72327      129334.3       7.4653131    
      6780   298.60095     -15249.751     -15091.695     -349.26741      129348.26      7.4693695    
      6790   298.45753     -15249.896     -15091.917     -394.36127      129351.76      7.4714123    
      6800   298.41734     -15250.124     -15092.166     -413.021        129343.69      7.4710126    
      6810   298.18514     -15250.302     -15092.466     -402.07516      129323.72      7.4680879    
      6820   296.99881     -15250.024     -15092.817     -353.87094      129292.38      7.4629934    
      6830   294.55777     -15249.127     -15093.212     -276.10683      129251.27      7.4563096    
      6840   291.19652     -15247.752     -15093.616     -168.005        129202.86      7.4486394    
      6850   288.13777     -15246.492     -15093.975     -68.261917      129150.29      7.4405632    
      6860   287.18475     -15246.262     -15094.249      16.779834      129096.61      7.4326065    
      6870   288.61287     -15247.197     -15094.429      64.907308      129044.25      7.4252653    
      6880   290.92191     -15248.5       -15094.509      96.53764       128994.62      7.4190212    
      6890   292.18547     -15249.148     -15094.489      125.05213      128948.63      7.4142594    
      6900   292.17528     -15249.045     -15094.391      162.62796      128907.08      7.4111319    
      6910   292.11321     -15248.811     -15094.189      201.25207      128870.98      7.409582     
      6920   292.66818     -15248.799     -15093.884      214.17766      128841.27      7.4093704    
      6930   294.10393     -15249.15      -15093.475      203.72696      128818.2       7.4100729    
      6940   296.00648     -15249.664     -15092.982      194.18556      128801.43      7.4112875    
      6950   297.09366     -15249.687     -15092.429      178.92233      128790.53      7.4128259    
      6960   297.24286     -15249.184     -15091.847      176.69739      128785.02      7.4144838    
      6970   297.76621     -15248.861     -15091.248      170.87048      128784.72      7.4161261    
      6980   299.27115     -15249.07      -15090.66       150.61664      128789.28      7.4178202    
      6990   300.79151     -15249.331     -15090.116      141.38864      128798.18      7.4198705    
      7000   301.35874     -15249.139     -15089.623      157.29617      128811.12      7.4228567    
      7010   301.32277     -15248.701     -15089.205      179.05418      128828.41      7.4275115    
      7020   301.53001     -15248.448     -15088.842      202.00249      128850.66      7.4344641    
      7030   302.21127     -15248.501     -15088.534      197.72814      128878.43      7.4440432    
      7040   302.98903     -15248.667     -15088.289      180.687        128911.6       7.456165     
      7050   303.11232     -15248.534     -15088.091      169.07716      128949.65      7.470514     
      7060   302.48349     -15248.049     -15087.938      167.55807      128992.22      7.4868448    
      7070   301.98194     -15247.674     -15087.829      148.02013      129039.06      7.5050416    
      7080   301.64954     -15247.418     -15087.749      112.22775      129089.57      7.5248773    
      7090   300.72245     -15246.866     -15087.688      78.567479      129142.7       7.5459374    
      7100   299.19042     -15246.002     -15087.634      54.342587      129197.5       7.5677238    
      7110   298.23418     -15245.432     -15087.57      -0.74156906     129253.09      7.5897488    
      7120   298.31067     -15245.393     -15087.491     -63.634248      129307.9       7.6114021    
      7130   298.75058     -15245.525     -15087.391     -128.09768      129360.05      7.6321195    
      7140   299.29792     -15245.683     -15087.258     -185.37885      129407.72      7.651388     
      7150   300.51553     -15246.187     -15087.118     -246.29014      129449.19      7.668764     
      7160   301.69875     -15246.678     -15086.982     -287.95188      129482.84      7.6839448    
      7170   301.14602     -15246.265     -15086.862     -283.26735      129507.64      7.6968437    
      7180   298.8892      -15244.955     -15086.747     -238.99437      129523.81      7.7076528    
      7190   296.60166     -15243.612     -15086.615     -185.80009      129532.68      7.7167897    
      7200   295.7421      -15242.992     -15086.45      -137.90199      129535.91      7.7247339    
      7210   296.76151     -15243.307     -15086.225     -102.94915      129534.99      7.7319331    
      7220   299.47025     -15244.465     -15085.949     -94.728556      129530.94      7.7386606    
      7230   302.89334     -15245.966     -15085.638     -86.971338      129524.17      7.7449009    
      7240   305.6607      -15247.139     -15085.346     -77.476256      129514.92      7.7503721    
      7250   306.99404     -15247.57      -15085.072     -54.947539      129503.51      7.7546407    
      7260   307.11855     -15247.42      -15084.856     -14.44479       129490.64      7.7574493    
      7270   307.04612     -15247.23      -15084.705      36.149276      129477.53      7.7588526    
      7280   307.43555     -15247.336     -15084.604      77.894153      129465.62      7.759124     
      7290   308.19637     -15247.714     -15084.579      104.49767      129456.06      7.7586445    
      7300   308.56471     -15247.977     -15084.647      135.89205      129449.67      7.7579461    
      7310   308.02721     -15247.855     -15084.81       148.53027      129447.27      7.7577576    
      7320   306.6514      -15247.427     -15085.11       152.6475       129449.22      7.7585736    
      7330   304.90391     -15246.929     -15085.537      130.65036      129455.52      7.7605122    
      7340   303.87908     -15246.94      -15086.091      97.849654      129465.54      7.7633553    
      7350   303.9585      -15247.651     -15086.76       42.653386      129478.28      7.7667437    
      7360   304.06604     -15248.477     -15087.528     -26.08665       129492.09      7.7701364    
      7370   303.29512     -15248.888     -15088.347     -78.743051      129505         7.772924     
      7380   301.69493     -15248.846     -15089.152     -108.08444      129515.49      7.7746925    
      7390   300.01297     -15248.676     -15089.873     -123.66429      129522.7       7.7752842    
      7400   298.82068     -15248.654     -15090.482     -141.47773      129526.17      7.7747171    
      7410   298.17729     -15248.802     -15090.97      -140.56863      129525.5       7.7730335    
      7420   297.66999     -15248.916     -15091.353     -135.55533      129520.65      7.7702217    
      7430   297.26618     -15248.993     -15091.644     -106.75539      129511.9       7.7661628    
      7440   297.36568     -15249.263     -15091.861     -70.568492      129500.09      7.7608193    
      7450   297.79898     -15249.666     -15092.035     -33.046188      129486.28      7.7544172    
      7460   298.0161      -15249.896     -15092.151     -0.80845264     129471.57      7.7474314    
      7470   297.77507     -15249.872     -15092.254      33.763912      129456.95      7.7403688    
      7480   297.58904     -15249.834     -15092.314      47.249857      129443.37      7.7336165    
      7490   298.30759     -15250.256     -15092.356      43.404106      129431.23      7.7274432    
      7500   299.20941     -15250.75      -15092.372      21.22581       129420.41      7.7221018    
      7510   299.48584     -15250.9       -15092.376     -3.9621511      129410.28      7.7177649    
      7520   298.9482      -15250.617     -15092.378     -19.800011      129400.11      7.7144007    
      7530   298.03349     -15250.127     -15092.372     -30.105544      129389.43      7.7118609    
      7540   297.77821     -15249.961     -15092.341     -43.919564      129377.88      7.7099404    
      7550   298.53731     -15250.311     -15092.289     -40.561399      129365.15      7.7084562    
      7560   299.543       -15250.779     -15092.225     -33.87621       129351.25      7.7073812    
      7570   299.76442     -15250.814     -15092.143      3.5864089      129336.48      7.7067997    
      7580   298.88477     -15250.259     -15092.053      61.698499      129321.91      7.7070213    
      7590   297.69572     -15249.533     -15091.957      127.63076      129309.25      7.7085597    
      7600   297.45675     -15249.275     -15091.825      151.96129      129300.27      7.7119965    
      7610   298.30939     -15249.566     -15091.665      155.13759      129295.77      7.717633     
      7620   299.18447     -15249.839     -15091.474      148.09181      129295.83      7.7254859    
      7630   299.22871     -15249.652     -15091.265      141.16964      129300.28      7.7354485    
      7640   298.2634      -15248.902     -15091.025      133.42152      129308.87      7.7473719    
      7650   297.00162     -15247.965     -15090.756      122.80717      129321.34      7.761055     
      7660   296.38905     -15247.318     -15090.434      94.990312      129337.32      7.7762417    
      7670   296.52973     -15247.007     -15090.048      52.124275      129356         7.792552     
      7680   297.44476     -15247.055     -15089.611      0.3615848      129376.11      7.809673     
      7690   299.17102     -15247.479     -15089.121     -54.925029      129396.14      7.8274109    
[...]
     12200   558.50554     -15107.558     -14811.929      1757.0615      131113.81      9.787609     
     12210   562.28374     -15108.031     -14810.403      1787.979       131076.26      9.7705049    
     12220   567.08936     -15109.084     -14808.912      1794.8418      131035.8       9.7526783    
     12230   572.77722     -15110.66      -14807.478      1789.8621      130991.65      9.7341364    
     12240   578.82614     -15112.516     -14806.131      1789.9351      130943.44      9.7152453    
     12250   584.65356     -15114.361     -14804.892      1810.8343      130891.55      9.6967506    
     12260   588.33349     -15115.196     -14803.779      1872.3121      130837.11      9.679413     
     12270   587.59722     -15113.843     -14802.816      1990.9397      130781.96      9.6637322    
     12280   583.83682     -15111.022     -14801.986      2135.5555      130728.5       9.649911     
     12290   580.90785     -15108.731     -14801.245      2271.3415      130679.13      9.6381876    
     12300   579.98026     -15107.545     -14800.55       2363.1943      130635.66      9.6289486    
     12310   579.51852     -15106.654     -14799.903      2435.7738      130599.13      9.6225235    
     12320   578.63194     -15105.551     -14799.269      2473.1697      130570.42      9.6192155    
     12330   577.31429     -15104.223     -14798.638      2518.3507      130550.39      9.6192572    
     12340   575.03221     -15102.372     -14797.996      2570.6324      130539.96      9.6228497    
     12350   572.58563     -15100.404     -14797.323      2618.4964      130539.82      9.6300104    
     12360   572.14043     -15099.427     -14796.581      2650.7683      130550.28      9.6406101    
     12370   570.85595     -15097.937     -14795.771      2693.2546      130571.43      9.6545123    
     12380   566.61378     -15094.788     -14794.868      2751.5107      130603.52      9.6714831    
     12390   563.2265      -15091.977     -14793.849      2779.6839      130646.6       9.6909909    
     12400   563.08161     -15090.737     -14792.687      2739.6828      130700.02      9.7121105    
     12410   565.51157     -15090.703     -14791.366      2665.8741      130762.28      9.7337833    
     12420   569.64907     -15091.438     -14789.912      2578.6188      130831.43      9.7554143    
     12430   572.36305     -15091.309     -14788.345      2504.1561      130905.45      9.7771315    
     12440   572.00835     -15089.471     -14786.695      2458.3482      130982.45      9.7993748    
     12450   571.42081     -15087.435     -14784.97       2397.5584      131060.76      9.8224421    
     12460   573.05245     -15086.498     -14783.17       2307.1159      131138.69      9.8463578    
     12470   576.68102     -15086.557     -14781.308      2180.6332      131214.4       9.8707073    
     12480   580.93824     -15086.9       -14779.398      2071.9676      131285.85      9.8947343    
     12490   585.44571     -15087.361     -14777.473      1983.4321      131351.39      9.9177867    
     12500   590.77794     -15088.26      -14775.549      1908.8722      131409.82      9.9395727    
     12510   596.6936      -15089.504     -14773.662      1842.7338      131460.12      9.9598774    
     12520   601.70453     -15090.335     -14771.841      1807.321       131501.49      9.9782839    
     12530   602.98983     -15089.275     -14770.101      1817.7901      131533.48      9.9944463    
     12540   601.67387     -15086.929     -14768.451      1878.2491      131556.36      10.008334    
     12550   602.52837     -15085.799     -14766.868      1928.5967      131570.78      10.019858    
     12560   605.77114     -15085.965     -14765.318      1936.4189      131576.94      10.028761    
     12570   606.97234     -15085.108     -14763.826      1976.1362      131574.75      10.035145    
     12580   605.0508      -15082.646     -14762.381      2065.7532      131564.69      10.039792    
     12590   603.72903     -15080.531     -14760.965      2143.7576      131547.93      10.043411    
     12600   605.34822     -15079.978     -14759.554      2149.3669      131525.73      10.045973    
     12610   608.29048     -15080.107     -14758.127      2141.7057      131498.88      10.047147    
     12620   608.83092     -15078.981     -14756.715      2162.8147      131468.12      10.046781    
     12630   607.72055     -15076.989     -14755.31       2235.1083      131434.47      10.04505     
     12640   606.50125     -15074.925     -14753.891      2335.7896      131399.35      10.042513    
     12650   604.65919     -15072.506     -14752.447      2469.4084      131364.42      10.039944    
     12660   603.37225     -15070.336     -14750.959      2619.6351      131331.5       10.038284    
     12670   605.54833     -15069.932     -14749.403      2713.9762      131302.49      10.038544    
     12680   612.55692     -15072.021     -14747.782      2741.4798      131278.64      10.041292    
     12690   623.19727     -15076.02      -14746.149      2729.0519      131260.46      10.046378    
     12700   632.69192     -15079.451     -14744.555      2738.7781      131248.16      10.053272    
     12710   637.39421     -15080.451     -14743.065      2759.5285      131242.11      10.061544    
     12720   639.08853     -15079.996     -14741.714      2791.6806      131242.66      10.070854    
     12730   639.13237     -15078.805     -14740.499      2816.3471      131249.69      10.080868    
     12740   637.41459     -15076.807     -14739.41       2826.5591      131262.89      10.09137     
     12750   636.54165     -15075.339     -14738.404      2807.0486      131281.73      10.10222     
     12760   637.75224     -15075.047     -14737.472      2770.1908      131305.52      10.113437    
     12770   637.34184     -15073.96      -14736.602      2742.6189      131333.38      10.125259    
     12780   634.98709     -15071.888     -14735.776      2754.3364      131364.39      10.137763    
     12790   632.83831     -15069.945     -14734.971      2767.8286      131397.86      10.150775    
     12800   630.37017     -15067.823     -14734.156      2758.1484      131433.05      10.164275    
     12810   629.10871     -15066.296     -14733.296      2722.316       131468.97      10.178643    
     12820   630.48663     -15066.124     -14732.395      2664.0403      131504.56      10.194345    
     12830   632.00599     -15065.972     -14731.438      2618.97        131538.98      10.211537    
     12840   631.73371     -15064.802     -14730.412      2628.5039      131571.94      10.230044    
     12850   629.63946     -15062.628     -14729.347      2673.3402      131603.93      10.249579    
     12860   627.68995     -15060.458     -14728.209      2719.4907      131635.63      10.269769    
     12870   628.03485     -15059.398     -14726.967      2723.9883      131667.54      10.290016    
     12880   631.30485     -15059.793     -14725.63       2675.7351      131699.26      10.309438    
     12890   636.84178     -15061.298     -14724.205      2585.5246      131729.46      10.327361    
     12900   640.52233     -15061.778     -14722.737      2496.1747      131756.54      10.343609    
     12910   640.4282      -15060.237     -14721.246      2450.0104      131779.4       10.358149    
     12920   639.05524     -15058.012     -14719.747      2437.2722      131798.03      10.370922    
     12930   638.54039     -15056.224     -14718.231      2416.5216      131813.02      10.382143    
     12940   639.20415     -15054.997     -14716.653      2377.5041      131824.93      10.392178    
     12950   639.33617     -15053.458     -14715.044      2364.4251      131834.08      10.401231    
     12960   639.62694     -15051.961     -14713.393      2368.5399      131840.66      10.409115    
     12970   641.52878     -15051.272     -14711.698      2386.9985      131844.72      10.415346    
     12980   644.46661     -15051.091     -14709.962      2414.8651      131846.43      10.4196      
     12990   648.61988     -15051.533     -14708.206      2475.5739      131846.1       10.422096    
     13000   654.1603      -15052.706     -14706.446      2523.5606      131844.23      10.423524    
     13010   659.42624     -15053.758     -14704.71       2585.9729      131841.56      10.424648    
     13020   662.54889     -15053.723     -14703.022      2651.2694      131839.01      10.425848    
     13030   662.48067     -15052.081     -14701.417      2749.3211      131837.22      10.427027    
     13040   661.49163     -15050.003     -14699.862      2868.816       131836.84      10.428169    
     13050   663.31725     -15049.444     -14698.337      2940.0157      131838.74      10.429688    
     13060   667.79725     -15050.326     -14696.848      2943.4767      131843.77      10.432402    
     13070   672.24934     -15051.226     -14695.39       2936.8366      131852.21      10.437098    
     13080   676.19287     -15051.93      -14694.007      2919.0387      131863.82      10.444387    
     13090   679.31949     -15052.282     -14692.705      2935.2325      131878.09      10.454487    
     13100   678.33493     -15050.56      -14691.503      2973.3706      131895.1       10.46739     
     13110   674.26785     -15047.267     -14690.363      3025.8041      131915.42      10.48283     
     13120   672.91855     -15045.471     -14689.281      3028.6672      131939.61      10.500394    
     13130   673.94088     -15044.929     -14688.198      2995.4968      131967.75      10.519585    
     13140   673.87665     -15043.809     -14687.112      2946.6332      131999.38      10.539673    
     13150   674.59922     -15043.091     -14686.012      2905.641       132033.35      10.559814    
     13160   676.32182     -15042.894     -14684.903      2888.1157      132068.11      10.57955     
     13170   676.80971     -15042.035     -14683.786      2861.4021      132101.87      10.598933    
     13180   678.18204     -15041.619     -14682.644      2852.4         132133.03      10.617916    
     13190   681.72746     -15042.358     -14681.506      2848.4918      132160.89      10.636131    
     13200   682.36118     -15041.55      -14680.362      2871.3089      132185.52      10.653084    
     13210   679.4754      -15038.896     -14679.235      2911.4188      132207.39      10.668301    
     13220   678.38341     -15037.167     -14678.085      2915.7427      132226.94      10.681472    
     13230   682.88329     -15038.357     -14676.893      2829.6218      132243.8       10.692452    
     13240   686.49457     -15039.055     -14675.679      2738.6565      132256.82      10.701313    
     13250   687.64772     -15038.441     -14674.456      2676.6034      132264.89      10.708053    
     13260   689.4025      -15038.163     -14673.248      2638.2473      132267.55      10.712733    
     13270   691.80979     -15038.239     -14672.05       2619.0543      132264.63      10.715773    
     13280   693.24202     -15037.822     -14670.875      2643.6498      132256.32      10.717643    
     13290   693.81305     -15036.959     -14669.71       2692.2461      132243.08      10.718383    
     13300   693.59348     -15035.705     -14668.572      2774.3646      132225.22      10.717552    
     13310   692.02527     -15033.728     -14667.425      2872.4683      132203.3       10.715044    
     13320   690.14389     -15031.576     -14666.269      3004.4009      132178.83      10.711628    
     13330   689.46738     -15030.014     -14665.065      3117.1609      132154.35      10.708584    
     13340   690.6527      -15029.377     -14663.8        3212.2294      132132.44      10.707008    
     13350   693.32352     -15029.477     -14662.486      3290.4433      132115.21      10.707608    
     13360   697.07139     -15030.098     -14661.124      3347.1131      132104.17      10.710838    
     13370   699.42157     -15029.958     -14659.74       3417.0315      132100.63      10.717067    
     13380   699.41295     -15028.56      -14658.346      3468.5626      132105.77      10.726629    
     13390   699.78228     -15027.36      -14656.951      3497.2982      132120.03      10.739651    
     13400   702.58114     -15027.436     -14655.545      3468.7493      132142.79      10.756019    
     13410   707.20573     -15028.451     -14654.113      3398.1891      132172.55      10.775446    
     13420   710.73672     -15028.908     -14652.701      3325.308       132207.41      10.797328    
     13430   710.96538     -15027.652     -14651.324      3285.2465      132246.01      10.820897    
     13440   707.4001      -15024.421     -14649.98       3299.6941      132287.74      10.845347    
     13450   703.22032     -15020.865     -14648.636      3285.1885      132332.62      10.87016     
     13460   703.22359     -15019.479     -14647.248      3230.7827      132380.8       10.895483    
     13470   707.69743     -15020.391     -14645.792      3117.2537      132431.96      10.921915    
     13480   712.48766     -15021.432     -14644.297      3024.9345      132485         10.949646    
     13490   714.78878     -15021.15      -14642.798      2986.5686      132538.46      10.978242    
     13500   713.79295     -15019.143     -14641.317      3027.277       132591.16      11.007065    
     13510   710.98187     -15016.163     -14639.826      3103.1013      132642.63      11.035769    
     13520   708.42625     -15013.301     -14638.316      3161.7713      132693.08      11.064286    
     13530   707.81585     -15011.41      -14636.749      3207.7603      132743.28      11.092688    
     13540   709.06246     -15010.441     -14635.12       3208.1519      132794.36      11.121063    
     13550   711.72843     -15010.17      -14633.438      3170.8419      132846.83      11.149404    
     13560   714.5708      -15009.935     -14631.698      3135.0702      132900.49      11.178023    
     13570   715.26861     -15008.541     -14629.935      3107.5889      132955.15      11.207743    
     13580   715.93604     -15007.112     -14628.153      3070.6763      133010.87      11.239354    
     13590   720.12589     -15007.513     -14626.335      3002.3522      133067.45      11.272921    
     13600   724.13665     -15007.832     -14624.532      2945.8219      133124.1       11.307919    
     13610   725.50342     -15006.752     -14622.728      2910.7885      133179.75      11.343602    
     13620   727.10898     -15005.818     -14620.945      2898.1435      133233.42      11.379176    
     13630   727.74188     -15004.393     -14619.184      2880.8135      133284.25      11.413672    
     13640   726.88323     -15002.198     -14617.444      2858.5168      133331.14      11.445807    
     13650   728.46318     -15001.297     -14615.707      2839.451       133372.75      11.474613    
     13660   734.88178     -15002.957     -14613.969      2779.3929      133407.84      11.499896    
     13670   739.67619     -15003.772     -14612.247      2767.2421      133435.39      11.521779    
     13680   740.32348     -15002.473     -14610.604      2815.9498      133454.77      11.540376    
     13690   738.90185     -15000.137     -14609.021      2918.9015      133465.73      11.55573     
     13700   738.39401     -14998.332     -14607.485      3014.481       133468.53      11.567761    
     13710   740.48641     -14997.906     -14605.952      3077.3252      133463.66      11.576439    
     13720   744.19381     -14998.359     -14604.442      3104.1115      133451.54      11.582004    
     13730   747.5127      -14998.634     -14602.96       3124.2358      133432.52      11.58498     
     13740   749.86907     -14998.454     -14601.533      3131.0549      133407.45      11.586183    
     13750   752.12545     -14998.264     -14600.148      3158.1833      133377.64      11.586397    
     13760   754.91293     -14998.405     -14598.815      3181.8917      133344.49      11.585871    
     13770   758.36538     -14998.959     -14597.541      3169.6317      133309.07      11.58436     
     13780   761.59321     -14999.473     -14596.346      3163.1126      133271.71      11.581527    
     13790   762.217       -14998.7       -14595.243      3208.7489      133232.63      11.577484    
     13800   759.70268     -14996.334     -14594.208      3305.5423      133192.6       11.572816    
     13810   757.38366     -14994.124     -14593.225      3396.5833      133153.25      11.568228    
     13820   758.08059     -14993.521     -14592.253      3428.8706      133116.51      11.56456     
     13830   760.38276     -14993.766     -14591.28       3451.9442      133083.66      11.562819    
     13840   761.37112     -14993.331     -14590.322      3494.9962      133055.26      11.563704    
     13850   761.80958     -14992.623     -14589.382      3573.028       133031.57      11.567189    
     13860   764.14103     -14992.915     -14588.44       3662.3995      133012.62      11.572584    
     13870   765.69657     -14992.818     -14587.52       3753.39        132998.66      11.579201    
     13880   762.34511     -14990.133     -14586.608      3897.0344      132990.28      11.586596    
     13890   755.56608     -14985.616     -14585.68       4054.3247      132988.65      11.594658    
     13900   750.6747      -14982.031     -14584.684      4164.5595      132995.33      11.603655    
     13910   750.55572     -14980.851     -14583.566      4154.1175      133011.35      11.614012    
     13920   754.53446     -14981.709     -14582.319      4078.5367      133036.18      11.625957    
     13930   759.0442      -14982.721     -14580.943      3963.9584      133068.04      11.63959     
     13940   761.27488     -14982.46      -14579.502      3865.1758      133104.66      11.655115    
     13950   760.75325     -14980.68      -14577.998      3815.5587      133144.35      11.672895    
     13960   757.19751     -14977.242     -14576.442      3830.5064      133186.44      11.693381    
     13970   753.31981     -14973.559     -14574.811      3877.3886      133231.31      11.716873    
     13980   752.82265     -14971.563     -14573.079      3898.9505      133279.71      11.743171    
     13990   753.4894      -14970.073     -14571.236      3904.004       133332.29      11.77161     
     14000   754.14402     -14968.481     -14569.298      3885.7162      133389.55      11.80168     
     14010   755.78688     -14967.335     -14567.282      3867.9815      133451.62      11.833169    
     14020   757.77996     -14966.308     -14565.199      3834.9555      133518.16      11.865955    
     14030   761.85207     -14966.328     -14563.064      3766.9854      133588.13      11.899683    
     14040   770.01168     -14968.49      -14560.907      3669.2535      133659.8       11.933667    
     14050   778.31461     -14970.744     -14558.766      3576.2229      133731.31      11.96735     
     14060   782.90448     -14971.104     -14556.696      3519.7845      133801.09      12.000261    
     14070   784.5125      -14969.977     -14554.718      3520.4983      133868.32      12.032076    
     14080   785.98169     -14968.879     -14552.843      3518.0802      133933.01      12.062823    
     14090   789.06323     -14968.693     -14551.026      3491.7606      133995.07      12.0926      
     14100   791.89227     -14968.458     -14549.293      3452.4945      134053.97      12.121721    
     14110   793.38678     -14967.583     -14547.627      3398.3055      134108.73      12.150761    
     14120   793.3121      -14965.938     -14546.022      3355.5754      134158.16      12.179944    
     14130   791.49844     -14963.439     -14544.483      3292.6805      134201.31      12.208677    
     14140   791.34298     -14961.834     -14542.96       3198.9879      134237.74      12.235904    
     14150   793.57651     -14961.523     -14541.467      3063.296       134266.98      12.26