LAMMPS (2 Aug 2023)
OMP_NUM_THREADS environment is not set. Defaulting to 1 thread. (src/comm.cpp:98)
  using 1 OpenMP thread(s) per MPI task
Reading data file ...
  orthogonal box = (0 0 0) to (98.140886 24.535221 49.070443)
  1 by 1 by 1 MPI processor grid
  reading atoms ...
  4096 atoms
Finding 1-2 1-3 1-4 neighbors ...
  special bond factors lj:    0        0        0       
  special bond factors coul:  0        0        0       
     0 = max # of 1-2 neighbors
     0 = max # of 1-3 neighbors
     0 = max # of 1-4 neighbors
     1 = max # of special neighbors
  special bonds CPU = 0.002 seconds
  read_data CPU = 0.061 seconds
2048 atoms in group gSolid
2048 atoms in group gLiquid
Neighbor list info ...
  update: every = 1 steps, delay = 10 steps, check = yes
  max neighbors/atom: 2000, page size: 100000
  master list distance cutoff = 6.3
  ghost atom cutoff = 6.3
  binsize = 3.15, bins = 32 8 16
  1 neighbor lists, perpetual/occasional/extra = 1 0 0
  (1) pair chgnet/gpu, perpetual
      attributes: full, newton on
      pair build: full/bin
      stencil: full/bin/3d
      bin: standard
Setting up Verlet run ...
  Unit style    : metal
  Current step  : 0
  Time step     : 0.0005
Per MPI rank memory allocation (min/avg/max) = 7.106 | 7.106 | 7.106 Mbytes
   Step          Temp          PotEng         TotEng         Press          Volume        c_msd[4]   
         0   300           -15094.011     -14935.215      19468.286      118157.13      0            
        10   296.08835     -15094.801     -14938.075      18699.161      118395.69      0.0011275021 
        20   284.83307     -15096.538     -14945.77       17043.457      119091.51      0.0099086478 
        30   268.25507     -15098.212     -14956.219      14894.221      120161.79      0.039218836  
        40   249.52516     -15098.629     -14966.55       12647.664      121421.84      0.09814362   
        50   231.52331     -15097.158     -14974.608      10693.603      122648.53      0.18101393   
        60   216.16285     -15094.526     -14980.107      9193.3494      123725.79      0.27497628   
        70   204.44415     -15092.218     -14984.001      8055.2579      124671.24      0.37408501   
        80   197.06276     -15091.345     -14987.035      7139.9375      125544.37      0.47937066   
        90   194.28889     -15092.296     -14989.455      6385.2103      126383.79      0.59282005   
       100   195.64039     -15094.824     -14991.268      5770.4554      127200.38      0.71458738   
       110   200.4869      -15098.667     -14992.545      5255.0431      127989.49      0.84301602   
       120   208.97849     -15103.974     -14993.357      4802.0717      128741.81      0.97546869   
       130   220.69843     -15110.561     -14993.74       4384.9584      129449.57      1.1091958    
       140   234.22331     -15117.73      -14993.751      3984.6422      130109.02      1.2419684    
       150   247.78817     -15124.596     -14993.436      3581.9922      130720.03      1.3723242    
       160   259.98667     -15130.47      -14992.854      3167.6864      131284.49      1.4993743    
       170   271.05688     -15135.531     -14992.055      2705.5313      131804.58      1.6223083    
       180   282.20637     -15140.463     -14991.085      2192.1767      132281.22      1.7400993    
       190   292.87948     -15145.01      -14989.983      1655.135       132713.67      1.8515481    
       200   302.59773     -15148.988     -14988.817      1091.2977      133100.12      1.9554338    
       210   310.21736     -15151.857     -14987.653      539.05016      133437.78      2.0504913    
       220   313.12764     -15152.312     -14986.568      67.598448      133723.99      2.1355209    
       230   311.31093     -15150.404     -14985.621     -296.30121      133957.87      2.2097181    
       240   308.1088      -15147.896     -14984.808     -589.44374      134140.65      2.2727119    
       250   306.72615     -15146.457     -14984.101     -807.16218      134274.56      2.3244182    
       260   306.91038     -15145.937     -14983.483     -956.21339      134362.62      2.3652283    
       270   306.03745     -15144.973     -14982.981     -1025.9285      134408.66      2.396065     
       280   302.5825      -15142.717     -14982.554     -973.12358      134417.73      2.4183375    
       290   295.96168     -15138.845     -14982.186     -827.63548      134396.97      2.4339062    
       300   288.1202      -15134.306     -14981.798     -635.8569       134354.85      2.4446902    
       310   284.56725     -15131.922     -14981.295     -444.99118      134299.74      2.4524164    
       320   286.13104     -15132.119     -14980.664     -291.89911      134238.73      2.4585688    
       330   287.31533     -15131.965     -14979.883     -129.44879      134177.13      2.464267     
       340   286.10049     -15130.438     -14978.999      38.582527      134119.64      2.4703181    
       350   284.49943     -15128.613     -14978.022      196.72666      134070.5       2.4774538    
       360   284.75597     -15127.678     -14976.951      292.63615      134033.05      2.4863615    
       370   288.14156     -15128.314     -14975.795      334.29785      134008.69      2.4972956    
       380   294.49462     -15130.488     -14974.606      337.08818      133997.08      2.5101481    
       390   301.69576     -15133.129     -14973.435      316.6959       133996.77      2.5247899    
       400   308.90299     -15135.856     -14972.348      279.06611      134005.91      2.5410764    
       410   315.19859     -15138.235     -14971.394      243.02809      134022.47      2.5587958    
       420   319.08644     -15139.536     -14970.637      202.92717      134044.5       2.5778626    
       430   320.21564     -15139.604     -14970.107      195.13031      134070.43      2.5984039    
       440   320.08753     -15139.239     -14969.81       181.4203       134099.55      2.6207437    
       450   320.40084     -15139.332     -14969.737      132.50521      134131.04      2.6448372    
       460   322.03588     -15140.355     -14969.895      51.859318      134163.32      2.6701412    
       470   325.15544     -15142.424     -14970.312     -83.309637      134193.82      2.6957503    
       480   327.99171     -15144.626     -14971.013     -218.08956      134218.82      2.7204993    
       490   326.47093     -15144.823     -14972.016     -306.51004      134234.91      2.7433302    
       500   321.79185     -15143.584     -14973.253     -349.33081      134240.2       2.7633886    
       510   318.31404     -15143.111     -14974.621     -368.02882      134234.46      2.7800685    
       520   318.25133     -15144.508     -14976.051     -410.41416      134218.01      2.7928918    
       530   319.93005     -15146.891     -14977.545     -463.23802      134190.47      2.8013895    
       540   319.00572     -15147.949     -14979.093     -466.3072       134151.41      2.8052398    
       550   314.38847     -15147.046     -14980.634     -408.44109      134101.77      2.8045364    
       560   308.00527     -15145.153     -14982.12      -302.13982      134044.12      2.7997169    
       570   301.02104     -15142.831     -14983.495     -170.73197      133982.31      2.7915571    
       580   295.24445     -15140.979     -14984.7       -43.931493      133920.59      2.7810856    
       590   292.29472     -15140.465     -14985.747      54.513742      133862.65      2.7694365    
       600   291.0512      -15140.7       -14986.641      132.27272      133811.13      2.7576607    
       610   290.30864     -15141.061     -14987.394      198.94055      133767.86      2.7464726    
       620   290.42666     -15141.76      -14988.031      250.45874      133734.06      2.7362268    
       630   291.36564     -15142.785     -14988.559      289.00883      133710.54      2.7272637    
       640   291.40504     -15143.229     -14988.982      307.11473      133697.6       2.720124     
       650   290.14319     -15142.897     -14989.319      320.65694      133695.02      2.7152715    
       660   289.64127     -15142.874     -14989.561      286.94551      133702.22      2.712978     
       670   291.91174     -15144.2       -14989.685      195.2543       133717.4       2.7132214    
       680   296.16213     -15146.502     -14989.737      73.111543      133737.23      2.7156786    
       690   299.81109     -15148.447     -14989.751     -61.947275      133757.66      2.7197221    
       700   302.36248     -15149.798     -14989.751     -174.65227      133774.72      2.7244625    
       710   305.26425     -15151.359     -14989.777     -269.00184      133785.2       2.7290307    
       720   307.8552      -15152.832     -14989.878     -338.72816      133786.74      2.7325785    
       730   307.49831     -15152.811     -14990.045     -340.74116      133778.03      2.7344219    
       740   304.46409     -15151.468     -14990.309     -296.97301      133759.65      2.7341861    
       750   302.10171     -15150.52      -14990.611     -251.82289      133733.52      2.7317093    
       760   302.74495     -15151.188     -14990.939     -217.4742       133701.58      2.7269954    
       770   305.1253      -15152.818     -14991.309     -212.35892      133665.22      2.7202602    
       780   305.52784     -15153.46      -14991.738     -176.33273      133625.03      2.7117531    
       790   302.49427     -15152.326     -14992.21      -88.086401      133582.43      2.7018023    
       800   298.40351     -15150.638     -14992.687     -9.5159884      133540.06      2.6908663    
       810   296.40183     -15150.047     -14993.155      55.270643      133500.33      2.6793336    
       820   296.5507      -15150.538     -14993.568      73.015303      133464.87      2.6676632    
       830   297.26245     -15151.284     -14993.937      78.816333      133434.01      2.6563356    
       840   296.83836     -15151.406     -14994.284      94.235966      133407.59      2.6457848    
       850   293.88585     -15150.155     -14994.596      142.0786       133385.92      2.6364198    
       860   289.00166     -15147.799     -14994.824      203.84047      133370.03      2.6285833    
       870   284.94101     -15145.782     -14994.957      256.75969      133361.36      2.622401     
       880   283.84129     -15145.175     -14994.932      250.46767      133360.9       2.6177711    
       890   285.57343     -15145.903     -14994.744      209.29485      133367.99      2.6144489    
       900   287.54966     -15146.62      -14994.414      131.02867      133380.81      2.6122916    
       910   288.27999     -15146.553     -14993.96       60.798435      133396.76      2.6112607    
       920   289.867       -15146.819     -14993.387     -17.682335      133413.46      2.6113641    
       930   292.30975     -15147.438     -14992.712     -112.11283      133428.45      2.6123864    
       940   293.3904      -15147.273     -14991.976     -164.56559      133439.17      2.613848     
       950   292.99749     -15146.279     -14991.19      -183.30583      133444.3       2.6153052    
       960   293.60151     -15145.781     -14990.372     -212.69691      133443.44      2.616413     
       970   295.76221     -15146.079     -14989.526     -237.16927      133436.13      2.6168056    
       980   297.76778     -15146.297     -14988.682     -262.2492       133421.96      2.6161925    
       990   299.69478     -15146.47      -14987.835     -260.63842      133400.77      2.6144799    
      1000   301.78028     -15146.768     -14987.029     -226.97198      133373.04      2.6119666    
      1010   303.00523     -15146.658     -14986.271     -172.16089      133340.08      2.6092463    
      1020   304.33543     -15146.671     -14985.58      -87.397237      133303.94      2.6070543    
      1030   305.95557     -15146.886     -14984.937     -6.369448       133267.31      2.6062715    
      1040   305.49383     -15146.084     -14984.38       79.581788      133232.65      2.6077344    
      1050   302.8591      -15144.199     -14983.89       181.97231      133202.52      2.6121264    
      1060   301.15942     -15142.851     -14983.441      257.94172      133179.61      2.6199963    
      1070   302.30081     -15143.027     -14983.013      292.73154      133165.76      2.6315558    
      1080   305.19747     -15144.162     -14982.615      290.19146      133161.46      2.6466221    
      1090   308.02015     -15145.309     -14982.267      281.3513       133166.21      2.6646507    
      1100   309.12565     -15145.635     -14982.008      269.20246      133179.23      2.6848844    
      1110   307.94729     -15144.852     -14981.849      259.93033      133199.73      2.7064423    
      1120   305.77556     -15143.627     -14981.774      246.39363      133226.97      2.7285351    
      1130   303.61634     -15142.474     -14981.763      215.16829      133260.08      2.750601     
      1140   302.27899     -15141.804     -14981.801      172.32581      133297.83      2.7721754    
      1150   302.38092     -15141.912     -14981.856      92.981612      133338.6       2.7927366    
      1160   302.74786     -15142.191     -14981.941      17.946182      133379.97      2.8117145    
      1170   301.6011      -15141.697     -14982.054     -39.267484      133419.68      2.8288779    
      1180   299.98886     -15140.965     -14982.175     -72.683553      133456.1       2.8443061    
      1190   299.90816     -15141.039     -14982.292     -100.13973      133488.33      2.8581606    
      1200   301.28261     -15141.885     -14982.41      -118.17625      133515.73      2.8705774    
      1210   303.09911     -15142.988     -14982.552     -122.06048      133538.02      2.8818009    
      1220   304.95149     -15144.133     -14982.716     -120.59176      133555.37      2.8921576    
      1230   306.88808     -15145.378     -14982.936     -115.76179      133568.07      2.9019105    
      1240   308.61425     -15146.596     -14983.24      -118.57869      133576.51      2.9112004    
      1250   309.779       -15147.613     -14983.641     -126.86344      133580.83      2.9201573    
      1260   308.60553     -15147.494     -14984.143     -120.74467      133581.06      2.9289574    
      1270   305.17604     -15146.264     -14984.728     -90.997665      133577.63      2.937751     
      1280   302.7545      -15145.604     -14985.349     -56.8985        133571.56      2.9467132    
      1290   301.75665     -15145.711     -14985.985     -31.540611      133563.98      2.9561877    
      1300   301.72853     -15146.334     -14986.623     -28.70124       133555.71      2.9665722    
      1310   302.59037     -15147.428     -14987.261     -31.645476      133546.93      2.9779826    
      1320   302.93357     -15148.258     -14987.909     -32.510312      133537.58      2.9902679    
      1330   302.26457     -15148.556     -14988.561     -18.536277      133527.71      3.0030942    
      1340   300.96334     -15148.523     -14989.217      23.121261      133517.82      3.0161326    
      1350   298.56524     -15147.887     -14989.85       66.402838      133509.09      3.0292418    
      1360   295.01993     -15146.594     -14990.434      119.66356      133502.84      3.0424505    
      1370   291.25062     -15145.13      -14990.965      167.13973      133500.53      3.0558823    
      1380   288.62284     -15144.149     -14991.375      196.46713      133503.43      3.0696143    
      1390   288.88047     -15144.575     -14991.665      189.98609      133512.14      3.0835922    
      1400   291.90652     -15146.362     -14991.85       133.36534      133526.14      3.0976186    
      1410   295.11836     -15148.164     -14991.952      47.633667      133543.49      3.1113347    
      1420   296.13209     -15148.753     -14992.004     -13.326448      133561.58      3.1242739    
      1430   295.1496      -15148.234     -14992.006     -50.462213      133578.46      3.1360697    
      1440   293.97367     -15147.573     -14991.967     -84.295353      133592.99      3.146548     
      1450   293.94948     -15147.449     -14991.856     -131.65384      133604.22      3.1555058    
      1460   295.39851     -15148.052     -14991.691     -182.96734      133610.82      3.1625914    
      1470   297.72354     -15149.069     -14991.478     -222.62375      133611.47      3.1675201    
      1480   299.55446     -15149.799     -14991.239     -241.6893       133605.25      3.1701752    
      1490   300.86993     -15150.239     -14990.983     -234.58595      133591.9       3.1705744    
      1500   301.90386     -15150.548     -14990.744     -227.20893      133571.87      3.1688113    
      1510   302.52611     -15150.652     -14990.519     -187.4432       133545.78      3.1650457    
      1520   302.54122     -15150.473     -14990.331     -136.50957      133515.02      3.1597485    
      1530   302.29914     -15150.162     -14990.149     -75.244325      133481.41      3.1536457    
      1540   301.74501     -15149.72      -14990         -2.1236976      133446.92      3.1475952    
      1550   300.15897     -15148.745     -14989.865      91.379202      133413.86      3.142485     
      1560   297.65881     -15147.277     -14989.72       195.31926      133385.06      3.1392838    
      1570   296.11365     -15146.309     -14989.57       269.45594      133363.39      3.1388189    
      1580   295.71498     -15145.886     -14989.358      313.38633      133350.8       3.1414837    
      1590   295.59457     -15145.586     -14989.122      343.91929      133348.3       3.1473155    
      1600   296.266       -15145.655     -14988.836      345.1593       133356.4       3.1561622    
      1610   297.33138     -15145.888     -14988.504      321.20287      133374.75      3.1677562    
      1620   298.10023     -15145.941     -14988.151      280.89146      133402.22      3.1816126    
      1630   299.72615     -15146.439     -14987.788      239.47983      133437.31      3.1971776    
      1640   302.1794      -15147.359     -14987.41       155.47878      133478.3       3.2139179    
      1650   303.25202     -15147.579     -14987.062      68.947075      133522.52      3.2311539    
      1660   302.79092     -15147.018     -14986.744      1.3366342      133567.18      3.2481553    
      1670   302.75202     -15146.701     -14986.448     -58.189512      133610.13      3.2642656    
      1680   303.57552     -15146.879     -14986.19      -122.15038      133649.64      3.2789264    
      1690   304.78214     -15147.294     -14985.967     -186.90514      133683.85      3.2914728    
      1700   305.19591     -15147.336     -14985.79      -239.67034      133710.94      3.3012336    
      1710   304.04341     -15146.605     -14985.669     -261.11557      133729.64      3.3078319    
      1720   302.23386     -15145.563     -14985.585     -261.8978       133739.55      3.3113412    
      1730   301.81286     -15145.297     -14985.541     -251.89972      133740.97      3.3122199    
      1740   302.99968     -15145.891     -14985.507     -263.95095      133734.4       3.3110221    
      1750   304.36062     -15146.615     -14985.511     -248.73242      133720         3.3081776    
      1760   304.44647     -15146.714     -14985.564     -197.57853      133698.52      3.3041712    
      1770   303.16021     -15146.129     -14985.66      -117.42313      133671.78      3.2996643    
      1780   301.8948      -15145.594     -14985.795     -55.872989      133642.3       3.295471     
      1790   301.82125     -15145.709     -14985.949     -13.130962      133612.13      3.2923125    
      1800   302.12294     -15146.031     -14986.111      17.296065      133582.56      3.2907583    
      1810   302.29622     -15146.323     -14986.312      41.6632        133554.51      3.2912044    
      1820   303.03747     -15146.938     -14986.534      63.840616      133528.73      3.2938761    
      1830   304.00271     -15147.705     -14986.79       72.096903      133505.79      3.2988619    
      1840   303.97335     -15147.99      -14987.091      90.709534      133485.89      3.3059505    
      1850   302.30682     -15147.453     -14987.436      120.17993      133469.45      3.3147378    
      1860   299.1698      -15146.158     -14987.802      170.20294      133457.35      3.32483      
      1870   295.75875     -15144.699     -14988.148      215.07815      133450.88      3.3360632    
      1880   293.9526      -15144.04      -14988.445      217.95426      133451.16      3.348422     
      1890   294.91871     -15144.793     -14988.687      178.64098      133458.08      3.361725     
      1900   297.08759     -15146.129     -14988.874      112.08507      133470.2       3.3756336    
      1910   297.76964     -15146.649     -14989.034      58.668153      133485.43      3.3897625    
      1920   296.24261     -15145.978     -14989.17       31.707528      133502.06      3.4038169    
      1930   293.6576      -15144.703     -14989.264      16.796377      133519.15      3.4176092    
      1940   291.57314     -15143.635     -14989.299      2.0783949      133536.22      3.4310451    
      1950   290.9639      -15143.268     -14989.254     -30.87317       133552.73      3.4440637    
      1960   291.20684     -15143.249     -14989.107     -73.261419      133567.71      3.4565248    
      1970   291.22415     -15143.024     -14988.874     -101.07542      133580         3.4683197    
      1980   291.05459     -15142.602     -14988.54      -127.34226      133588.78      3.4793747    
      1990   291.42212     -15142.367     -14988.112     -143.78927      133593.36      3.4895195    
      2000   292.89876     -15142.646     -14987.609     -162.24673      133593.3       3.4987651    
      2010   295.35379     -15143.368     -14987.031     -173.83111      133588.2       3.5072431    
      2020   298.12599     -15144.227     -14986.422     -167.46159      133577.85      3.5150576    
      2030   300.351       -15144.803     -14985.821     -130.26822      133562.61      3.5223537    
      2040   301.95936     -15145.08      -14985.247     -63.137866      133543.84      3.5293572    
      2050   304.38714     -15145.847     -14984.728     -8.4327961      133523.62      3.5363249    
      2060   308.5977      -15147.615     -14984.268      23.188905      133503.65      3.543498     
      2070   312.12352     -15149.137     -14983.923      66.043933      133485         3.5512545    
      2080   312.49454     -15149.115     -14983.706      138.62957      133469.02      3.5600997    
      2090   310.49848     -15147.974     -14983.62       217.75421      133457.8       3.5703935    
      2100   308.97097     -15147.207     -14983.662      265.23301      133453.58      3.5822872    
      2110   309.03368     -15147.382     -14983.804      270.97479      133457.61      3.5957238    
      2120   308.79108     -15147.499     -14984.05       238.55569      133469.75      3.6104584    
      2130   307.52088     -15147.166     -14984.389      192.55675      133488.89      3.6259718    
      2140   305.50109     -15146.525     -14984.817      139.44582      133513.45      3.6414895    
      2150   302.34598     -15145.326     -14985.288      91.328441      133541.62      3.6563061    
      2160   298.2475      -15143.641     -14985.772      66.039228      133571.89      3.6700627    
      2170   294.79226     -15142.266     -14986.226      45.679617      133603.38      3.6826851    
      2180   293.28369     -15141.847     -14986.606      29.480659      133635.41      3.6941382    
      2190   293.55547     -15142.301     -14986.916     -6.2286142      133667.41      3.7044836    
      2200   294.59456     -15143.088     -14987.153     -44.332255      133698.33      3.7137288    
      2210   295.24184     -15143.605     -14987.328     -69.779073      133727.08      3.7218022    
      2220   295.10064     -15143.664     -14987.461     -85.354368      133752.93      3.7286213    
      2230   295.21894     -15143.794     -14987.529     -103.00575      133775.37      3.7341477    
      2240   295.19938     -15143.798     -14987.543     -101.15518      133794.03      3.7385548    
      2250   294.36425     -15143.317     -14987.504     -94.466221      133809.01      3.7422704    
      2260   294.66981     -15143.385     -14987.41      -93.472454      133820.57      3.7457607    
      2270   296.97012     -15144.449     -14987.257     -113.97933      133828.77      3.7493444    
      2280   299.95661     -15145.848     -14987.075     -154.05967      133833.09      3.7531612    
      2290   303.53801     -15147.549     -14986.88      -213.85997      133832.4       3.7571969    
      2300   307.07222     -15149.262     -14986.722     -269.61025      133825.03      3.7613236    
      2310   309.2735      -15150.344     -14986.639     -299.19008      133809.48      3.7652744    
      2320   309.8041      -15150.64      -14986.654     -300.84361      133785.07      3.7687138    
      2330   308.91899     -15150.301     -14986.784     -284.5834       133751.98      3.7712977    
      2340   307.41848     -15149.729     -14987.006     -259.68596      133710.93      3.7728163    
      2350   306.2774      -15149.449     -14987.33      -243.61346      133662.83      3.7732542    
      2360   305.73416     -15149.545     -14987.714     -237.4542       133608.39      3.7726735    
      2370   304.59654     -15149.398     -14988.169     -215.62197      133548.06      3.7711224    
      2380   301.98039     -15148.51      -14988.665     -162.98589      133482.72      3.7687236    
      2390   298.3572      -15147.091     -14989.164     -85.922875      133414.15      3.7656741    
      2400   294.96627     -15145.754     -14989.622     -2.7399895      133344.77      3.7622415    
      2410   293.00178     -15145.088     -14989.996      80.286979      133277.2       3.7587279    
      2420   292.39571     -15145.064     -14990.293      163.1531       133213.98      3.7554768    
      2430   292.40051     -15145.266     -14990.492      244.20851      133157.51      3.7529114    
      2440   292.94052     -15145.668     -14990.609      330.64791      133110.16      3.7516184    
      2450   293.42742     -15145.973     -14990.656      395.41073      133074.2       3.7523122    
      2460   293.26882     -15145.857     -14990.624      445.35568      133051.33      3.7555191    
      2470   292.69564     -15145.469     -14990.539      474.35687      133042.75      3.7614234    
      2480   292.12735     -15145.001     -14990.372      488.80087      133049.03      3.7698866    
      2490   292.62832     -15145.025     -14990.131      480.32319      133070.2       3.7806104    
      2500   294.34511     -15145.611     -14989.808      437.35702      133105.52      3.7933417    
      2510   296.3416      -15146.285     -14989.426      386.077        133153.44      3.8079061    
      2520   298.02253     -15146.755     -14989.006      324.34663      133212.06      3.8241696    
      2530   299.03297     -15146.848     -14988.563      264.30283      133279.18      3.8419623    
      2540   298.78965     -15146.271     -14988.116      218.59575      133352.79      3.8611594    
      2550   298.14592     -15145.491     -14987.677      177.98959      133431.22      3.8817177    
      2560   297.95261     -15144.955     -14987.243      138.16919      133513.11      3.9035818    
      2570   297.22888     -15144.134     -14986.805      86.696305      133597.08      3.9265253    
      2580   295.40231     -15142.733     -14986.371      43.763657      133681.51      3.9500777    
      2590   294.06001     -15141.59      -14985.938     -5.2733615      133765.01      3.9737387    
      2600   294.41769     -15141.319     -14985.478     -80.156358      133845.95      3.9970159    
      2610   295.36395     -15141.341     -14984.999     -178.49151      133922.01      4.019254     
      2620   295.41023     -15140.901     -14984.535     -261.02058      133990.34      4.0396084    
      2630   294.58679     -15140.007     -14984.076     -322.69628      134048.61      4.0573571    
      2640   293.87771     -15139.191     -14983.636     -378.97758      134095.16      4.0720098    
      2650   294.15936     -15138.902     -14983.198     -421.51935      134128.59      4.0832983    
      2660   296.40768     -15139.657     -14982.763     -465.08183      134147.83      4.091139     
      2670   299.55113     -15140.913     -14982.355     -484.88488      134151.98      4.095483     
      2680   301.14816     -15141.406     -14982.002     -465.86998      134140.9       4.0963993    
      2690   301.4356      -15141.264     -14981.708     -396.62384      134115.62      4.0941002    
      2700   302.18251     -15141.419     -14981.468     -327.00548      134078.5       4.0891655    
      2710   303.1761      -15141.752     -14981.275     -259.7105       134032.11      4.0823932    
      2720   303.25427     -15141.64      -14981.121     -182.57964      133978.83      4.0746053    
      2730   302.44949     -15141.114     -14981.022     -81.039619      133921.37      4.0665676    
      2740   301.63782     -15140.602     -14980.939      12.379247      133862.87      4.0590144    
      2750   300.85262     -15140.127     -14980.88       91.037301      133806.27      4.0525151    
      2760   299.82073     -15139.536     -14980.835      172.40019      133754.09      4.0474762    
      2770   298.98795     -15139.04      -14980.78       231.28142      133708.56      4.0440979    
      2780   298.49687     -15138.709     -14980.709      288.0297       133671.44      4.0424758    
      2790   297.30674     -15138.004     -14980.633      330.19709      133644.2       4.0428804    
      2800   296.00974     -15137.209     -14980.525      360.50728      133627.91      4.0457824    
      2810   296.02067     -15137.068     -14980.379      352.54906      133623.16      4.0517409    
      2820   297.39773     -15137.606     -14980.188      312.12103      133629.42      4.0610735    
      2830   299.4734      -15138.483     -14979.966      251.86583      133645.22      4.0738248    
      2840   301.65441     -15139.404     -14979.732      173.23229      133668.45      4.0898146    
      2850   302.44856     -15139.584     -14979.492      95.145886      133696.49      4.1086319    
      2860   301.38838     -15138.814     -14979.283      31.492574      133726.85      4.129678     
      2870   300.14459     -15137.949     -14979.077     -17.841222      133757.54      4.1522877    
      2880   300.24832     -15137.783     -14978.856     -91.386767      133786.83      4.17585      
      2890   301.54399     -15138.237     -14978.624     -160.794        133812.6       4.1995981    
      2900   302.78819     -15138.665     -14978.393     -228.99899      133832.75      4.2226479    
      2910   303.79126     -15138.988     -14978.185     -289.9623       133845.27      4.2439782    
      2920   304.33927     -15139.09      -14977.997     -336.51211      133848.45      4.2625045    
      2930   303.73346     -15138.621     -14977.849     -367.69173      133841.05      4.2772098    
      2940   302.43932     -15137.811     -14977.723     -378.73172      133822.36      4.2873989    
      2950   301.69143     -15137.311     -14977.619     -377.4073       133792.24      4.2928602    
      2960   302.52369     -15137.655     -14977.523     -351.90635      133751.02      4.2936578    
      2970   304.32515     -15138.523     -14977.438     -311.54412      133699.73      4.2901196    
      2980   305.83199     -15139.279     -14977.396     -251.04988      133639.91      4.2827273    
      2990   306.91412     -15139.858     -14977.403     -170.36731      133573.61      4.2721648    
      3000   307.24536     -15140.122     -14977.491     -68.099637      133503.54      4.2592005    
      3010   307.05335     -15140.211     -14977.681      42.598399      133432.96      4.244561     
      3020   306.70854     -15140.329     -14977.982      152.73979      133365.31      4.2290091    
      3030   305.90807     -15140.33      -14978.407      233.71406      133303.82      4.2134588    
      3040   304.87346     -15140.355     -14978.98       310.58634      133250.95      4.1987986    
      3050   303.72346     -15140.42      -14979.653      359.01797      133208.79      4.185842     
      3060   303.37209     -15140.985     -14980.404      381.3441       133178.65      4.1751227    
      3070   304.64401     -15142.459     -14981.205      360.54337      133160.84      4.1668475    
      3080   305.5349      -15143.722     -14981.996      333.35836      133154.6       4.160767     
      3090   304.19431     -15143.771     -14982.755      314.07337      133158.83      4.1564569    
      3100   301.55153     -15143.046     -14983.429      304.28238      133172.72      4.1536856    
      3110   299.19546     -15142.367     -14983.997      270.29762      133195.66      4.1524255    
      3120   297.85877     -15142.11      -14984.448      223.96695      133226.47      4.1526025    
      3130   297.11512     -15142.075     -14984.806      165.49672      133263.52      4.154104     
      3140   296.89098     -15142.227     -14985.076      92.571698      133304.89      4.1568914    
      3150   297.75343     -15142.886     -14985.279      11.725733      133348.28      4.1608993    
      3160   299.61681     -15144.033     -14985.44      -95.796582      133391.01      4.1658626    
      3170   301.63432     -15145.238     -14985.577     -190.57063      133429.91      4.1710341    
      3180   302.19432     -15145.688     -14985.73      -260.70067      133462.08      4.1754097    
      3190   300.35246     -15144.876     -14985.893     -292.99988      133485.52      4.1779865    
      3200   297.15615     -15143.346     -14986.055     -285.24844      133499.4       4.1779818    
      3210   295.12544     -15142.401     -14986.185     -258.58063      133504.17      4.1750158    
      3220   295.05415     -15142.447     -14986.269     -251.07032      133500.75      4.1690913    
      3230   296.06204     -15143.003     -14986.291     -240.45691      133489.64      4.160325     
      3240   296.82341     -15143.396     -14986.282     -214.40256      133471.28      4.1489316    
      3250   296.70454     -15143.298     -14986.246     -163.50412      133446.64      4.1352653    
      3260   296.62714     -15143.172     -14986.161     -110.4272       133417.37      4.1198835    
      3270   297.10178     -15143.304     -14986.042     -70.371347      133385.2       4.1035347    
      3280   297.62627     -15143.424     -14985.884     -34.800349      133351.47      4.087102     
      3290   297.94631     -15143.413     -14985.704      8.8773456      133317.31      4.071522     
      3300   298.24946     -15143.341     -14985.471      58.089926      133284.09      4.0577145    
      3310   298.79269     -15143.39      -14985.233      103.79669      133253.3       4.0463676    
      3320   299.92325     -15143.714     -14984.958      140.1945       133226.31      4.0378329    
      3330   301.63728     -15144.332     -14984.669      164.01614      133204.16      4.0322055    
      3340   303.49785     -15145.034     -14984.387      190.93481      133187.54      4.0294155    
      3350   304.79091     -15145.467     -14984.135      218.39833      133177.16      4.029389     
      3360   305.25806     -15145.505     -14983.926      257.69037      133173.77      4.0321119    
      3370   305.67035     -15145.555     -14983.757      277.04531      133178.33      4.0376636    
      3380   306.8993      -15146.112     -14983.664      267.48249      133191.3       4.0459973    
      3390   308.27095     -15146.805     -14983.631      251.17571      133212.32      4.0568628    
      3400   308.33338     -15146.894     -14983.686      234.62328      133240.75      4.0699176    
      3410   307.13047     -15146.405     -14983.835      221.21585      133275.97      4.0848882    
      3420   305.32905     -15145.697     -14984.08       199.02737      133317.43      4.1015435    
      3430   303.64521     -15145.144     -14984.418      158.34454      133364.32      4.1195629    
      3440   302.23648     -15144.784     -14984.804      107.987        133415.32      4.1384766    
      3450   301.06588     -15144.612     -14985.252      40.445915      133468.77      4.157712     
      3460   300.9088      -15145.003     -14985.726     -37.828311      133522.56      4.1765605    
      3470   302.35409     -15146.287     -14986.245     -130.76437      133574.23      4.194163     
      3480   303.67642     -15147.549     -14986.807     -220.77595      133620.94      4.2096147    
      3490   303.00574     -15147.781     -14987.394     -281.64884      133660.03      4.222082     
      3500   301.3631      -15147.507     -14987.989     -302.56533      133689.74      4.2307724    
      3510   300.0213      -15147.37      -14988.563     -313.13652      133709.52      4.2351351    
      3520   299.33982     -15147.531     -14989.085     -331.90314      133719.14      4.2349105    
      3530   299.41042     -15148.015     -14989.531     -341.8407       133718.22      4.2300686    
      3540   299.62857     -15148.507     -14989.907     -356.86731      133706.51      4.2208916    
      3550   299.5768      -15148.803     -14990.231     -359.06224      133683.78      4.2078202    
      3560   299.80283     -15149.186     -14990.494     -350.07703      133650.13      4.1913585    
      3570   300.33115     -15149.689     -14990.718     -324.54363      133606.07      4.1719957    
      3580   300.13463     -15149.787     -14990.92      -300.464        133552.48      4.1501563    
      3590   298.59901     -15149.135     -14991.08      -257.20472      133490.34      4.126283     
      3600   295.96358     -15147.875     -14991.215     -194.13971      133421.13      4.1009003    
      3610   293.61446     -15146.703     -14991.287     -120.2593       133346.93      4.0746315    
      3620   292.83385     -15146.292     -14991.289     -66.659863      133270.07      4.0480402    
      3630   292.96932     -15146.292     -14991.217     -13.46986       133192.36      4.0215264    
      3640   292.52273     -15145.918     -14991.08       46.241946      133115.52      3.9954847    
      3650   291.65307     -15145.25      -14990.872      120.81228      133041.43      3.9703155    
      3660   291.9198      -15145.107     -14990.588      177.84842      132972.29      3.9465755    
      3670   293.9837      -15145.854     -14990.242      208.13349      132909.76      3.9248407    
      3680   296.75729     -15146.92      -14989.84       222.10194      132854.65      3.9056845    
      3690   298.38672     -15147.367     -14989.425      253.16001      132807.35      3.8896043    
      3700   298.69702     -15147.131     -14989.024      310.06289      132768.71      3.8769868    
      3710   299.13864     -15146.985     -14988.645      354.70131      132740.21      3.8680532    
      3720   300.32912     -15147.254     -14988.284      394.30445      132723.07      3.8628339    
      3730   301.41835     -15147.498     -14987.951      430.63207      132718.35      3.8613669    
      3740   302.04599     -15147.552     -14987.673      454.75201      132726.93      3.8637726    
      3750   303.55714     -15148.108     -14987.429      464.03532      132749.38      3.8701054    
      3760   305.5369      -15148.99      -14987.263      429.81707      132785.72      3.8802365    
      3770   305.97436     -15149.12      -14987.162      378.80254      132834.8       3.893736     
      3780   304.57198     -15148.338     -14987.122      310.76067      132894.82      3.9100183    
      3790   302.94553     -15147.487     -14987.132      225.85682      132963.57      3.9285215    
      3800   302.67389     -15147.379     -14987.167      116.03421      133038.24      3.948657     
      3810   303.53726     -15147.909     -14987.241     -2.9153316      133115.41      3.9697075    
      3820   303.96305     -15148.223     -14987.329     -120.10725      133191.34      3.9907473    
      3830   302.97797     -15147.832     -14987.46      -199.37748      133262.48      4.0107455    
      3840   301.35748     -15147.126     -14987.611     -249.71585      133326.42      4.0288505    
      3850   300.57877     -15146.882     -14987.779     -291.2733       133381.61      4.0443985    
      3860   300.50681     -15147.02      -14987.955     -321.00181      133426.88      4.0568387    
      3870   300.40735     -15147.154     -14988.143     -342.55282      133461.4       4.0659094    
      3880   300.28878     -15147.269     -14988.32      -346.15665      133484.72      4.0716526    
      3890   299.88627     -15147.261     -14988.525     -347.33189      133496.84      4.0743292    
      3900   299.21587     -15147.108     -14988.727     -331.68654      133497.95      4.0742339    
      3910   298.43562     -15146.898     -14988.93      -310.15518      133488.65      4.0716764    
      3920   297.19954     -15146.43      -14989.116     -275.69596      133469.81      4.0669057    
      3930   295.36392     -15145.632     -14989.29      -216.20915      133442.67      4.060188     
      3940   294.08331     -15145.082     -14989.418     -167.74852      133409.03      4.0518835    
      3950   294.84614     -15145.563     -14989.495     -123.21782      133370.56      4.0422635    
      3960   296.531       -15146.488     -14989.528     -77.210261      133328.75      4.0315272    
      3970   297.92371     -15147.209     -14989.512     -23.746454      133285.11      4.019869     
      3980   299.61746     -15148.084     -14989.49       34.500181      133241.31      4.0075863    
      3990   301.39432     -15148.969     -14989.435      91.209623      133199.11      3.9951888    
      4000   301.79859     -15149.141     -14989.393      165.78794      133160.33      3.9833887    
      4010   300.80372     -15148.576     -14989.355      242.58031      133127.24      3.9729189    
      4020   300.01852     -15148.115     -14989.309      289.72277      133102.01      3.9643462    
      4030   300.40959     -15148.286     -14989.273      303.29565      133086.01      3.9579466    
      4040   301.51581     -15148.817     -14989.219      281.22932      133079.54      3.953801     
      4050   302.0481      -15149.064     -14989.184      248.15537      133081.87      3.9518808    
      4060   301.28268     -15148.626     -14989.151      226.64532      133091.94      3.952165     
      4070   300.32558     -15148.109     -14989.141      204.2488       133108.95      3.9546324    
      4080   300.05305     -15147.955     -14989.131      160.53054      133132.02      3.9592935    
      4090   299.46733     -15147.628     -14989.114      120.06943      133159.84      3.9661334    
      4100   298.05866     -15146.854     -14989.085      67.987987      133191.05      3.9751282    
      4110   296.99242     -15146.244     -14989.04       17.45322       133224.08      3.9860482    
      4120   297.03669     -15146.182     -14988.954     -47.862279      133257.24      3.9983535    
      4130   297.13149     -15146.108     -14988.831     -107.38817      133288.55      4.0112326    
      4140   296.47484     -15145.6       -14988.669     -144.10124      133316.24      4.0238781    
      4150   295.63977     -15144.949     -14988.461     -161.17678      133339.21      4.0357446    
      4160   295.45876     -15144.584     -14988.192     -173.62985      133356.91      4.0465646    
      4170   296.28843     -15144.701     -14987.87      -177.54249      133369         4.0561739    
      4180   297.63229     -15145.04      -14987.497     -169.93927      133375.4       4.0644275    
      4190   299.31845     -15145.521     -14987.085     -150.20061      133376.44      4.0713261    
      4200   301.46442     -15146.234     -14986.663     -119.28405      133372.81      4.0771067    
      4210   303.41733     -15146.857     -14986.252     -77.642069      133365.48      4.0821078    
      4220   304.89307     -15147.268     -14985.881     -27.439271      133355.79      4.0867194    
      4230   305.94393     -15147.52      -14985.577      14.39473       133345.23      4.0914135    
      4240   305.8926      -15147.252     -14985.337      66.746436      133335.25      4.0967151    
      4250   304.29789     -15146.231     -14985.16       110.6661       133327.39      4.1031551    
      4260   302.06013     -15144.909     -14985.023      145.13145      133323.04      4.1111142    
      4270   300.34437     -15143.898     -14984.92       162.99678      133323.21      4.1207444    
      4280   299.21945     -15143.211     -14984.828      161.17535      133328.36      4.1319314    
      4290   298.8132      -15142.875     -14984.707      132.79622      133338.37      4.1443015    
      4300   299.26246     -15142.997     -14984.591      98.010921      133352.42      4.1572957    
      4310   299.75243     -15143.113     -14984.448      68.87322       133369.45      4.1703011    
      4320   299.93391     -15143.061     -14984.299      47.841071      133388.49      4.1827904    
      4330   300.15938     -15143.018     -14984.137      36.10139       133408.88      4.1943722    
      4340   300.21707     -15142.882     -14983.971      24.70373       133430.19      4.2048881    
      4350   299.83115     -15142.508     -14983.801      12.278641      133452.09      4.2142588    
      4360   299.7376      -15142.278     -14983.621     -12.442438      133474.15      4.2222979    
      4370   300.14534     -15142.301     -14983.428     -48.229905      133495.62      4.22865      
      4380   300.61715     -15142.344     -14983.221     -90.785559      133515.36      4.2329543    
      4390   300.87025     -15142.262     -14983.005     -120.37653      133532.12      4.2349964    
      4400   301.46644     -15142.362     -14982.79      -149.01977      133544.95      4.2347028    
      4410   303.02539     -15142.96      -14982.562     -173.65635      133553.01      4.2319958    
      4420   304.70782     -15143.65      -14982.362     -190.96592      133555.54      4.2267539    
      4430   304.86741     -15143.557     -14982.184     -165.09135      133552.17      4.2189758    
      4440   303.8092      -15142.855     -14982.043     -128.14935      133543.61      4.2089603    
      4450   303.45949     -15142.557     -14981.929     -95.272786      133531.04      4.1970546    
      4460   304.32253     -15142.938     -14981.853     -82.160794      133515.48      4.1834711    
      4470   305.11152     -15143.31      -14981.808     -56.396261      133497.5       4.1682635    
      4480   305.38611     -15143.461     -14981.814     -24.521313      133477.87      4.1516003    
      4490   305.98298     -15143.847     -14981.884      2.5127349      133457.59      4.1338698    
      4500   306.52335     -15144.287     -14982.038      27.581177      133437.49      4.1155779    
      4510   305.91977     -15144.213     -14982.283      64.802762      133418.39      4.0972972    
      4520   304.30586     -15143.715     -14982.64       111.50446      133401.45      4.0795855    
      4530   302.62634     -15143.276     -14983.09       143.59228      133388.03      4.0629094    
      4540   301.8223      -15143.391     -14983.63       152.65267      133379.09      4.0475776    
      4550   301.58312     -15143.872     -14984.238      155.82954      133374.97      4.0337662    
      4560   300.68166     -15144.038     -14984.881      143.08266      133375.66      4.0216954    
      4570   299.23461     -15143.916     -14985.525      126.17444      133380.81      4.0116597    
      4580   298.48432     -15144.139     -14986.145      96.550746      133389.84      4.0039544    
      4590   298.80476     -15144.873     -14986.71       70.60417       133401.87      3.9986549    
      4600   299.37722     -15145.677     -14987.21       35.567518      133416.02      3.9956063    
      4610   300.0319      -15146.46      -14987.647      2.9182099      133431.25      3.9943844    
      4620   301.49528     -15147.626     -14988.038     -26.018132      133446.52      3.9943686    
      4630   303.26323     -15148.919     -14988.396     -53.712664      133460.88      3.994942     
      4640   304.13566     -15149.73      -14988.745     -67.498325      133473.51      3.9956364    
      4650   304.16239     -15150.083     -14989.084     -70.162222      133483.99      3.9962071    
      4660   303.95392     -15150.328     -14989.439     -76.21992       133492.2       3.9965074    
      4670   303.27092     -15150.311     -14989.783     -76.889804      133497.96      3.9963567    
      4680   301.7059      -15149.82      -14990.121     -67.801511      133501.26      3.995592     
      4690   299.77034     -15149.102     -14990.427     -67.440287      133502.32      3.9941664    
      4700   298.13189     -15148.523     -14990.716     -70.982998      133501.25      3.9921297    
      4710   296.94904     -15148.134     -14990.953     -72.335527      133497.95      3.989679     
      4720   296.43847     -15148.047     -14991.136     -83.08467       133492.32      3.9872108    
      4730   296.37682     -15148.16      -14991.282     -105.93019      133483.99      3.9852573    
      4740   295.99573     -15148.054     -14991.377     -110.69599      133472.41      3.9843175    
      4750   295.06466     -15147.616     -14991.432     -98.901807      133457.42      3.9848797    
      4760   294.07509     -15147.104     -14991.445     -71.747547      133439.39      3.9874111    
      4770   293.52694     -15146.756     -14991.386     -42.315716      133419.13      3.9923361    
      4780   293.79157     -15146.795     -14991.285      0.4676061      133397.64      3.9999335    
      4790   294.44366     -15146.95      -14991.095      51.3767        133376.22      4.0103312    
      4800   294.58812     -15146.79      -14990.859      122.89593      133356.54      4.0235324    
      4810   294.61968     -15146.506     -14990.558      190.75885      133340.78      4.0394937    
      4820   295.92645     -15146.841     -14990.201      230.01506      133331.02      4.0580667    
      4830   298.67219     -15147.883     -14989.79       247.58372      133328.51      4.0790665    
      4840   301.87283     -15149.168     -14989.381      247.2043       133333.72      4.102293     
      4850   304.38283     -15150.112     -14988.996      235.95114      133346.59      4.1274508    
      4860   305.3731      -15150.311     -14988.67       237.66213      133366.8       4.1540763    
      4870   304.82028     -15149.75      -14988.402      238.77039      133394.29      4.1817361    
      4880   303.43644     -15148.82      -14988.205      225.64239      133428.96      4.2100144    
      4890   302.05245     -15147.943     -14988.061      183.74002      133470.31      4.2384704    
      4900   300.73549     -15147.12      -14987.935      133.29477      133517         4.2665677    
      4910   299.07578     -15146.129     -14987.822      74.717012      133567.34      4.2937154    
      4920   297.51934     -15145.183     -14987.7        13.183844      133619.52      4.3193979    
      4930   296.90726     -15144.717     -14987.558     -74.536523      133671.48      4.3431026    
      4940   296.91506     -15144.544     -14987.381     -167.28655      133720.53      4.3640977    
      4950   296.4799      -15144.112     -14987.179     -242.37764      133763.84      4.3815358    
      4960   295.35578     -15143.277     -14986.94      -289.06946      133799.15      4.3947089    
      4970   294.24385     -15142.41      -14986.661     -310.55778      133825.04      4.4031551    
      4980   293.76043     -15141.816     -14986.323     -319.16138      133840.91      4.4066206    
      4990   294.09841     -15141.6       -14985.927     -305.08986      133846.6       4.4050972    
      5000   294.72441     -15141.496     -14985.492     -280.20867      133842.61      4.3989359    
      5010   295.35813     -15141.357     -14985.018     -210.13816      133829.95      4.3888561    
      5020   296.1894      -15141.307     -14984.528     -133.1976       133810.76      4.3759918    
      5030   297.29644     -15141.419     -14984.054     -64.496743      133787.52      4.3614989    
      5040   298.46241     -15141.603     -14983.62      -12.654498      133762.37      4.3463009    
      5050   299.1545      -15141.598     -14983.249      34.745483      133737.01      4.3310423    
      5060   299.13009     -15141.282     -14982.947      62.565024      133712.86      4.3161043    
      5070   298.78839     -15140.855     -14982.701      77.029532      133690.8       4.3015822    
      5080   298.50982     -15140.51      -14982.502      96.692492      133671.35      4.287472     
      5090   298.52862     -15140.356     -14982.339      99.967869      133655.01      4.2739211    
      5100   298.82837     -15140.362     -14982.186      124.24939      133642.03      4.2612269    
      5110   299.16779     -15140.415     -14982.059      149.59984      133633.03      4.2498396    
      5120   299.90315     -15140.682     -14981.937      173.01118      133628.78      4.2400557    
      5130   301.33246     -15141.336     -14981.835      193.02497      133629.95      4.2319499    
      5140   302.82272     -15142.042     -14981.752      204.94862      133637.12      4.2254372    
      5150   303.55555     -15142.378     -14981.7        229.81508      133650.77      4.2204044    
      5160   303.52282     -15142.358     -14981.698      248.04036      133671.53      4.2169907    
      5170   303.0465      -15142.137     -14981.728      250.02217      133699.94      4.2156247    
      5180   302.57064     -15141.944     -14981.788      229.4968       133736         4.2168432    
      5190   302.29677     -15141.899     -14981.888      192.77833      133779.01      4.2209995    
      5200   302.2781      -15141.993     -14981.991      145.39369      133827.8       4.2281543    
      5210   302.60254     -15142.312     -14982.139      85.565791      133880.89      4.2381505    
      5220   302.73982     -15142.549     -14982.302      26.247391      133936.37      4.2506719    
      5230   301.83545     -15142.277     -14982.51      -19.385243      133992.35      4.265442     
      5240   299.84101     -15141.441     -14982.729     -35.466964      134047.48      4.2822255    
      5250   297.55167     -15140.451     -14982.951     -44.843174      134101.18      4.3008337    
      5260   295.49693     -15139.573     -14983.161     -46.439484      134153.17      4.3210902    
      5270   294.39689     -15139.153     -14983.323     -56.448326      134203.38      4.3429862    
      5280   294.88322     -15139.525     -14983.438     -79.568516      134251.47      4.3666228    
      5290   296.30361     -15140.346     -14983.506     -114.33179      134296.76      4.3919721    
      5300   297.43681     -15140.979     -14983.539     -142.27673      134338.18      4.4187721    
      5310   298.61276     -15141.607     -14983.546     -163.02892      134374.84      4.4466164    
      5320   300.21008     -15142.443     -14983.536     -185.40754      134406.06      4.4750521    
      5330   300.80373     -15142.744     -14983.523     -198.441        134431.19      4.503554     
      5340   299.43233     -15142.008     -14983.512     -169.8117       134449.97      4.5316084    
      5350   297.39709     -15140.911     -14983.493     -149.11096      134463.14      4.5588854    
      5360   296.86888     -15140.578     -14983.439     -145.29171      134471.38      4.5850892    
      5370   298.19666     -15141.181     -14983.339     -161.96883      134474.82      4.6097935    
      5380   299.97604     -15141.988     -14983.205     -189.85549      134473.01      4.6322812    
      5390   301.06762     -15142.405     -14983.044     -193.56031      134465.22      4.6516505    
      5400   301.18911     -15142.312     -14982.886     -180.65285      134451.38      4.6672709    
      5410   300.9977      -15142.037     -14982.713     -161.05757      134431.96      4.6788601    
      5420   301.29109     -15142.019     -14982.539     -134.29672      134407.65      4.6864208    
      5430   302.22238     -15142.314     -14982.342     -107.12503      134379.33      4.6901572    
      5440   303.36569     -15142.735     -14982.158     -74.507123      134347.92      4.6903482    
      5450   304.22212     -15143.017     -14981.986     -44.271066      134314.42      4.6873777    
      5460   304.43133     -15142.98      -14981.839     -3.5115903      134279.88      4.6816162    
      5470   303.70936     -15142.481     -14981.722      40.432754      134245.56      4.6734905    
      5480   302.40909     -15141.714     -14981.643      88.046267      134212.84      4.6635496    
      5490   301.52238     -15141.171     -14981.569      129.17883      134183.21      4.6523623    
      5500   301.2674      -15140.996     -14981.529      154.20951      134157.88      4.6403875    
      5510   301.24322     -15140.924     -14981.47       170.07913      134137.62      4.6279243    
      5520   301.23503     -15140.879     -14981.429      188.8067       134122.88      4.6152078    
      5530   301.02163     -15140.734     -14981.398      199.02086      134114.19      4.6025075    
      5540   300.43744     -15140.402     -14981.375      201.06787      134111.84      4.5899999    
      5550   300.26241     -15140.285     -14981.35       179.81934      134115.78      4.5777431    
      5560   300.87758     -15140.588     -14981.327      152.77493      134125.36      4.5657311    
      5570   301.25526     -15140.773     -14981.313      118.50688      134139.63      4.5540227    
      5580   300.49517     -15140.354     -14981.296      101.41027      134157.54      4.5427445    
      5590   299.30335     -15139.721     -14981.293      80.189945      134178.44      4.5320829    
      5600   299.37167     -15139.734     -14981.271      51.028465      134201.63      4.5221562    
      5610   300.24444     -15140.176     -14981.25       10.737426      134226.12      4.5128763    
      5620   300.28545     -15140.178     -14981.231     -8.8323951      134250.73      4.5039439    
      5630   299.06968     -15139.516     -14981.212     -23.77163       134274.8       4.4951514    
      5640   297.49796     -15138.65      -14981.179     -35.38342       134297.9       4.4863757    
      5650   296.23428     -15137.916     -14981.113     -54.46162       134319.59      4.4775967    
      5660   295.47506     -15137.407     -14981.006     -76.727882      134339.29      4.4689196    
      5670   295.7033      -15137.345     -14980.823     -106.83359      134356.33      4.4604298    
      5680   296.95246     -15137.777     -14980.594     -144.31154      134369.78      4.4520573    
      5690   298.50487     -15138.303     -14980.298     -180.17335      134378.48      4.4435975    
      5700   299.88513     -15138.705     -14979.97      -206.84553      134381.36      4.4348471    
      5710   301.14572     -15139.016     -14979.613     -212.57943      134377.65      4.425758     
      5720   302.41558     -15139.319     -14979.245     -203.88023      134367.24      4.4164697    
      5730   303.51554     -15139.556     -14978.899     -177.43737      134350.49      4.407181     
      5740   304.13953     -15139.563     -14978.576     -127.54069      134328.33      4.3980837    
      5750   304.75018     -15139.594     -14978.283     -69.940199      134302.37      4.3894875    
      5760   305.51052     -15139.75      -14978.037     -11.99635       134274.44      4.3818591    
      5770   305.99933     -15139.814     -14977.843      51.913507      134246.41      4.3758556    
      5780   306.09041     -15139.731     -14977.712      116.27961      134220.3       4.3722084    
      5790   305.7306      -15139.462     -14977.633      169.6696       134198.09      4.3715745    
      5800   304.58125     -15138.837     -14977.616      220.86604      134181.48      4.374432     
      5810   302.76546     -15137.906     -14977.646      269.68337      134172.02      4.3811511    
      5820   301.18426     -15137.133     -14977.71       295.53632      134171.16      4.3919301    
      5830   300.90161     -15137.061     -14977.787      286.72816      134179.54      4.4066286    
      5840   301.88494     -15137.684     -14977.89       252.46812      134196.8       4.4247839    
      5850   302.9865      -15138.404     -14978.027      211.42607      134221.83      4.4457022    
      5860   303.63271     -15138.922     -14978.203      159.33392      134253.19      4.4686078    
      5870   304.05681     -15139.39      -14978.446      108.43807      134289.25      4.4926524    
      5880   304.58278     -15139.984     -14978.763      40.213938      134328.29      4.5170026    
      5890   304.71472     -15140.458     -14979.166     -22.960056      134368.17      4.5407297    
      5900   303.89989     -15140.517     -14979.656     -69.11445       134406.89      4.5629867    
      5910   302.68597     -15140.448     -14980.23      -107.27635      134442.96      4.5830968    
      5920   301.66781     -15140.54      -14980.861     -152.28474      134475.13      4.6004837    
      5930   300.56562     -15140.611     -14981.516     -195.75603      134502.07      4.6147098    
      5940   298.78382     -15140.299     -14982.146     -223.26762      134522.5       4.6255357    
      5950   296.23758     -15139.528     -14982.724     -229.71389      134535.62      4.6329503    
      5960   293.68197     -15138.664     -14983.212     -227.58056      134541.33      4.6371162    
      5970   291.79859     -15138.031     -14983.576     -236.9364       134539.67      4.6383052    
      5980   290.7104      -15137.696     -14983.817     -246.65017      134530.49      4.6368519    
      5990   290.54034     -15137.729     -14983.94      -244.81031      134513.58      4.6331157    
      6000   291.53808     -15138.283     -14983.966     -240.56567      134489.03      4.6272943    
      6010   293.27055     -15139.142     -14983.908     -233.64329      134457.07      4.6193037    
      6020   294.90779     -15139.877     -14983.776     -201.52781      134418.11      4.6090472    
      6030   295.97193     -15140.283     -14983.619     -135.29305      134373.29      4.5966991    
      6040   296.8279      -15140.543     -14983.426     -55.735428      134324.71      4.5827465    
      6050   297.98749     -15140.938     -14983.208      10.217891      134274.87      4.5677998    
      6060   299.1364      -15141.324     -14982.985      74.965366      134225.94      4.5523127    
      6070   299.78684     -15141.454     -14982.771      134.1467       134179.95      4.5366268    
      6080   300.1932      -15141.462     -14982.564      188.41597      134138.75      4.5211013    
      6090   300.89466     -15141.643     -14982.373      220.61244      134103.96      4.5061623    
      6100   301.69628     -15141.895     -14982.201      223.45124      134076.46      4.4921667    
      6110   302.0038      -15141.926     -14982.069      225.83367      134056.38      4.4793416    
      6120   302.26857     -15141.951     -14981.954      212.19656      134043.61      4.4678216    
      6130   302.79349     -15142.153     -14981.879      193.40843      134037.66      4.4575637    
      6140   302.93444     -15142.189     -14981.84       185.44118      134037.91      4.448459     
      6150   302.75723     -15142.085     -14981.829      185.56999      134043.99      4.440511     
      6160   302.5662      -15142.002     -14981.848      194.77871      134055.88      4.4339861    
      6170   301.87931     -15141.686     -14981.895      203.71873      134073.77      4.4293335    
      6180   300.73328     -15141.137     -14981.952      204.055        134097.85      4.4269873    
      6190   299.5456      -15140.587     -14982.031      193.22999      134128.06      4.4271618    
      6200   298.71151     -15140.219     -14982.105      165.03199      134163.98      4.4297978    
      6210   298.56094     -15140.188     -14982.154      113.59129      134204.61      4.4346574    
      6220   299.09283     -15140.515     -14982.199      40.961136      134248.26      4.4413467    
      6230   300.06667     -15141.072     -14982.241     -35.337821      134292.66      4.4493206    
      6240   301.10718     -15141.655     -14982.273     -105.42523      134335.46      4.4579339    
      6250   301.98824     -15142.168     -14982.319     -164.32159      134374.45      4.4665441    
      6260   302.58226     -15142.568     -14982.405     -202.70558      134407.79      4.4746268    
      6270   302.51681     -15142.657     -14982.529     -224.87083      134434.33      4.4818799    
      6280   301.69374     -15142.404     -14982.712     -232.32704      134453.42      4.4881611    
      6290   300.34897     -15141.921     -14982.94      -209.71327      134464.99      4.4935352    
      6300   298.93277     -15141.47      -14983.239     -179.18549      134469.75      4.4983717    
      6310   297.77477     -15141.221     -14983.602     -155.25224      134468.69      4.5031914    
      6320   296.78487     -15141.122     -14984.028     -125.29879      134462.7       4.5083875    
      6330   296.02285     -15141.188     -14984.497     -104.67231      134452.77      4.5142068    
      6340   296.07522     -15141.719     -14985         -107.81896      134439.57      4.5205387    
      6350   296.79021     -15142.631     -14985.534     -116.85528      134423.09      4.5269428    
      6360   297.23451     -15143.411     -14986.079     -130.16718      134403.04      4.5328698    
      6370   296.68414     -15143.664     -14986.623     -130.82576      134379.07      4.5377936    
      6380   295.52594     -15143.578     -14987.15      -120.87025      134351.23      4.5413806    
      6390   294.3976      -15143.465     -14987.634     -115.81586      134319.79      4.5435206    
      6400   293.38423     -15143.343     -14988.049     -106.02535      134284.97      4.5442269    
      6410   292.31357     -15143.112     -14988.385     -82.887294      134247.2       4.5436383    
      6420   291.24803     -15142.787     -14988.624     -56.285598      134207.2       4.5419544    
      6430   290.70909     -15142.659     -14988.781     -27.46563       134165.85      4.5393801    
      6440   290.90836     -15142.81      -14988.826      9.7521213      134124.06      4.5361824    
      6450   291.68313     -15143.182     -14988.788      55.682384      134083.02      4.5326786    
      6460   292.82078     -15143.653     -14988.657      104.35632      134044.19      4.5291558    
      6470   294.06023     -15144.097     -14988.445      151.14592      134009.06      4.5257681    
      6480   295.20894     -15144.42      -14988.16       193.4843       133979.04      4.5225763    
      6490   295.73132     -15144.367     -14987.831      230.17075      133955.43      4.5195938    
      6500   295.29696     -15143.754     -14987.447      267.94655      133939.32      4.5167283    
      6510   294.96173     -15143.147     -14987.018      305.86031      133931.86      4.5138294    
      6520   295.97671     -15143.216     -14986.549      314.98991      133934.02      4.5108134    
      6530   298.29089     -15143.938     -14986.046      283.54689      133945.94      4.5076882    
      6540   300.69456     -15144.711     -14985.547      249.94748      133966.69      4.5044501    
      6550   302.17512     -15145.053     -14985.105      225.645        133995.13      4.5011554    
      6560   302.4144      -15144.794     -14984.72       202.68377      134030.38      4.4979183    
      6570   302.11388     -15144.315     -14984.4        174.60548      134071.6       4.4948896    
      6580   301.78044     -15143.886     -14984.147      136.69066      134117.84      4.4923109    
      6590   301.00328     -15143.262     -14983.935      102.2252       134167.93      4.4905394    
      6600   299.59898     -15142.348     -14983.764      62.615251      134220.7       4.4899274    
      6610   298.24784     -15141.486     -14983.618      23.70728       134274.9       4.4905739    
      6620   297.49731     -15140.936     -14983.464     -35.003788      134329.12      4.4922467    
      6630   297.27025     -15140.661     -14983.31      -101.49277      134381.56      4.4944851    
      6640   297.29063     -15140.506     -14983.144     -157.06581      134430.15      4.4967637    
      6650   297.63037     -15140.514     -14982.972     -196.46896      134473.2       4.4987777    
      6660   298.44552     -15140.766     -14982.792     -230.56608      134509.42      4.5003985    
      6670   299.70427     -15141.258     -14982.618     -259.68708      134537.83      4.5015378    
      6680   300.93191     -15141.748     -14982.459     -281.68027      134557.63      4.5020646    
      6690   301.69234     -15142.014     -14982.322     -284.24378      134568.25      4.5018388    
      6700   301.95112     -15142.049     -14982.22      -269.1317       134569.71      4.5008457    
      6710   302.05911     -15142.029     -14982.143     -252.04016      134562.58      4.4991728    
      6720   302.49909     -15142.21      -14982.091     -240.9585       134547.53      4.4968229    
      6730   303.48075     -15142.707     -14982.069     -234.68422      134524.98      4.4936313    
      6740   304.47397     -15143.252     -14982.088     -233.3193       134495.23      4.4893963    
      6750   304.97581     -15143.584     -14982.154     -221.18097      134458.52      4.4839995    
      6760   305.01487     -15143.715     -14982.264     -192.96729      134415.34      4.4775031    
      6770   304.71541     -15143.724     -14982.432     -151.24945      134366.66      4.4702265    
      6780   304.07439     -15143.598     -14982.645     -101.55334      134313.84      4.4626749    
      6790   303.20074     -15143.376     -14982.886     -44.36923       134258.53      4.4553776    
      6800   302.26507     -15143.154     -14983.159      15.273917      134202.57      4.4488367    
      6810   301.70449     -15143.15      -14983.452      66.335845      134147.85      4.4434417    
      6820   301.87081     -15143.531     -14983.745      112.26159      134095.96      4.4395055    
      6830   302.69048     -15144.288     -14984.068      135.24882      134048.22      4.4373186    
      6840   303.64445     -15145.125     -14984.4        157.52119      134005.35      4.4370872    
      6850   303.7623      -15145.547     -14984.759      188.75191      133968.02      4.4390982    
      6860   302.72481     -15145.384     -14985.145      231.63194      133937.17      4.4437229    
      6870   301.18827     -15144.961     -14985.536      279.98731      133914.05      4.4513439    
      6880   299.76849     -15144.573     -14985.9        321.45667      133900         4.4622414    
      6890   299.04734     -15144.533     -14986.241      339.8062       133896.19      4.4764818    
      6900   299.09428     -15144.855     -14986.539      333.92479      133903.06      4.4937916    
      6910   299.03031     -15145.061     -14986.778      303.11853      133920.3       4.5135691    
      6920   298.56367     -15145.023     -14986.988      250.29719      133946.81      4.5349521    
      6930   298.18349     -15144.977     -14987.142      184.20754      133980.8       4.5569073    
      6940   298.01003     -15145         -14987.257      103.88353      134020.09      4.5784297    
      6950   297.90116     -15145.009     -14987.324      5.4426057      134062.04      4.5985811    
      6960   297.58309     -15144.877     -14987.36      -70.891993      134103.66      4.6165715    
      6970   296.91498     -15144.529     -14987.366     -131.37487      134142.47      4.632016     
      6980   296.16752     -15144.104     -14987.336     -183.57163      134176.56      4.6448195    
      6990   295.66636     -15143.776     -14987.274     -213.31423      134204.4       4.655031     
      7000   295.28786     -15143.479     -14987.177     -226.13499      134225.15      4.6627238    
      7010   295.09302     -15143.26      -14987.061     -222.8524       134238.46      4.6679503    
      7020   295.34636     -15143.232     -14986.9       -211.19016      134244.53      4.6707691    
      7030   295.70638     -15143.229     -14986.705     -190.42857      134243.82      4.6712764    
      7040   295.77819     -15143.062     -14986.501     -158.82354      134237.1       4.6695424    
      7050   296.19832     -15143.06      -14986.276     -126.79923      134225.44      4.665633     
      7060   297.4281      -15143.461     -14986.026     -112.35335      134209.83      4.6596723    
      7070   298.77857     -15143.925     -14985.775     -100.89986      134190.84      4.6517993    
      7080   299.70179     -15144.16      -14985.522     -91.8628        134168.84      4.6421624    
      7090   300.2341      -15144.211     -14985.291     -74.341705      134144.21      4.6308736    
      7100   300.55877     -15144.168     -14985.076     -55.715412      134117.48      4.6181036    
      7110   300.68436     -15144.045     -14984.887     -23.687518      134089.33      4.6042192    
      7120   300.65866     -15143.854     -14984.709     -2.1468671      134060.66      4.5897722    
      7130   300.81065     -15143.782     -14984.557      16.749386      134032.21      4.575206     
      7140   301.01991     -15143.738     -14984.402      42.214904      134004.6       4.5607796    
      7150   300.57113     -15143.369     -14984.271      77.284474      133978.63      4.5466885    
      7160   299.12578     -15142.482     -14984.149      114.85203      133955.4       4.5331672    
      7170   297.19099     -15141.333     -14984.024      149.62308      133936.02      4.5205186    
      7180   295.65914     -15140.363     -14983.865      170.41934      133921.51      4.5090396    
      7190   295.59197     -15140.132     -14983.669      158.11112      133912.45      4.4988756    
      7200   296.88262     -15140.574     -14983.428      125.80328      133908.42      4.4899426    
      7210   298.39341     -15141.107     -14983.162      88.526287      133908.34      4.4821574    
      7220   299.1941      -15141.237     -14982.868      66.242335      133911.07      4.4755996    
      7230   299.10839     -15140.896     -14982.572      74.411104      133915.97      4.4704739    
      7240   298.62302     -15140.327     -14982.26       83.638465      133923.12      4.4671807    
      7250   298.48608     -15139.941     -14981.947      98.622499      133932.82      4.4661372    
      7260   299.10183     -15139.94      -14981.62       109.8613       133945.48      4.4677444    
      7270   300.52707     -15140.369     -14981.294      123.92209      133961.42      4.4722963    
      7280   302.26766     -15140.977     -14980.98       129.28027      133981.02      4.4799916    
      7290   303.77868     -15141.49      -14980.694      134.90316      134004.47      4.4908929    
      7300   305.12669     -15141.988     -14980.479      111.75353      134031.78      4.5048991    
      7310   306.88755     -15142.759     -14980.317      74.230032      134062.31      4.521745     
      7320   308.66529     -15143.624     -14980.241      19.482022      134094.77      4.5410364    
      7330   309.2744      -15143.958     -14980.253     -19.898988      134127.5       4.5621979    
      7340   308.38724     -15143.605     -14980.37      -49.901019      134159.27      4.5845599    
      7350   306.96753     -15143.049     -14980.565     -64.920894      134189.15      4.6074229    
      7360   305.72785     -15142.639     -14980.811     -76.697191      134216.65      4.6302401    
      7370   304.90885     -15142.517     -14981.122     -87.926845      134241.41      4.6526098    
      7380   304.7019      -15142.745     -14981.46      -108.22836      134263.05      4.6742196    
      7390   304.87745     -15143.201     -14981.823     -137.61743      134280.97      4.6947389    
      7400   305.03417     -15143.662     -14982.201     -163.32418      134294.31      4.7137689    
      7410   304.86425     -15143.957     -14982.586     -184.59514      134302.29      4.7309141    
      7420   304.57089     -15144.172     -14982.956     -184.7151       134304.35      4.7458365    
      7430   304.587       -15144.526     -14983.302     -173.23615      134300.54      4.7583561    
      7440   305.02105     -15145.066     -14983.613     -159.99454      134291.29      4.7683962    
      7450   305.47788     -15145.584     -14983.888     -141.10906      134277.07      4.7758961    
      7460   305.73837     -15145.982     -14984.149     -115.3898       134258.54      4.7808749    
      7470   305.40265     -15146.041     -14984.385     -80.318958      134236.61      4.7833809    
      7480   304.08591     -15145.585     -14984.626     -40.442471      134212.39      4.78343      
      7490   302.29977     -15144.865     -14984.852      9.4930633      134187.18      4.7810224    
      7500   300.6507      -15144.207     -14985.067      49.246157      134162.48      4.7762782    
      7510   299.43621     -15143.762     -14985.264      80.863771      134139.57      4.769338     
      7520   299.02774     -15143.708     -14985.427      98.701918      134119.42      4.7604325    
      7530   299.27269     -15143.996     -14985.585      103.2891       134102.54      4.7499867    
      7540   299.60775     -15144.309     -14985.72       97.09964       134089.06      4.7385803    
      7550   299.74122     -15144.512     -14985.853      84.942143      134078.75      4.7268518    
      7560   299.93581     -15144.741     -14985.979      66.383835      134071.21      4.7153813    
      7570   300.28767     -15145.056     -14986.107      39.700649      134065.81      4.7045732    
      7580   300.6721      -15145.385     -14986.233      23.698911      134061.75      4.69462      
      7590   300.92438     -15145.659     -14986.374     -2.2948877      134058.43      4.6855736    
      7600   301.21905     -15145.96      -14986.519     -21.781211      134055.09      4.6772882    
      7610   301.68227     -15146.363     -14986.677     -53.760909      134051.04      4.6695228    
      7620   302.20557     -15146.818     -14986.855     -72.302473      134045.35      4.6619236    
      7630   302.54508     -15147.213     -14987.07      -79.649178      134037.43      4.6541284    
      7640   302.48292     -15147.415     -14987.305     -75.790479      134027.07      4.6458397    
      7650   301.58185     -15147.215     -14987.581     -52.061992      134014.45      4.6368932    
      7660   299.75794     -15146.547     -14987.879     -18.641225      134000.28      4.6273556    
      7670   297.54616     -15145.665     -14988.168      14.91674       133985.66      4.6174632    
      7680   295.80584     -15145.014     -14988.438      33.625792      133971.6       4.607454     
      7690   294.94442     -15144.791     -14988.671      24.806593      133958.62      4.5974839    
[...]
     13010   654.26724     -14942.916     -14596.599      1919.7861      137894.68      6.3750979    
     13020   654.36243     -14941.45      -14595.083      1932.2888      137876.59      6.3682712    
     13030   654.09788     -14939.797     -14593.57       1964.1239      137849.46      6.3590978    
     13040   654.16024     -14938.318     -14592.058      2018.0406      137814.48      6.3482995    
     13050   653.51644     -14936.443     -14590.524      2090.8971      137772.74      6.3364918    
     13060   652.53916     -14934.369     -14588.967      2197.18        137725.18      6.3240201    
     13070   653.20003     -14933.125     -14587.373      2282.0986      137672.52      6.3108486    
     13080   656.53695     -14933.268     -14585.749      2347.7443      137615.05      6.2966194    
     13090   661.19246     -14934.067     -14584.085      2415.1285      137553.12      6.2810861    
     13100   664.756       -14934.289     -14582.42       2512.0103      137487.84      6.2644547    
     13110   666.39828     -14933.508     -14580.77       2631.5735      137421.27      6.2474152    
     13120   666.74528     -14932.041     -14579.119      2761.4592      137356.08      6.2309733    
     13130   666.77553     -14930.436     -14577.498      2868.0805      137294.99      6.2160311    
     13140   667.33549     -14929.094     -14575.86       2955.4413      137240.22      6.2030279    
     13150   668.73684     -14928.203     -14574.227      3005.4465      137193.44      6.1921269    
     13160   670.92881     -14927.717     -14572.581      3030.8502      137155.85      6.1835373    
     13170   672.82986     -14927.087     -14570.944      3039.166       137128.23      6.1775007    
     13180   674.43509     -14926.309     -14569.316      3032.4822      137110.86      6.1740916    
     13190   676.46549     -14925.762     -14567.695      3024.3777      137103.64      6.1733031    
     13200   679.38244     -14925.712     -14566.101      3009.9296      137106.31      6.1751396    
     13210   682.91071     -14926.007     -14564.528      3010.908       137118.43      6.1795548    
     13220   685.64192     -14925.91      -14562.986      3010.3961      137139.46      6.1864548    
     13230   686.18127     -14924.707     -14561.497      3042.6576      137168.83      6.195668     
     13240   685.93305     -14923.123     -14560.045      3064.5197      137205.94      6.2069776    
     13250   687.07154     -14922.301     -14558.62       3060.9049      137249.83      6.2200897    
     13260   689.82577     -14922.35      -14557.211      3014.8979      137299.11      6.2346744    
     13270   692.37412     -14922.311     -14555.823      2975.8022      137352.07      6.2504663    
     13280   693.40963     -14921.504     -14554.468      2945.4151      137407.26      6.2671707    
     13290   692.72969     -14919.819     -14553.143      2938.9422      137463.52      6.2843134    
     13300   691.43095     -14917.82      -14551.832      2941.1056      137520.25      6.3014653    
     13310   690.9245      -14916.239     -14550.519      2929.7708      137577.27      6.318454     
     13320   692.59818     -14915.802     -14549.195      2889.0306      137634.5       6.3353845    
     13330   696.07157     -14916.297     -14547.852      2826.6336      137691.88      6.3525707    
     13340   699.47041     -14916.753     -14546.509      2756.3682      137749.07      6.3702227    
     13350   702.24281     -14916.891     -14545.179      2705.557       137805.49      6.3882343    
     13360   704.02523     -14916.534     -14543.879      2690.0599      137860.79      6.4063029    
     13370   703.53304     -14915.016     -14542.621      2708.761       137914.99      6.424137     
     13380   701.58849     -14912.743     -14541.378      2740.5198      137968.6       6.4416405    
     13390   701.68824     -14911.561     -14540.143      2759.2657      138022.33      6.4588131    
     13400   702.96897     -14910.99      -14538.894      2773.4688      138076.43      6.4755373    
     13410   701.55207     -14908.974     -14537.628      2789.2218      138130.65      6.4914256    
     13420   698.76535     -14906.202     -14536.331      2816.9124      138184.62      6.5059701    
     13430   697.72899     -14904.303     -14534.981      2825.228       138237.86      6.5186973    
     13440   698.64256     -14903.363     -14533.558      2823.8056      138289.81      6.5295879    
     13450   700.83186     -14903.027     -14532.063      2815.4614      138340.11      6.5391666    
     13460   704.38123     -14903.359     -14530.516      2782.1644      138388.63      6.5481994    
     13470   709.01325     -14904.223     -14528.928      2735.4358      138435.05      6.557348     
     13480   712.58529     -14904.523     -14527.338      2701.9412      138478.79      6.5670835    
     13490   713.48356     -14903.412     -14525.751      2699.5053      138519.34      6.5776505    
     13500   712.10103     -14901.129     -14524.199      2725.5647      138556.7       6.5891217    
     13510   710.8222      -14898.893     -14522.64       2756.7051      138591.3       6.6013537    
     13520   711.11284     -14897.483     -14521.077      2769.0669      138623.55      6.6138869    
     13530   711.38992     -14896.026     -14519.473      2774.5521      138653.57      6.6262934    
     13540   711.12103     -14894.252     -14517.841      2769.9779      138681.39      6.6385997    
     13550   711.34021     -14892.702     -14516.175      2752.5719      138707.06      6.6511421    
     13560   712.40779     -14891.561     -14514.469      2730.7823      138730.75      6.6642126    
     13570   714.2824      -14890.83      -14512.746      2708.904       138752.7       6.6778983    
     13580   716.55308     -14890.263     -14510.977      2690.4005      138773.09      6.6920306    
     13590   719.1527      -14889.854     -14509.192      2674.8413      138791.95      6.7061994    
     13600   722.42712     -14889.801     -14507.405      2682.6713      138809.16      6.7198713    
     13610   725.56716     -14889.686     -14505.628      2729.1242      138824.79      6.7327399    
     13620   727.39871     -14888.914     -14503.887      2807.5828      138839.49      6.7449867    
     13630   727.88879     -14887.447     -14502.161      2906.8975      138854.27      6.7571198    
     13640   728.49418     -14886.07      -14500.464      2982.8681      138870.63      6.7698391    
     13650   729.85476     -14885.104     -14498.777      3024.0448      138890.2       6.7837842    
     13660   731.75189     -14884.439     -14497.108      3031.0695      138914.22      6.7993181    
     13670   734.22242     -14884.088     -14495.449      3015.7399      138943.34      6.8165286    
     13680   737.60178     -14884.235     -14493.808      2956.3636      138977.44      6.835228     
     13690   740.82553     -14884.32      -14492.186      2885.9807      139015.38      6.8549235    
     13700   743.17092     -14883.988     -14490.613      2835.8986      139055.47      6.8750418    
     13710   744.97358     -14883.416     -14489.086      2803.3624      139096.46      6.8951705    
     13720   746.79918     -14882.897     -14487.601      2772.8446      139137.87      6.9150812    
     13730   749.23619     -14882.76      -14486.174      2740.1168      139179.82      6.934609     
     13740   751.84763     -14882.769     -14484.8        2715.0083      139222.61      6.9536038    
     13750   753.16362     -14882.151     -14483.487      2707.5946      139266.4       6.9719701    
     13760   752.82489     -14880.707     -14482.222      2714.4139      139311.09      6.9896238    
     13770   752.02762     -14879.056     -14480.992      2720.2175      139356.28      7.006533     
     13780   751.86552     -14877.776     -14479.799      2717.3938      139401.29      7.0227788    
     13790   752.01225     -14876.662     -14478.607      2720.9646      139445.13      7.0384516    
     13800   751.44931     -14875.173     -14477.415      2722.6243      139486.86      7.0536653    
     13810   750.57125     -14873.504     -14476.211      2711.4364      139525.73      7.0684433    
     13820   750.42481     -14872.195     -14474.98       2683.8445      139560.98      7.0826276    
     13830   751.34812     -14871.412     -14473.708      2640.1024      139592.04      7.0959237    
     13840   753.32843     -14871.156     -14472.404      2597.7176      139618.68      7.1079813    
     13850   755.42278     -14870.928     -14471.067      2578.9016      139640.84      7.1185331    
     13860   756.85041     -14870.323     -14469.707      2582.0926      139658.97      7.1275356    
     13870   758.11971     -14869.62      -14468.332      2585.0387      139673.65      7.1350426    
     13880   760.2342      -14869.361     -14466.954      2583.791       139685.24      7.1411951    
     13890   762.35677     -14869.092     -14465.561      2589.5598      139693.85      7.146358     
     13900   763.63015     -14868.381     -14464.176      2580.5242      139699.35      7.1509701    
     13910   765.86106     -14868.18      -14462.794      2570.734       139701.51      7.1554142    
     13920   767.69229     -14867.783     -14461.428      2569.3564      139699.93      7.1598732    
     13930   767.90152     -14866.541     -14460.075      2569.6356      139694.21      7.1642881    
     13940   768.54712     -14865.531     -14458.724      2585.0373      139683.94      7.1682521    
     13950   768.93298     -14864.408     -14457.396      2629.0321      139668.9       7.1712065    
     13960   767.12852     -14862.122     -14456.065      2688.3549      139649.41      7.1727971    
     13970   763.9723      -14859.089     -14454.703      2769.8091      139626.28      7.1729778    
     13980   762.42819     -14856.862     -14453.294      2857.6883      139600.77      7.1720408    
     13990   763.23102     -14855.8       -14451.806      2943.3676      139574.5       7.1705898    
     14000   764.11817     -14854.703     -14450.24       3035.9525      139549.39      7.169426     
     14010   764.29634     -14853.167     -14448.609      3126.3212      139527.26      7.1691674    
     14020   764.88673     -14851.795     -14446.925      3216.1468      139509.58      7.1702698    
     14030   767.03331     -14851.182     -14445.175      3297.2759      139497.42      7.1732171    
     14040   770.76193     -14851.362     -14443.382      3351.366       139491.47      7.1784223    
     14050   774.93119     -14851.761     -14441.574      3380.0463      139492.33      7.1860298    
     14060   778.38063     -14851.773     -14439.761      3400.867       139500.46      7.1958862    
     14070   780.96127     -14851.36      -14437.982      3406.0297      139516.01      7.2078128    
     14080   783.70117     -14851.068     -14436.239      3393.1931      139538.69      7.2217803    
     14090   786.4394      -14850.804     -14434.525      3388.0933      139567.91      7.2377375    
     14100   787.88877     -14849.91      -14432.865      3389.819       139603.14      7.2556618    
     14110   788.38146     -14848.545     -14431.239      3401.1606      139643.97      7.275516     
     14120   789.68353     -14847.642     -14429.646      3404.0779      139690.01      7.2973613    
     14130   791.72818     -14847.159     -14428.081      3387.6812      139740.6       7.3213578    
     14140   793.97791     -14846.809     -14426.54       3388.1416      139794.95      7.3475708    
     14150   795.40017     -14846.05      -14425.028      3423.7762      139852.26      7.3757464    
     14160   793.40003     -14843.516     -14423.553      3478.7169      139912         7.4053501    
     14170   789.24651     -14839.846     -14422.082      3541.901       139973.94      7.435799     
     14180   788.69734     -14838.046     -14420.572      3543.291       140037.8       7.466521     
     14190   793.41079     -14838.979     -14419.011      3457.3367      140102.66      7.4968352    
     14200   799.80693     -14840.782     -14417.428      3327.0382      140166.44      7.5261036    
     14210   803.44041     -14841.121     -14415.844      3214.181       140226.72      7.5539796    
     14220   804.55055     -14840.172     -14414.307      3127.2518      140281.64      7.5802515    
     14230   804.8793      -14838.848     -14412.809      3062.0652      140330         7.6043921    
     14240   805.07852     -14837.486     -14411.342      3003.0244      140371.31      7.6256493    
     14250   806.13138     -14836.608     -14409.907      2946.5329      140405.37      7.6434509    
     14260   807.90922     -14836.135     -14408.492      2922.9323      140432.19      7.6578761    
     14270   808.57122     -14835.08      -14407.087      2933.9551      140452.1       7.6695132    
     14280   808.15825     -14833.488     -14405.714      2957.4594      140465.74      7.6789501    
     14290   808.10096     -14832.072     -14404.328      2979.0412      140473.75      7.6867015    
     14300   808.61266     -14830.96      -14402.945      3039.8017      140476.67      7.6934497    
     14310   809.27331     -14829.908     -14401.543      3105.5241      140475.43      7.7000012    
     14320   808.9655      -14828.326     -14400.124      3182.4791      140471.04      7.7069686    
     14330   806.93407     -14825.807     -14398.68       3271.9488      140464.72      7.7146574    
     14340   804.24681     -14822.89      -14397.185      3344.3846      140457.77      7.7230468    
     14350   802.35197     -14820.32      -14395.619      3405.9235      140451.14      7.731978     
     14360   801.03892     -14817.978     -14393.971      3466.1789      140445.48      7.7412644    
     14370   800.67725     -14816.046     -14392.231      3516.7452      140441.53      7.7507153    
     14380   801.78112     -14814.799     -14390.4        3554.3897      140440.15      7.7602285    
     14390   803.91291     -14814.018     -14388.49       3580.0948      140441.95      7.7697695    
     14400   807.8568      -14814.146     -14386.531      3549.5712      140447         7.7791923    
     14410   815.20973     -14816.048     -14384.541      3448.8817      140454.82      7.7882682    
     14420   823.75924     -14818.605     -14382.573      3347.9621      140464.27      7.7969566    
     14430   830.35625     -14820.197     -14380.673      3266.5584      140473.75      7.8054083    
     14440   834.1302      -14820.409     -14378.887      3239.0475      140481.59      7.8135801    
     14450   835.94991     -14819.696     -14377.211      3251.2086      140486.43      7.8211924    
     14460   837.70104     -14819.061     -14375.648      3269.4307      140487.51      7.8280611    
     14470   839.49121     -14818.533     -14374.173      3282.3264      140484.72      7.8342976    
     14480   838.86571     -14816.812     -14372.784      3348.7135      140478.75      7.8403106    
     14490   835.4992      -14813.695     -14371.449      3451.2813      140471.12      7.8466499    
     14500   831.08057     -14810.057     -14370.149      3576.3341      140463.92      7.8536221    
     14510   827.1247      -14806.633     -14368.819      3689.9722      140459.29      7.8612483    
     14520   824.64483     -14803.913     -14367.412      3795.5144      140459.17      7.8696       
     14530   824.66427     -14802.422     -14365.91       3860.3777      140465.17      7.8789905    
     14540   827.71589     -14802.455     -14364.328      3860.6348      140478.19      7.8896927    
     14550   832.75498     -14803.452     -14362.658      3823.5087      140498.08      7.9016892    
     14560   836.77483     -14803.88      -14360.958      3792.6567      140524.03      7.9147976    
     14570   838.47795     -14803.072     -14359.249      3742.0366      140555.08      7.9287823    
     14580   839.64107     -14801.991     -14357.552      3718.2976      140590.06      7.9433728    
     14590   841.3147      -14801.183     -14355.858      3677.9554      140627.87      7.9584801    
     14600   841.89418     -14799.818     -14354.187      3648.9625      140667.42      7.9741767    
     14610   840.02896     -14797.162     -14352.518      3659.8801      140707.9       7.9906173    
     14620   837.26913     -14794.011     -14350.827      3705.8441      140748.89      8.0080064    
     14630   836.23214     -14791.734     -14349.1        3727.0057      140790.06      8.0263035    
     14640   837.57777     -14790.662     -14347.315      3717.2847      140830.85      8.0450676    
     14650   841.33535     -14790.828     -14345.492      3686.1488      140870.7       8.0637862    
     14660   846.23884     -14791.562     -14343.631      3664.7566      140909.34      8.0822666    
     14670   850.64513     -14792.053     -14341.789      3667.5112      140946.9       8.1007013    
     14680   855.46586     -14792.793     -14339.978      3673.5779      140983.76      8.1192969    
     14690   859.8878      -14793.389     -14338.233      3674.7531      141020.12      8.1380133    
     14700   860.34362     -14791.942     -14336.545      3702.3623      141056.35      8.1567421    
     14710   859.79618     -14790.053     -14334.945      3708.0742      141092.81      8.1752902    
     14720   862.70594     -14790.024     -14333.377      3681.3718      141129.58      8.193518     
     14730   868.21686     -14791.414     -14331.849      3599.9239      141166.36      8.2113005    
     14740   870.85788     -14791.344     -14330.381      3557.0012      141202.14      8.2280925    
     14750   871.04892     -14790.045     -14328.981      3547.3476      141235.95      8.2435001    
     14760   871.07284     -14788.729     -14327.652      3552.3499      141266.8       8.2577654    
     14770   870.88844     -14787.344     -14326.365      3562.0652      141293.95      8.2717091    
     14780   870.89101     -14786.09      -14325.11       3585.4432      141316.97      8.2860238    
     14790   869.79589     -14784.271     -14323.871      3621.0305      141335.74      8.3009049    
     14800   867.55753     -14781.832     -14322.616      3664.7453      141350.21      8.3161378    
     14810   867.18466     -14780.356     -14321.338      3696.5835      141360.48      8.3314042    
     14820   869.15681     -14780.077     -14320.015      3719.4617      141366.81      8.3464261    
     14830   871.26554     -14779.835     -14318.656      3751.3813      141369.8       8.3611352    
     14840   872.32609     -14779.002     -14317.262      3764.4058      141370.7       8.375794     
     14850   873.12203     -14778.022     -14315.861      3803.0703      141371.17      8.3906635    
     14860   874.56168     -14777.347     -14314.423      3817.7104      141372.97      8.4058424    
     14870   877.00079     -14777.189     -14312.975      3805.1429      141377.04      8.4213097    
     14880   880.82247     -14777.762     -14311.525      3779.7229      141383.26      8.4370984    
     14890   884.8814      -14778.46      -14310.074      3764.9094      141391.35      8.4534166    
     14900   887.12524     -14778.244     -14308.671      3759.3265      141401.49      8.4705748    
     14910   886.43737     -14776.528     -14307.319      3799.0191      141414.49      8.4887203    
     14920   882.74575     -14773.247     -14305.992      3857.0584      141431.83      8.5078511    
     14930   878.70669     -14769.781     -14304.664      3904.1448      141455.26      8.5281177    
     14940   878.0676      -14768.058     -14303.279      3906.349       141486.02      8.5499935    
     14950   880.75885     -14768.031     -14301.828      3880.5722      141524.29      8.5741846    
     14960   884.57