LAMMPS (29 Sep 2021 - Update 3)
OMP_NUM_THREADS environment is not set. Defaulting to 1 thread. (src/comm.cpp:98)
  using 1 OpenMP thread(s) per MPI task
units	metal
atom_style	full

read_data	mixed.data
Reading data file ...
  orthogonal box = (0.0000000 0.0000000 0.0000000) to (18.492711 18.368364 83.044081)
  2 by 1 by 8 MPI processor grid
  reading atoms ...
  864 atoms
Finding 1-2 1-3 1-4 neighbors ...
  special bond factors lj:    0        0        0       
  special bond factors coul:  0        0        0       
     0 = max # of 1-2 neighbors
     0 = max # of 1-3 neighbors
     0 = max # of 1-4 neighbors
     1 = max # of special neighbors
  special bonds CPU = 0.001 seconds
  read_data CPU = 0.010 seconds

pair_style	quip
pair_coeff	* * /ocean/projects/cts180021p/wuziqi/clease/mint-PD/PhaseDiagram-Clease/Liquid/GAP_potential/gap_LiKCl.xml "Potential xml_label=GAP_2021_9_27_0_1_17_37_618" 17 19 3

neighbor	0.3 bin
neigh_modify	delay 10

timestep	0.001
compute	msd all msd
thermo_style	custom step temp pe etotal press vol c_msd[4]
thermo	10
dump	1 all custom 10 xyz-mix.dump type id x y z
dump	2 all custom 10 force-mix.dump type id fx fy fz

fix     1 all nve
run     2000
Neighbor list info ...
  update every 1 steps, delay 10 steps, check yes
  max neighbors/atom: 2000, page size: 100000
  master list distance cutoff = 6.22
  ghost atom cutoff = 6.22
  binsize = 3.11, bins = 6 6 27
  1 neighbor lists, perpetual/occasional/extra = 1 0 0
  (1) pair quip, perpetual
      attributes: full, newton on
      pair build: full/bin
      stencil: full/bin/3d
      bin: standard
Per MPI rank memory allocation (min/avg/max) = 8.888 | 8.895 | 8.900 Mbytes
Step Temp PotEng TotEng Press Volume c_msd[4] 
       0            0   -7973.6696   -7973.6696   -2874.2394    28208.484            0 
      10    41.278351   -7978.2784   -7973.6737   -2959.4518    28208.484 0.00023887099 
      20    117.01377   -7986.7312   -7973.6782   -2971.9336    28208.484 0.0029537371 
      30    174.81925   -7993.1785   -7973.6771   -2824.2466    28208.484  0.010160551 
      40    218.44962    -7998.045   -7973.6766   -2720.6333    28208.484  0.020641735 
      50    256.00476   -8002.2349   -7973.6771   -2700.3711    28208.484  0.032489043 
      60    281.23595   -8005.0509   -7973.6786   -2720.3164    28208.484  0.045481137 
      70    279.84796   -8004.8936   -7973.6762   -2497.2427    28208.484  0.060875411 
      80    275.57271   -8004.4166   -7973.6761   -2346.6282    28208.484  0.078472831 
      90    275.14134   -8004.3684    -7973.676   -2375.5075    28208.484  0.097756432 
     100    277.97329   -8004.6843   -7973.6759   -2450.2098    28208.484   0.11838341 
     110    284.32121   -8005.3929   -7973.6764   -2585.3887    28208.484    0.1397563 
     120    288.42818   -8005.8514   -7973.6768   -2555.7238    28208.484   0.16133553 
     130    287.27066   -8005.7216   -7973.6761   -2379.8786    28208.484   0.18293983 
     140    286.58177   -8005.6454   -7973.6767   -2199.4073    28208.484   0.20440576 
     150    283.09159    -8005.256   -7973.6767   -2058.8623    28208.484   0.22545748 
     160    281.87093     -8005.12   -7973.6769   -2002.9487    28208.484   0.24504756 
     170    281.00839    -8005.024   -7973.6771   -2057.3307    28208.484   0.26222423 
     180    282.68046     -8005.21   -7973.6765   -2118.7926    28208.484   0.27648184 
     190    291.53832   -8006.1995   -7973.6779   -2237.0667    28208.484   0.28923786 
     200    293.64302   -8006.4325   -7973.6762   -2373.3356    28208.484   0.30372277 
     210    298.64228   -8006.9936   -7973.6796   -2435.1957    28208.484   0.32052492 
     220    292.65421   -8006.3221   -7973.6761   -2273.8456    28208.484   0.33666335 
     230    296.18967   -8006.7198   -7973.6794   -2277.4624    28208.484   0.34931106 
     240    282.07352   -8005.1401   -7973.6743   -2198.7147    28208.484   0.36070053 
     250    293.47873    -8006.417    -7973.679   -2346.9356    28208.484   0.37209929 
     260    294.86866   -8006.5718   -7973.6788   -2406.0825    28208.484   0.38456478 
     270    292.66954   -8006.3399   -7973.6921   -2371.6679    28208.484   0.39632792 
     280    288.22645   -8005.8424   -7973.6903   -2343.9303    28208.484   0.40740341 
     290    280.03766   -8004.9272   -7973.6886   -2399.6918    28208.484   0.41930862 
     300    280.42672   -8004.9707   -7973.6886   -2493.7264    28208.484   0.43203295 
     310    287.66524   -8005.7795     -7973.69   -2540.7382    28208.484   0.44617059 
     320    287.59248   -8005.7709   -7973.6895   -2479.6365    28208.484   0.46153129 
     330    287.30367   -8005.7384   -7973.6892   -2430.7941    28208.484   0.47558463 
     340      291.107   -8006.1632   -7973.6897   -2433.3574    28208.484   0.48761679 
     350    290.07985   -8006.0486   -7973.6898   -2407.8749    28208.484   0.49931209 
     360    283.46216   -8005.3096    -7973.689    -2324.857    28208.484   0.51138392 
     370    283.31611   -8005.2933    -7973.689   -2223.9029    28208.484   0.52363749 
     380    293.81781   -8006.4657   -7973.6899   -2201.7975    28208.484   0.53571675 
     390    300.79692   -8007.2454   -7973.6911   -2203.1603    28208.484   0.54763687 
     400    296.63974     -8006.78   -7973.6894   -2207.2978    28208.484   0.55946952 
     410     295.9675   -8006.7055   -7973.6899    -2389.454    28208.484   0.57119336 
     420    296.34311   -8006.7466   -7973.6891   -2528.2941    28208.484   0.58115249 
     430    302.08464   -8007.3879   -7973.6899   -2546.6384    28208.484   0.58802692 
     440    300.89773   -8007.2566    -7973.691   -2408.1467    28208.484   0.59313659 
     450    295.75798   -8006.6815   -7973.6893   -2201.4544    28208.484   0.59704421 
     460    298.71554   -8007.0127   -7973.6905   -2097.6901    28208.484   0.60034051 
     470    293.57038   -8006.4367   -7973.6885   -1853.8963    28208.484   0.60455383 
     480    299.68957   -8007.1205   -7973.6897   -1687.1392    28208.484   0.60898733 
     490    304.28303    -8007.634   -7973.6908   -1569.5251    28208.484   0.61372446 
     500    297.76534   -8006.9049   -7973.6887   -1520.9163    28208.484   0.61909997 
     510     298.0343    -8006.936   -7973.6898   -1578.3555    28208.484     0.624484 
     520    298.51386   -8006.9892   -7973.6895   -1617.2528    28208.484   0.63055005 
     530    299.67651    -8007.119   -7973.6896   -1583.6011    28208.484   0.63765456 
     540    301.93935   -8007.3714   -7973.6896    -1486.536    28208.484   0.64551302 
     550    304.04909   -8007.6074   -7973.6903   -1392.2763    28208.484    0.6536082 
     560    304.32541   -8007.6381   -7973.6901   -1287.1967    28208.484   0.66116979 
     570    303.65289   -8007.5627   -7973.6898   -1155.3607    28208.484   0.66831766 
     580    306.61685   -8007.8931   -7973.6895   -1197.3354    28208.484   0.67540713 
     590    314.13334   -8008.7329   -7973.6909   -1349.2051    28208.484   0.68183493 
     600    314.58012   -8008.7816   -7973.6897   -1383.1623    28208.484   0.68848067 
     610    313.36382   -8008.6461   -7973.6899   -1339.6031    28208.484   0.69624527 
     620     312.9428   -8008.5985   -7973.6893   -1300.0364    28208.484   0.70606469 
     630    317.72028    -8009.132   -7973.6899   -1341.7477    28208.484   0.71807814 
     640    322.57063   -8009.6733   -7973.6901   -1410.5145    28208.484   0.73069429 
     650    323.60168   -8009.7886   -7973.6903   -1540.2113    28208.484   0.74223138 
     660    318.39172   -8009.2068   -7973.6897   -1568.6259    28208.484   0.75263353 
     670    316.27474   -8008.9702   -7973.6892   -1586.0839    28208.484    0.7619451 
     680    320.95534   -8009.4935   -7973.6904   -1558.4885    28208.484   0.77150239 
     690    319.85933   -8009.3708     -7973.69    -1459.468    28208.484   0.78296875 
     700    315.81982   -8008.9199   -7973.6897   -1330.2989    28208.484   0.79605918 
     710    316.18394   -8008.9601   -7973.6893   -1285.6029    28208.484   0.80930055 
     720    321.99795   -8009.6098   -7973.6904   -1374.2337    28208.484   0.82124899 
     730    320.60154   -8009.4538   -7973.6902   -1440.5044    28208.484   0.83277534 
     740    316.58517   -8009.0043   -7973.6888   -1452.0725    28208.484    0.8439361 
     750    321.27163   -8009.5293    -7973.691   -1655.1798    28208.484     0.854338 
     760    314.38368   -8008.7598   -7973.6899   -1838.5562    28208.484   0.86584884 
     770     305.9368   -8007.8166   -7973.6889   -1999.9526    28208.484   0.87941766 
     780    305.71483   -8007.7927   -7973.6897   -2140.7584    28208.484   0.89394007 
     790    305.84031   -8007.8065   -7973.6896   -2209.2571    28208.484   0.90782838 
     800    306.48205   -8007.8784   -7973.6899   -2275.1918    28208.484   0.92026204 
     810    304.33355   -8007.6388   -7973.6899   -2343.4421    28208.484   0.93178116 
     820    297.82924   -8006.9125   -7973.6892   -2314.2529    28208.484    0.9431626 
     830    296.11711   -8006.7216   -7973.6893   -2340.1192    28208.484   0.95457823 
     840    299.50491   -8007.0998   -7973.6896   -2406.4366    28208.484   0.96506277 
     850    304.52466   -8007.6597   -7973.6895   -2460.7845    28208.484   0.97329313 
     860     310.8399   -8008.3649   -7973.6902   -2449.0401    28208.484   0.97916609 
     870    310.67413   -8008.3459   -7973.6897   -2327.6881    28208.484   0.98350092 
     880    309.42712   -8008.2065   -7973.6894   -2225.4629    28208.484   0.98651824 
     890    311.26126   -8008.4116   -7973.6899    -2248.854    28208.484   0.98981853 
     900    313.26109   -8008.6341   -7973.6893   -2271.1415    28208.484     0.995508 
     910    320.18937   -8009.4082   -7973.6906   -2399.0494    28208.484    1.0049166 
     920    319.06768   -8009.2826   -7973.6901    -2517.896    28208.484    1.0179539 
     930    311.48412   -8008.4358   -7973.6893   -2630.8665    28208.484    1.0322955 
     940    307.33364   -8007.9728   -7973.6893   -2692.4224    28208.484    1.0452919 
     950    306.79072   -8007.9125   -7973.6895   -2690.0291    28208.484    1.0559933 
     960    307.40028   -8007.9805   -7973.6895    -2685.778    28208.484    1.0648912 
     970    308.12458   -8008.0613   -7973.6895   -2650.3957    28208.484    1.0729687 
     980    308.40186   -8008.0924   -7973.6897   -2580.8757    28208.484    1.0808973 
     990    307.35297   -8007.9752   -7973.6895    -2481.356    28208.484    1.0887898 
    1000    307.21435     -8007.96   -7973.6898   -2353.6684    28208.484    1.0961224 
    1010    306.76152   -8007.9091   -7973.6894   -2248.7956    28208.484    1.1027335 
    1020    309.26646    -8008.189   -7973.6898   -2286.0041    28208.484    1.1099454 
    1030    310.25342   -8008.2989   -7973.6897   -2305.1256    28208.484    1.1183111 
    1040    307.62812   -8008.0062   -7973.6898    -2294.831    28208.484    1.1271276 
    1050    300.85261   -8007.2498   -7973.6892   -2274.7356    28208.484    1.1353455 
    1060    298.03491   -8006.9356   -7973.6894   -2274.0022    28208.484    1.1412949 
    1070     298.1827   -8006.9525   -7973.6898   -2240.2755    28208.484    1.1449307 
    1080    298.32389   -8006.9674   -7973.6889   -2186.0158    28208.484    1.1478628 
    1090    304.12167   -8007.6156   -7973.6903   -2224.5843    28208.484    1.1507358 
    1100    303.21342   -8007.5135   -7973.6896   -2273.1413    28208.484    1.1542182 
    1110    302.55349   -8007.4391   -7973.6888   -2350.8777    28208.484    1.1583885 
    1120    311.89752   -8008.4827   -7973.6901   -2437.4889    28208.484     1.162828 
    1130    317.78566     -8009.14   -7973.6905   -2446.8483    28208.484     1.167408 
    1140    311.56568   -8008.4454   -7973.6898   -2410.0182    28208.484    1.1717043 
    1150    303.07264   -8007.4971   -7973.6889   -2380.3816    28208.484    1.1751291 
    1160    303.70308   -8007.5677   -7973.6892    -2470.872    28208.484    1.1775178 
    1170    310.51899   -8008.3284   -7973.6895   -2617.7569    28208.484    1.1788381 
    1180    316.91994   -8009.0426   -7973.6898   -2682.3818    28208.484    1.1790698 
    1190    320.34041   -8009.4241   -7973.6896   -2666.8258    28208.484    1.1789053 
    1200    321.06279   -8009.5055   -7973.6905   -2603.0061    28208.484    1.1796194 
    1210    314.26027   -8008.7456   -7973.6894   -2485.4053    28208.484    1.1821764 
    1220    309.32884    -8008.196   -7973.6899    -2464.998    28208.484    1.1865082 
    1230    306.19371   -8007.8458   -7973.6895   -2530.8384    28208.484    1.1911967 
    1240    306.63151   -8007.8948   -7973.6896   -2616.4378    28208.484    1.1944331 
    1250    309.06475   -8008.1663   -7973.6897   -2607.8093    28208.484    1.1957913 
    1260    312.48643   -8008.5482   -7973.6898    -2462.899    28208.484    1.1957707 
    1270    312.94072   -8008.5995   -7973.6905   -2234.5909    28208.484    1.1949586 
    1280    309.44145   -8008.2076   -7973.6889   -2027.1289    28208.484    1.1941489 
    1290    314.87458   -8008.8149   -7973.6902   -1974.2087    28208.484    1.1943163 
    1300    319.36818   -8009.3159   -7973.6899   -1982.4404    28208.484     1.195877 
    1310    321.84143   -8009.5922   -7973.6903   -1943.5386    28208.484    1.1987306 
    1320    321.73486     -8009.58     -7973.69    -1845.706    28208.484    1.2036004 
    1330    320.53672   -8009.4466   -7973.6902   -1700.8294    28208.484    1.2106875 
    1340    314.45984   -8008.7682   -7973.6898   -1509.1942    28208.484    1.2186301 
    1350    308.88407   -8008.1459   -7973.6894   -1443.5528    28208.484    1.2257175 
    1360    308.85021   -8008.1421   -7973.6894   -1546.3935    28208.484    1.2310073 
    1370    314.64585   -8008.7893   -7973.6901   -1721.3694    28208.484     1.234708 
    1380    316.29012   -8008.9734   -7973.6908   -1817.9195    28208.484    1.2377498 
    1390    307.32275   -8007.9718   -7973.6895   -1803.5548    28208.484    1.2409119 
    1400    301.76471   -8007.3515   -7973.6892   -1859.1426    28208.484    1.2443267 
    1410    303.86241   -8007.5861   -7973.6897   -1936.9087    28208.484    1.2481193 
    1420    306.88628   -8007.9231   -7973.6894   -1917.1497    28208.484    1.2526965 
    1430    311.21927   -8008.4068   -7973.6898   -1887.7633    28208.484    1.2583105 
    1440    313.42496   -8008.6528   -7973.6898   -1851.4527    28208.484    1.2642026 
    1450     313.3569   -8008.6451   -7973.6897   -1798.7574    28208.484     1.269636 
    1460    313.21275   -8008.6295   -7973.6901   -1825.1156    28208.484    1.2754342 
    1470    309.64761   -8008.2313   -7973.6896   -1804.0626    28208.484    1.2823313 
    1480    309.40126   -8008.2029   -7973.6887   -1783.0935    28208.484    1.2890305 
    1490    320.42565   -8009.4341   -7973.6901   -1893.3186    28208.484    1.2938055 
    1500    328.10175   -8010.2905   -7973.6903   -1974.4184    28208.484    1.2976917 
    1510    327.81197   -8010.2577   -7973.6898    -1937.058    28208.484    1.3022885 
    1520     324.2243   -8009.8576   -7973.6899   -1828.5619    28208.484    1.3070588 
    1530    318.99753   -8009.2739   -7973.6893   -1744.3097    28208.484    1.3111416 
    1540    315.99968   -8008.9401   -7973.6899   -1679.5222    28208.484    1.3147163 
    1550    311.82694   -8008.4737   -7973.6889   -1676.3191    28208.484     1.318865 
    1560    315.99733   -8008.9396   -7973.6896   -1782.1266    28208.484    1.3245612 
    1570    321.70035   -8009.5765   -7973.6904   -1943.6277    28208.484    1.3315419 
    1580    318.91113   -8009.2648   -7973.6898   -1980.5418    28208.484     1.338424 
    1590    316.40503   -8008.9842   -7973.6888   -1871.1257    28208.484    1.3448929 
    1600    323.69059   -8009.7984   -7973.6903   -1863.2593    28208.484    1.3517889 
    1610    324.55521    -8009.895   -7973.6903   -1926.3043    28208.484    1.3589892 
    1620    317.22283   -8009.0757    -7973.689    -2033.451    28208.484    1.3640281 
    1630    315.56944   -8008.8917   -7973.6895   -2189.5743    28208.484    1.3650114 
    1640          316   -8008.9396   -7973.6894   -2246.5115    28208.484     1.363698 
    1650     317.3618   -8009.0917   -7973.6895   -2167.3771    28208.484    1.3628757 
    1660    317.92845   -8009.1553   -7973.6899   -2101.0814    28208.484    1.3639966 
    1670    314.61233   -8008.7852   -7973.6897   -2010.9785    28208.484    1.3669961 
    1680    312.18324   -8008.5133   -7973.6888   -2055.2147    28208.484     1.371293 
    1690    317.45918   -8009.1028   -7973.6897    -2191.224    28208.484    1.3761955 
    1700    321.08797   -8009.5076   -7973.6898   -2266.1824    28208.484    1.3813209 
    1710    322.36089   -8009.6492   -7973.6893   -2262.0514    28208.484    1.3861808 
    1720    325.18317   -8009.9643   -7973.6896   -2258.3202    28208.484    1.3904451 
    1730    326.15411   -8010.0728   -7973.6898    -2317.316    28208.484     1.394947 
    1740     323.8725   -8009.8181   -7973.6896   -2287.8062    28208.484    1.4007384 
    1750    320.41839   -8009.4325   -7973.6894   -2200.4994    28208.484    1.4075406 
    1760     319.2517   -8009.3028   -7973.6898   -2148.7833    28208.484     1.414045 
    1770    317.70647   -8009.1306     -7973.69    -2060.265    28208.484    1.4199919 
    1780    313.91842   -8008.7076   -7973.6895   -1900.1987    28208.484    1.4259827 
    1790    313.00692   -8008.6058   -7973.6894   -1752.6987    28208.484    1.4322179 
    1800     316.3606   -8008.9805     -7973.69   -1656.4741    28208.484    1.4376798 
    1810    317.06323    -8009.059   -7973.6901   -1611.9912    28208.484    1.4414287 
    1820    314.75826    -8008.801   -7973.6892    -1594.078    28208.484    1.4434919 
    1830    319.39788   -8009.3191   -7973.6898   -1580.2478    28208.484    1.4448335 
    1840    326.94741   -8010.1618   -7973.6903   -1586.0007    28208.484    1.4478206 
    1850     328.2751   -8010.3099   -7973.6903   -1510.9657    28208.484    1.4534245 
    1860    325.54844   -8010.0044    -7973.689   -1434.8489    28208.484    1.4597334 
    1870    330.22766   -8010.5276   -7973.6902   -1485.8246    28208.484    1.4649668 
    1880    331.47708   -8010.6665   -7973.6897   -1548.2944    28208.484    1.4702024 
    1890    330.21474   -8010.5256   -7973.6896   -1516.0861    28208.484    1.4764703 
    1900    331.58833   -8010.6782    -7973.689   -1442.8287    28208.484    1.4834549 
    1910    337.92691   -8011.3872    -7973.691   -1475.0881    28208.484    1.4904186 
    1920     332.3277   -8010.7614   -7973.6897   -1417.3686    28208.484    1.4973123 
    1930    326.40875   -8010.1005   -7973.6891    -1294.946    28208.484    1.5028962 
    1940    327.61985   -8010.2367   -7973.6902   -1344.4187    28208.484    1.5071937 
    1950    326.33555   -8010.0933   -7973.6901   -1454.2005    28208.484    1.5117741 
    1960    320.98412   -8009.4961   -7973.6898    -1539.947    28208.484    1.5179832 
    1970    316.38994    -8008.983   -7973.6892   -1494.5471    28208.484    1.5266599 
    1980    318.66568   -8009.2379   -7973.6903    -1430.619    28208.484     1.537506 
    1990    319.09324   -8009.2848   -7973.6895   -1383.3475    28208.484     1.548395 
    2000    324.20331   -8009.8559   -7973.6905   -1553.3118    28208.484     1.556546 
Loop time of 1566.45 on 16 procs for 2000 steps with 864 atoms

Performance: 0.110 ns/day, 217.563 hours/ns, 1.277 timesteps/s
98.2% CPU use with 16 MPI tasks x 1 OpenMP threads

MPI task timing breakdown:
Section |  min time  |  avg time  |  max time  |%varavg| %total
---------------------------------------------------------------
Pair    | 1188.9     | 1409.2     | 1544.5     | 291.6 | 89.96
Bond    | 0.00015426 | 0.00066699 | 0.001415   |   0.0 |  0.00
Neigh   | 0.020364   | 0.024438   | 0.028415   |   1.6 |  0.00
Comm    | 21.567     | 153.26     | 376.52     | 875.2 |  9.78
Output  | 0.22208    | 3.9235     | 10.632     | 176.1 |  0.25
Modify  | 0.010158   | 0.011471   | 0.01607    |   1.4 |  0.00
Other   |            | 0.06582    |            |       |  0.00

Nlocal:        54.0000 ave          63 max          48 min
Histogram: 5 0 1 2 2 1 1 2 0 2
Nghost:        409.688 ave         449 max         386 min
Histogram: 3 3 1 3 2 1 1 0 0 2
Neighs:         0.00000 ave           0 max           0 min
Histogram: 16 0 0 0 0 0 0 0 0 0
FullNghs:      1604.62 ave        2106 max        1301 min
Histogram: 5 0 2 2 2 0 2 1 1 1

Total # of neighbors = 25674
Ave neighs/atom = 29.715278
Ave special neighs/atom = 0.0000000
Neighbor list builds = 199
Dangerous builds = 198
unfix   1

velocity    all create 487.5 1312343 dist gaussian
fix     2 all npt temp 487.5 487.5 $(100.0*dt) aniso 0.0 1.01325 $(1000.0*dt)
fix     2 all npt temp 487.5 487.5 0.10000000000000000555 aniso 0.0 1.01325 $(1000.0*dt)
fix     2 all npt temp 487.5 487.5 0.10000000000000000555 aniso 0.0 1.01325 1
run     3000
Per MPI rank memory allocation (min/avg/max) = 8.893 | 8.897 | 8.900 Mbytes
Step Temp PotEng TotEng Press Volume c_msd[4] 
    2000        487.5   -8009.8559   -7955.4745   -863.56114    28208.484     1.556546 
    2010    469.23061   -8007.8132   -7955.4698   -802.90909    28206.753    1.5563539 
    2020    442.23077   -8004.7604   -7955.4289   -704.33087    28201.753    1.5556297 
    2030    425.93961   -8002.8177   -7955.3035    -471.8564    28193.934     1.554423 
    2040    417.87144    -8001.674   -7955.0598   -156.56748    28184.216    1.5545629 
    2050    414.33688   -8000.9025   -7954.6826    48.817911    28173.805    1.5581638 
    2060    415.04099    -8000.477   -7954.1785    178.68973    28163.565    1.5657489 
    2070    413.33896   -7999.6957   -7953.5871    165.91931        28154    1.5756994 
    2080    417.85881   -7999.5884   -7952.9756    -81.11501    28145.024    1.5854215 
    2090    418.36632   -7999.0733   -7952.4039    -347.8936    28135.706    1.5944127 
    2100    409.79642   -7997.6146   -7951.9012   -442.76138    28125.011    1.6036809 
    2110    405.06662   -7996.6266   -7951.4408   -340.65554    28112.571    1.6128441 
    2120    405.15123   -7996.1749   -7950.9796   -174.54237    28098.759    1.6212773 
    2130     409.4932   -7996.1726    -7950.493   -147.60147    28084.157    1.6291964 
    2140    412.68255   -7996.0036   -7949.9682   -211.61507    28068.909    1.6366003 
    2150    422.41889   -7996.5262   -7949.4048   -298.66924    28052.785    1.6424115 
    2160    436.34565   -7997.4814   -7948.8064   -360.85484    28035.439    1.6462694 
    2170    447.50891   -7998.1181   -7948.1978   -395.60188    28016.623     1.649506 
    2180    454.04871   -7998.2491   -7947.5992   -425.45036    27996.182    1.6541544 
    2190    451.36589   -7997.3694   -7947.0188   -304.75983     27974.07    1.6618963 
    2200    443.14876   -7995.8797   -7946.4458   -135.92951    27950.745    1.6723738 
    2210    442.61836   -7995.2388    -7945.864   -135.21546    27926.814    1.6830262 
    2220    444.83034   -7994.8839   -7945.2624   -159.09071    27902.344    1.6914049 
    2230    448.60375   -7994.6908   -7944.6484   -85.259179    27877.286    1.6967229 
    2240    453.78905   -7994.6486   -7944.0277    123.72812    27851.958     1.701018 
    2250    457.92015   -7994.4912   -7943.4096    409.41757    27827.174    1.7075645 
    2260    459.74357   -7994.0859   -7942.8009    708.84517    27804.061    1.7178371 
    2270    454.87195    -7992.948   -7942.2063    928.29429    27783.769    1.7317811 
    2280    450.54021   -7991.8784     -7941.62    1038.4742    27767.143    1.7486059 
    2290    457.15466    -7992.025   -7941.0287    1103.8767     27754.65    1.7663847 
    2300    468.90707   -7992.7387   -7940.4314    1099.5823     27746.52    1.7825414 
    2310    468.49312   -7992.1087   -7939.8476    1048.5808    27742.729     1.795017 
    2320    472.68084   -7992.0148   -7939.2865     1005.554    27743.115    1.8025531 
    2330    482.87306   -7992.6076   -7938.7424    754.71608    27747.423    1.8060627 
    2340    483.52582    -7992.164    -7938.226    440.03899    27754.724    1.8074243 
    2350    479.30429   -7991.2098   -7937.7427    272.44007    27763.855    1.8074075 
    2360    479.78367   -7990.7997   -7937.2791    207.50131    27774.134    1.8069979 
    2370    484.34168   -7990.8568   -7936.8278    191.54843    27785.286     1.808055 
    2380    483.08344   -7990.2818   -7936.3932    277.45492    27797.272    1.8116354 
    2390    476.56765   -7989.1376   -7935.9758    293.65462    27810.371    1.8162846 
    2400    475.73327   -7988.6306   -7935.5618      252.333    27824.657    1.8191944 
    2410    483.23243   -7989.0481   -7935.1428     269.7324    27840.029    1.8197457 
    2420    491.39481   -7989.5423   -7934.7265    260.54795    27856.535    1.8195277 
    2430    493.85558    -7989.422   -7934.3317    310.38063    27874.171    1.8198497 
    2440    490.44595   -7988.6772   -7933.9672     359.0942    27893.133    1.8202891 
    2450    494.51147   -7988.7911   -7933.6276     245.8508    27913.564    1.8201356 
    2460    499.12241   -7988.9884   -7933.3106    111.89422    27935.066    1.8210472 
    2470    495.17912   -7988.2618   -7933.0239     50.94068    27957.132    1.8245381 
    2480    499.03464   -7988.4328   -7932.7648   -31.414773    27979.478    1.8297129 
    2490    504.62832   -7988.8214   -7932.5293   -181.71179    28001.781     1.835139 
    2500    505.32642   -7988.6983   -7932.3284   -421.63055     28023.42    1.8397052 
    2510    507.33595   -7988.7621   -7932.1681   -563.08245    28043.497    1.8429909 
    2520    508.50765   -7988.7796   -7932.0548   -624.59037    28061.404    1.8465952 
    2530    503.89301   -7988.2002   -7931.9902   -644.59916     28076.85    1.8530207 
    2540    498.08311    -7987.525    -7931.963   -608.29515    28089.759    1.8629596 
    2550     499.3339   -7987.6629   -7931.9614   -645.50972    28100.217     1.874635 
    2560    498.18505   -7987.5565   -7931.9832   -578.36212    28108.152    1.8857008 
    2570    495.45006   -7987.2965   -7932.0283   -504.00026    28113.776    1.8937585 
    2580    494.54081   -7987.2633   -7932.0965   -404.78977    28117.398    1.8977914 
    2590    486.08998   -7986.4057   -7932.1816   -195.43999    28119.455    1.8996195 
    2600    480.57647   -7985.8809   -7932.2719   -123.28653    28120.677    1.9023056 
    2610    471.85184    -7984.979   -7932.3432   -172.44875    28121.382    1.9082458 
    2620    475.35915   -7985.4103   -7932.3833   -346.85729    28121.366    1.9169581 
    2630    485.86707   -7986.5971   -7932.3979   -597.44782    28119.917     1.926989 
    2640     486.5035   -7986.6795   -7932.4093   -834.50297    28116.037    1.9368309 
    2650    477.50354   -7985.6861   -7932.4198   -1091.2059    28108.742    1.9450295 
    2660    476.68425   -7985.5919    -7932.417   -1421.6712    28096.945    1.9514869 
    2670    480.42623    -7985.991   -7932.3987   -1623.0263    28079.362    1.9568012 
    2680    483.34237   -7986.2882   -7932.3707    -1688.942    28055.148    1.9616365 
    2690    488.75112   -7986.8574   -7932.3365   -1585.0291    28024.064    1.9663113 
    2700    489.85242   -7986.9423   -7932.2985    -1383.744    27986.506    1.9707219 
    2710    492.61384   -7987.2132   -7932.2614   -1159.2832    27943.312    1.9752022 
    2720    496.81807   -7987.6569   -7932.2361   -1052.9847    27895.371    1.9804882 
    2730    494.57271   -7987.3997   -7932.2294   -905.37647    27843.247    1.9873956 
    2740    490.84544   -7986.9937   -7932.2392   -732.62261    27787.591    1.9959804 
    2750    483.17664   -7986.1476   -7932.2485    -452.2415    27729.223    2.0046493 
    2760    488.36457   -7986.7186   -7932.2408   -160.43434    27669.322    2.0115528 
    2770     501.1246   -7988.1287   -7932.2275    57.566264    27609.095    2.0187199 
    2780    498.86984   -7987.8737   -7932.2241    503.44293    27549.608    2.0303352 
    2790    496.43484   -7987.6092   -7932.2311     886.8957    27492.566    2.0466664 
    2800    496.47505   -7987.6356   -7932.2531    1051.8005     27439.46    2.0655252 
    2810    495.91664   -7987.6172   -7932.2969    1053.3669    27390.917    2.0853519 
    2820      495.315   -7987.6208   -7932.3676    1068.3614    27347.001    2.1052134 
    2830     493.7197   -7987.5393   -7932.4641    1083.4423    27307.738    2.1239197 
    2840    493.11394   -7987.5911   -7932.5835    1000.7366    27273.084    2.1404295 
    2850    490.19087   -7987.3994   -7932.7178    946.07452    27242.723    2.1551376 
    2860    488.21497    -7987.324   -7932.8629    938.17235    27216.393    2.1686582 
    2870    487.43885   -7987.3922   -7933.0176    950.93585    27193.991    2.1817927 
    2880    489.44493   -7987.7829   -7933.1846    1008.2167    27175.526    2.1955233 
    2890    488.97889   -7987.9082   -7933.3619    1119.0583     27161.16    2.2107158 
    2900    490.22788   -7988.2329   -7933.5472     1260.695    27151.259    2.2269857 
    2910    497.33972   -7989.2291   -7933.7501    1290.3299    27146.219    2.2438381 
    2920    501.01573   -7989.8756   -7933.9865    1357.4983    27146.143    2.2617685 
    2930    504.70529   -7990.5646    -7934.264    1503.2382     27151.22    2.2805819 
    2940    513.94597   -7991.9269   -7934.5955    1548.3758    27161.847    2.2989453 
    2950    505.38059   -7991.3576   -7934.9816    1586.4636    27178.175    2.3144367 
    2960    488.32699   -7989.8618   -7935.3882    1534.8889    27200.245    2.3236194 
    2970    484.63837   -7989.8443   -7935.7821     1180.181    27227.698     2.325953 
    2980     477.2744   -7989.3837   -7936.1431    810.67114    27259.227    2.3250331 
    2990    464.39523   -7988.2556   -7936.4517    617.72002    27293.437    2.3241135 
    3000    458.80219   -7987.8719   -7936.6918    441.23676    27329.491    2.3242069 
    3010    463.23361   -7988.5323   -7936.8579    146.64978    27366.618    2.3252683 
    3020    467.05774   -7989.0593   -7936.9583   -170.10281    27403.687    2.3274731 
    3030    461.57347   -7988.4902   -7937.0009   -279.82007    27439.545    2.3297944 
    3040     463.2607   -7988.6676   -7936.9902   -209.27261    27473.761    2.3298276 
    3050    467.70143   -7989.1058    -7936.933    41.705785    27506.629    2.3278033 
    3060    463.05155     -7988.49   -7936.8359    389.02437     27539.11    2.3253544 
    3070    471.23549   -7989.2623   -7936.6953    434.15145    27572.398     2.322349 
    3080     486.9074   -7990.8266   -7936.5114    77.532116    27606.589    2.3189448 
    3090    483.69644   -7990.2622   -7936.3052   -235.52909    27640.438    2.3152419 
    3100    481.61493   -7989.8135   -7936.0886   -385.27102    27672.744    2.3106519 
    3110     489.3703   -7990.4476   -7935.8576   -449.13122    27702.895    2.3054025 
    3120    497.76046   -7991.1524   -7935.6265   -379.51624    27730.713    2.3005138 
    3130    501.12602   -7991.3179   -7935.4165   -337.85515    27756.448    2.2967774 
    3140    498.26886   -7990.8199   -7935.2373   -335.55876    27780.303    2.2942512 
    3150    491.20689   -7989.8767   -7935.0819   -503.69932    27802.255    2.2923059 
    3160    484.71179   -7989.0028   -7934.9325   -741.26789    27821.732    2.2897016 
    3170    483.03923   -7988.6606   -7934.7768   -877.47053    27837.894    2.2862135 
    3180     475.8347   -7987.6835   -7934.6035   -848.15753    27850.296    2.2829489 
    3190     479.1188   -7987.8514    -7934.405   -794.85802    27859.073    2.2804629 
    3200    482.29293   -7987.9773   -7934.1768    -683.9465    27864.543    2.2792032 
    3210    484.60844    -7987.989   -7933.9302   -576.79904    27867.194     2.279098 
    3220    475.99036   -7986.7618   -7933.6644   -488.30544    27867.508    2.2803466 
    3230    467.89681   -7985.5655   -7933.3709   -476.76677    27865.856    2.2827723 
    3240    467.20459   -7985.1451   -7933.0278   -465.31773    27862.373    2.2862291 
    3250    475.81804   -7985.7127   -7932.6345   -474.42748    27857.116    2.2900683 
    3260    480.69722   -7985.8307   -7932.2082   -296.76642    27850.181    2.2938639 
    3270    481.21859   -7985.4597    -7931.779   -21.417625    27842.271    2.2977391 
    3280    485.80856   -7985.5601   -7931.3674    192.48257    27834.426    2.3018052 
    3290    495.69438   -7986.2882   -7930.9927    242.53751    27827.455    2.3054042 
    3300    510.20504   -7987.5995   -7930.6853    125.26719    27821.514     2.307946 
    3310    514.00928   -7987.8088   -7930.4703    167.67376    27816.253    2.3107464 
    3320    512.78714   -7987.5522   -7930.3501    350.66196    27811.821    2.3146779 
    3330    514.57557   -7987.7096   -7930.3079    539.56711     27808.86    2.3190944 
    3340    512.27851   -7987.4748   -7930.3294    664.14722    27808.069    2.3238008 
    3350    506.90586   -7986.9437   -7930.3976    601.53724    27809.854    2.3281598 
    3360    501.65745   -7986.4555   -7930.4948    377.84768    27813.931    2.3312162 
    3370    492.10989   -7985.4973   -7930.6017    184.98177    27819.465    2.3324078 
    3380    493.64276   -7985.7728   -7930.7063   -33.551626    27825.629    2.3312642 
    3390    503.78601   -7987.0153   -7930.8172   -225.05438    27831.563     2.328611 
    3400    503.78634   -7987.1493   -7930.9512   -265.95528    27836.569     2.325704 
    3410    494.50426   -7986.2715   -7931.1088   -250.18483    27840.458    2.3221828 
    3420    485.07589   -7985.3798   -7931.2688   -186.54237    27843.322    2.3170196 
    3430    483.69727   -7985.3728   -7931.4157   -211.45575    27845.374    2.3108221 
    3440    489.37705    -7986.143   -7931.5523   -246.90993    27846.564    2.3057952 
    3450    490.68707   -7986.4218   -7931.6849    -340.3906    27846.752    2.3032883 
    3460    495.62508    -7987.109   -7931.8213   -598.37834    27845.536    2.3026493 
    3470    502.12155   -7987.9868   -7931.9744     -743.408    27842.008    2.3024559 
    3480    498.14373   -7987.7212   -7932.1525   -641.75327    27835.689    2.3016692 
    3490    488.86601   -7986.8819   -7932.3482   -486.31949    27826.953    2.3004513 
    3500    481.72238   -7986.2768     -7932.54   -285.01868    27816.461    2.2992753 
    3510    482.41272   -7986.5306   -7932.7167   -186.62196    27804.965    2.2975531 
    3520    487.77422   -7987.2937   -7932.8817   -266.46236    27792.855    2.2952495 
    3530    492.42847    -7987.982   -7933.0508   -505.20084    27779.817    2.2932462 
    3540     492.2273   -7988.1429   -7933.2342   -658.64902    27765.009     2.292096 
    3550     488.7444   -7987.9511   -7933.4309   -684.21212    27747.859    2.2915165 
    3560    479.92937   -7987.1624   -7933.6256   -590.28389    27728.299    2.2909625 
    3570    478.07924   -7987.1365    -7933.806   -522.25812    27706.679    2.2903316 
    3580     479.6555   -7987.4764   -7933.9701   -448.42098    27683.333    2.2900934 
    3590    477.58744   -7987.3919   -7934.1163   -281.69983    27658.602    2.2900174 
    3600    481.93275   -7988.0049   -7934.2445    -130.1269    27633.112    2.2901952 
    3610    488.92584    -7988.906   -7934.3656    23.727907    27607.475    2.2919551 
    3620     487.8034   -7988.9057   -7934.4905    236.52105    27582.299    2.2958462 
    3630    486.68557   -7988.9093   -7934.6188     514.7695    27558.423    2.3009205 
    3640    495.94014    -7990.081   -7934.7581    642.65375    27536.807    2.3058894 
    3650    498.60009   -7990.5456    -7934.926    757.44775    27517.987    2.3100671 
    3660    494.59001   -7990.3071   -7935.1348    811.77359    27502.328    2.3127402 
    3670    490.37246   -7990.0845   -7935.3827     783.2776     27489.98    2.3138476 
    3680    484.91793   -7989.7597   -7935.6663    773.60282     27480.81       2.3139 
    3690    471.92286   -7988.6121   -7935.9684      929.568    27474.795    2.3135888 
    3700    464.46325   -7988.0774   -7936.2658    1036.4387    27472.415    2.3132205 
    3710    471.94119   -7989.1974   -7936.5517    1066.8244    27474.067    2.3127991 
    3720    482.31119   -7990.6459   -7936.8434     1001.348    27479.804    2.3125762 
    3730    480.73983   -7990.7832   -7937.1559    939.70164     27489.36    2.3122392 
    3740    473.07969   -7990.2545   -7937.4818     893.1704    27502.477    2.3109056 
    3750    472.90385   -7990.5629   -7937.8098    781.66972    27518.928    2.3073667 
    3760    473.30974   -7990.9367   -7938.1383    722.26966    27538.299    2.3014202 
    3770    470.57679   -7990.9556    -7938.462    663.26858     27560.33    2.2935436 
    3780    472.05756   -7991.4385   -7938.7798    543.66114    27584.755     2.285359 
    3790    468.09857   -7991.3031    -7939.086    292.57467    27611.054    2.2789042 
    3800    459.72009   -7990.6504    -7939.368    55.419925    27638.307    2.2737507 
    3810     453.6748   -7990.2107   -7939.6026   -65.230586    27665.624    2.2677904 
    3820    466.18615   -7991.7969   -7939.7931   -333.58485    27692.405    2.2613259 
    3830    469.40381   -7992.3159   -7939.9532   -368.18534    27717.768    2.2566819 
    3840    466.24202   -7992.1024   -7940.0924   -292.19077    27741.521    2.2541742 
    3850    469.94614   -7992.6308   -7940.2076   -393.83801    27763.865    2.2535943 
    3860    469.91705   -7992.7188   -7940.2989   -581.24407    27784.436    2.2556642 
    3870    461.13548   -7991.8025   -7940.3622   -634.90852    27802.589    2.2591936 
    3880    458.40269   -7991.5177   -7940.3822   -575.32903     27818.13    2.2615242 
    3890    465.18028   -7992.2338   -7940.3422   -604.46026    27831.241     2.261695 
    3900    472.87919   -7992.9884    -7940.238   -609.06569    27841.872    2.2605278 
    3910    475.62546   -7993.1268     -7940.07   -627.38666    27850.021    2.2595307 
    3920    480.65865   -7993.4561   -7939.8379   -812.26674    27855.557    2.2596628 
    3930    484.74184   -7993.6158   -7939.5422   -848.06077    27857.887    2.2615658 
    3940    488.02669   -7993.6334   -7939.1932   -626.53711     27856.93    2.2647529 
    3950    487.36298   -7993.1691    -7938.803   -398.54434    27853.474     2.267712 
    3960    484.49567   -7992.4287   -7938.3825   -236.45238    27848.444    2.2697699 
    3970    484.14403   -7991.9493   -7937.9423   -189.29016     27842.46    2.2711899 
    3980    481.56011   -7991.2137    -7937.495   -166.81778    27835.745    2.2721239 
    3990    476.21301   -7990.1724   -7937.0502    -71.43764    27828.442    2.2724589 
    4000    475.73683   -7989.6789   -7936.6098   -13.188845    27820.889     2.271157 
    4010    484.20488   -7990.1946   -7936.1808   -50.220332    27813.295    2.2670659 
    4020    490.34703    -7990.483    -7935.784   -109.99393    27805.537    2.2608903 
    4030    497.95329   -7990.9856   -7935.4382   -275.28371    27797.341    2.2548738 
    4040    504.80394   -7991.4621   -7935.1505   -362.10596    27788.131    2.2511651 
    4050    505.77286   -7991.3472   -7934.9274   -384.03059     27777.55    2.2498393 
    4060    500.80304   -7990.6308   -7934.7654   -434.33485    27765.491    2.2491068 
    4070    497.38007   -7990.1332   -7934.6497   -386.52829    27751.817    2.2467736 
    4080    490.77199   -7989.3098   -7934.5635   -224.86774    27736.733    2.2425567 
    4090    477.06595   -7987.7025    -7934.485   -25.673329    27720.866    2.2383894 
    4100    473.28665   -7987.1876   -7934.3917     144.5409    27704.971    2.2361871 
    4110    478.53365   -7987.6545   -7934.2734     307.5381    27689.711    2.2364999 
    4120    484.42276   -7988.1764   -7934.1383    459.27644    27675.749    2.2387573 
    4130    491.37022   -7988.8131        -7934    527.85072    27663.662    2.2415971 
    4140    504.09512   -7990.1074   -7933.8748    469.62282    27653.667    2.2440329 
    4150    510.23132   -7990.6995   -7933.7824    381.68789    27645.562    2.2466399 
    4160    514.32522   -7991.1151   -7933.7413    244.07707    27638.981    2.2499351 
    4170    519.23912   -7991.6894   -7933.7675    50.732151    27633.361    2.2549223 
    4180    516.36794    -7991.469   -7933.8674    70.586343    27628.054    2.2631435 
    4190    510.76293   -7991.0139   -7934.0375     226.6098    27623.104    2.2743253 
    4200    505.14957   -7990.6134   -7934.2632    275.19218    27619.045    2.2867654 
    4210    506.34072   -7991.0232   -7934.5401    169.62663    27616.056    2.2987952 
    4220    502.92401   -7990.9661   -7934.8642   -32.854644    27613.716    2.3086162 
    4230    495.28416   -7990.4743   -7935.2247   -250.10302    27611.248    2.3153827 
    4240    479.28835   -7989.0514    -7935.586   -294.64947    27607.892    2.3221148 
    4250    466.30562   -7987.9242   -7935.9071   -287.71921    27603.422    2.3311804 
    4260    466.79237    -7988.241   -7936.1696   -331.33363     27597.84    2.3420194 
    4270    467.75848   -7988.5574   -7936.3782   -334.68219    27591.034    2.3536874 
    4280    465.08626   -7988.4145   -7936.5335   -287.39097    27583.012    2.3653282 
    4290    466.64696   -7988.6971   -7936.6419   -244.30021    27573.933    2.3761992 
    4300    460.96458   -7988.1224   -7936.7011   -49.488836    27564.036    2.3865441 
    4310    463.44121   -7988.4044   -7936.7069     99.98915    27554.012    2.3958083 
    4320     476.1678    -7989.783   -7936.6658    154.45598    27544.437    2.4036412 
    4330    478.80176   -7990.0059   -7936.5948    196.28987     27535.53    2.4114639 
    4340     473.8228   -7989.3575   -7936.5019    242.91608    27527.451    2.4205246 
    4350    480.58408   -7989.9957   -7936.3859    110.11396    27520.314    2.4314296 
    4360    489.47019   -7990.8581   -7936.2569   -111.37221    27513.614    2.4448797 
    4370    485.73667   -7990.3131   -7936.1284   -75.998754    27506.621    2.4601909 
    4380    487.91883     -7990.43   -7936.0019    142.89067    27499.447    2.4739842 
    4390    493.04526   -7990.8733   -7935.8734    477.81407    27492.933    2.4836141 
    4400    490.73487   -7990.4919   -7935.7497     753.9843    27488.301    2.4896462 
    4410     486.2535   -7989.8714   -7935.6291    879.13655    27486.593    2.4938518 
    4420    487.05806    -7989.834    -7935.502    671.54042    27488.204    2.4968573 
    4430    491.51683   -7990.1946   -7935.3652    272.35589    27492.345    2.4982905 
    4440    490.58557   -7989.9442   -7935.2186    1.0987783    27497.569    2.4978148 
    4450    487.61537   -7989.4522   -7935.0579   -200.44807    27502.801    2.4958488 
    4460    489.68455   -7989.4956   -7934.8706   -430.41876    27507.209    2.4934992 
    4470    495.69588   -7989.9412   -7934.6456   -507.92011    27509.984    2.4918757 
    4480     498.6443   -7990.0015   -7934.3769   -369.50385    27510.861    2.4921057 
    4490    492.63596   -7989.0095   -7934.0552   -57.478542     27510.36    2.4953557 
    4500    494.63621   -7988.8382   -7933.6608    272.35289     27509.66    2.5010768 
    4510    507.18949   -7989.7653   -7933.1875    445.95194    27509.972    2.5079501 
    4520    504.93204   -7988.9884   -7932.6625    494.98809    27511.975      2.51455 
    4530    506.61983    -7988.633   -7932.1188    386.92484    27515.847    2.5185536 
    4540    521.60956   -7989.7629   -7931.5766    230.77196      27521.2    2.5198071 
    4550    523.38282   -7989.4719   -7931.0878    267.38845    27527.477    2.5213815 
    4560    512.01297   -7987.8068    -7930.691     639.1615    27534.897    2.5251695 
    4570    506.61703   -7986.8894   -7930.3755    864.47214    27544.706    2.5310672 
    4580    508.68364   -7986.8667   -7930.1222    756.69349    27557.695    2.5392852 
    4590     504.0763   -7986.1563   -7929.9259    602.06698    27573.559    2.5496346 
    4600    494.26938   -7984.9127   -7929.7762    443.39527    27591.697       2.5606 
    4610    492.28523   -7984.5646   -7929.6495    145.19442    27611.391    2.5706502 
    4620    498.24522   -7985.1183   -7929.5383   -107.63276    27631.542    2.5797192 
    4630    497.71781   -7984.9705   -7929.4493   -170.26596     27651.23    2.5884689 
    4640    496.96968   -7984.8249   -7929.3872   -246.72718    27670.124     2.597146 
    4650    491.45636   -7984.1697    -7929.347   -272.15598    27687.959    2.6058897 
    4660    483.33447   -7983.2335   -7929.3168   -279.78033    27704.619    2.6133478 
    4670    489.52115   -7983.8936   -7929.2868   -476.61706    27720.017    2.6176542 
    4680    501.37848   -7985.1944   -7929.2649   -670.73648    27733.456    2.6196657 
    4690    503.51395    -7985.441   -7929.2732   -521.59617    27744.316    2.6222679 
    4700    503.32279   -7985.4724    -7929.326     -383.819    27753.052    2.6270792 
    4710    502.25677   -7985.4478   -7929.4203    -337.3696    27760.218    2.6337545 
    4720    504.42649   -7985.8255   -7929.5559   -461.28028    27765.968    2.6418533 
    4730    504.14517   -7985.9784   -7929.7403    -655.3304    27769.834    2.6504162 
    4740     493.7976   -7985.0577   -7929.9738    -675.5614    27771.134     2.657739 
    4750    488.86952   -7984.7802   -7930.2461   -523.28179    27769.803     2.663322 
    4760    489.15188   -7985.1259   -7930.5603   -320.72558    27766.404    2.6693818 
    4770     473.8617   -7983.7601   -7930.9002   -60.626512    27761.784    2.6776472 
    4780    473.57615   -7984.0765   -7931.2484   -12.793187    27756.868    2.6866242 
    4790    479.30758    -7985.075   -7931.6075   -51.113041    27751.906    2.6949233 
    4800    478.02538   -7985.3033   -7931.9788   -130.42474    27746.748    2.7023739 
    4810    483.08951   -7986.2555   -7932.3661   -182.27494    27741.105    2.7095635 
    4820    482.37452   -7986.5781   -7932.7685   -146.54401    27734.804    2.7177949 
    4830    478.39849   -7986.5437   -7933.1777   -75.114703    27727.969    2.7282544 
    4840    471.58925   -7986.1772   -7933.5707    25.347581    27720.876    2.7417541 
    4850    464.58034   -7985.7471   -7933.9224    74.672372    27713.904    2.7580524 
    4860    458.56364   -7985.3641   -7934.2106    19.773472    27707.231    2.7764658 
    4870    455.45733   -7985.2316   -7934.4246   -8.7759018    27700.681    2.7959024 
    4880     450.6634   -7984.8304   -7934.5582    84.138726    27694.167    2.8144281 
    4890      448.452   -7984.6335    -7934.608    220.53745     27688.03    2.8297983 
    4900    461.23286   -7986.0339   -7934.5827    217.79911     27682.74    2.8407619 
    4910    476.84981   -7987.6988   -7934.5055    151.06108    27678.303    2.8479347 
    4920    479.62071   -7987.9064    -7934.404    143.96841    27674.495    2.8529414 
    4930    482.76642   -7988.1451   -7934.2917    134.85539     27671.26    2.8572852 
    4940     492.4996   -7989.1171    -7934.178    151.72258     27668.56    2.8632951 
    4950     494.6522   -7989.2541   -7934.0749    267.50525    27666.503    2.8730755 
    4960    505.09928   -7990.3429   -7933.9983    235.05676    27665.442     2.887036 
    4970    514.32909   -7991.3385   -7933.9643    179.90272    27665.309    2.9049613 
    4980    514.42536   -7991.3754   -7933.9905    123.93733    27665.885    2.9247657 
    4990    516.10789   -7991.6495   -7934.0769    50.025593    27666.946    2.9424201 
    5000    516.03558   -7991.7868   -7934.2223    127.09587    27668.267    2.9563683 
Loop time of 2465.36 on 16 procs for 3000 steps with 864 atoms

Performance: 0.105 ns/day, 228.274 hours/ns, 1.217 timesteps/s
98.1% CPU use with 16 MPI tasks x 1 OpenMP threads

MPI task timing breakdown:
Section |  min time  |  avg time  |  max time  |%varavg| %total
---------------------------------------------------------------
Pair    | 2099.2     | 2311.3     | 2439.8     | 200.2 | 93.75
Bond    | 0.00022483 | 0.00083664 | 0.00157    |   0.0 |  0.00
Neigh   | 0.033081   | 0.037375   | 0.042145   |   1.4 |  0.00
Comm    | 9.6108     | 122.08     | 364.36     | 830.9 |  4.95
Output  | 0.20918    | 0.21243    | 0.26022    |   2.7 |  0.01
Modify  | 1.5822     | 31.727     | 72.45      | 432.3 |  1.29
Other   |            | 0.01643    |            |       |  0.00

Nlocal:        54.0000 ave          62 max          49 min
Histogram: 1 1 3 6 1 1 2 0 0 1
Nghost:        406.375 ave         430 max         385 min
Histogram: 2 0 3 1 3 1 1 3 0 2
Neighs:         0.00000 ave           0 max           0 min
Histogram: 16 0 0 0 0 0 0 0 0 0
FullNghs:      1638.25 ave        1927 max        1453 min
Histogram: 3 1 3 2 1 3 0 2 0 1

Total # of neighbors = 26212
Ave neighs/atom = 30.337963
Ave special neighs/atom = 0.0000000
Neighbor list builds = 300
Dangerous builds = 300
unfix   2

fix     3 all npt temp 487.5 487.5 $(100.0*dt) aniso 1.01325 1.01325 $(1000.0*dt)
fix     3 all npt temp 487.5 487.5 0.10000000000000000555 aniso 1.01325 1.01325 $(1000.0*dt)
fix     3 all npt temp 487.5 487.5 0.10000000000000000555 aniso 1.01325 1.01325 1
run     20000
Per MPI rank memory allocation (min/avg/max) = 8.897 | 8.899 | 8.900 Mbytes
Step Temp PotEng TotEng Press Volume c_msd[4] 
    5000    516.03558   -7991.7868   -7934.2223    127.09587    27668.267    2.9563683 
    5010    502.36843   -7990.2902   -7934.2503    311.37457    27668.634    2.9690213 
    5020    490.03865   -7988.9791   -7934.3146    371.25325     27670.18    2.9821244 
    5030    486.60126   -7988.6725   -7934.3914    251.76947    27673.139    2.9957657 
    5040    477.53102   -7987.7317   -7934.4624   -9.1458734    27677.052    3.0094567 
    5050     480.0221   -7988.0651   -7934.5179   -376.15536    27680.898    3.0229524 
    5060    488.49654   -7989.0521   -7934.5596   -773.65633    27683.242    3.0372688 
    5070    487.07194   -7988.9363   -7934.6027   -1090.8801    27682.557    3.0525487 
    5080    475.95847   -7987.7417   -7934.6478   -1237.0231    27677.632    3.0666396 
    5090    465.60285   -7986.6124   -7934.6737    -1215.809    27667.884    3.0769034 
    5100    463.13523   -7986.3197   -7934.6562    -1057.099    27653.404    3.0829747 
    5110    464.75909   -7986.4277   -7934.5831   -985.97061    27634.693    3.0862346 
    5120    466.98173    -7986.539   -7934.4465   -923.55516     27612.07    3.0882202 
    5130    478.57271   -7987.6253   -7934.2398   -903.16614    27585.769    3.0898228 
    5140    493.19132   -7988.9832    -7933.967   -759.07271    27555.941    3.0916881 
    5150    498.38395   -7989.2425    -7933.647   -487.44303    27523.146    3.0933857 
    5160    500.00178   -7989.0746   -7933.2987   -230.10037    27488.423    3.0929862 
    5170    499.08507   -7988.6039   -7932.9302   -4.2327762     27452.79     3.089644 
    5180    497.46316    -7988.039   -7932.5463    181.49781    27417.128    3.0847034 
    5190    501.51015   -7988.0975   -7932.1533    316.24395    27382.149    3.0814175 
    5200    504.59209   -7988.0485   -7931.7605    585.42962    27348.446    3.0825934 
    5210    506.70154   -7987.9093    -7931.386    848.66415    27316.998     3.087169 
    5220    508.57548   -7987.7759   -7931.0435    971.09041    27288.778    3.0919721 
    5230    515.72476   -7988.2774   -7930.7475    1032.4257    27264.269    3.0956945 
    5240    524.71978   -7989.0473   -7930.5141    1117.6392    27243.724     3.099015 
    5250    533.38271   -7989.8696     -7930.37    1218.8494    27227.462    3.1025673 
    5260    527.69918   -7989.1993   -7930.3336    1362.8493     27215.87    3.1074517 
    5270     515.7674   -7987.9335   -7930.3989    1488.9238    27209.472    3.1139696 
    5280    506.60011   -7987.0548   -7930.5428    1604.6112    27208.751    3.1214226 
    5290    495.79523   -7986.0464   -7930.7397    1778.2389    27214.193    3.1282529 
    5300    493.17121   -7985.9899   -7930.9759    1780.2558    27226.379    3.1328488 
    5310    488.39153   -7985.7217   -7931.2409    1788.7109    27245.418    3.1369305 
    5320    488.23123   -7985.9914   -7931.5285    1881.9481    27271.421    3.1418645 
    5330    499.90435   -7987.6106   -7931.8455    1808.0062    27304.669    3.1458157 
    5340    510.36291   -7989.1519   -7932.2201    1759.1979    27345.006    3.1479344 
    5350    512.52678   -7989.8556   -7932.6824     1784.842    27392.289    3.1483911 
    5360    506.75333    -7989.757   -7933.2279    1684.7061    27446.573    3.1470458 
    5370     502.2951   -7989.8511   -7933.8193    1361.7526    27507.445    3.1450381 
    5380     496.9918   -7989.8473   -7934.4072    993.09816    27573.673    3.1455389 
    5390    495.43796   -7990.2133   -7934.9465    513.55873    27643.717    3.1519461 
    5400    494.94127   -7990.6132   -7935.4017   -58.371909    27715.617    3.1646602 
    5410    489.46401   -7990.3565    -7935.756   -531.18567    27787.074    3.1799655 
    5420    481.41272   -7989.7091   -7936.0068   -950.64489    27856.055    3.1940158 
    5430    469.02863   -7988.4787   -7936.1579   -1210.3995    27920.826    3.2055475 
    5440    463.29254   -7987.9048   -7936.2239   -1323.0504    27980.256     3.214662 
    5450    463.24002   -7987.8979   -7936.2228   -1312.2611    28033.838     3.221288 
    5460    468.69603   -7988.4599   -7936.1762   -1242.3607    28081.585    3.2252166 
    5470    475.05264   -7989.0914   -7936.0986   -1251.6762    28123.736     3.227868 
    5480    485.53524    -7990.169   -7936.0068   -1283.2153    28160.284    3.2317042 
    5490    484.00615   -7989.9077   -7935.9161   -1101.4407    28191.254    3.2385734 
    5500     479.9233   -7989.3656   -7935.8294   -1051.7387    28217.278    3.2480125 
    5510    473.18441   -7988.5172   -7935.7327   -1061.6903    28238.652    3.2584797 
    5520    465.58056   -7987.5475   -7935.6113   -1014.0766    28255.436     3.268643 
    5530    475.63616   -7988.5129    -7935.455   -1112.5182    28267.773    3.2769637 
    5540    492.62361   -7990.2263   -7935.2734   -1245.6423    28275.391    3.2820783 
    5550    502.44679   -7991.1499   -7935.1012   -1409.5487      28277.8    3.2837181 
    5560    500.17375   -7990.7574   -7934.9623   -1549.8554    28274.425    3.2826362 
    5570    493.96639   -7989.9589   -7934.8563   -1546.5663    28264.824    3.2800374 
    5580     493.4273    -7989.812   -7934.7695   -1396.1303    28249.089    3.2773336 
    5590    501.06314   -7990.5963    -7934.702   -1187.1534    28227.887    3.2769676 
    5600    497.11809   -7990.1133    -7934.659   -861.40459    28202.203    3.2811903 
    5610    489.87565    -7989.281   -7934.6346   -629.29702    28173.328    3.2889711 
    5620    489.75327   -7989.2479   -7934.6152   -400.72476    28142.338    3.2979558 
    5630    487.54337   -7988.9824   -7934.5962   -328.17598    28110.111    3.3077676 
    5640    478.88521   -7987.9935   -7934.5732   -256.14223    28077.037    3.3190179 
    5650    472.08636   -7987.1904   -7934.5284   -217.59412    28043.416    3.3305408 
    5660    478.98929   -7987.8829   -7934.4509   -200.95945    28009.428    3.3409575 
    5670    491.11188   -7989.1301   -7934.3458    -69.66492    27975.219    3.3504577 
    5680     504.5669   -7990.5226   -7934.2374    89.082774    27941.284    3.3591375 
    5690    509.64539   -7991.0067    -7934.155     161.8477    27908.208    3.3665881 
    5700    504.79654   -7990.4275   -7934.1167    96.108402    27876.254    3.3725144 
    5710    500.62377   -7989.9636   -7934.1183   -2.1007843    27845.181      3.37721 
    5720    502.68363   -7990.2296   -7934.1545   -12.404235    27814.621    3.3813577 
    5730    503.51404    -7990.395   -7934.2273    140.70852    27784.573     3.385187 
    5740    498.33421   -7989.9283   -7934.3383    440.16879    27755.649    3.3878628 
    5750    494.66953   -7989.6648   -7934.4837    734.62066    27728.952    3.3883673 
    5760    493.76797    -7989.741   -7934.6604    965.20173    27705.574    3.3867135 
    5770    498.01542   -7990.4349   -7934.8805    1066.4354    27686.309    3.3842129 
    5780    494.06827   -7990.2666   -7935.1525    1091.6563    27671.509     3.383477 
    5790    488.04917   -7989.9106    -7935.468    955.81357    27661.154    3.3855817 
    5800    486.17803   -7990.0446   -7935.8107    805.44392    27654.684    3.3891178 
    5810     488.2765   -7990.6412   -7936.1732    856.09362    27651.551    3.3923474 
    5820    491.20968   -7991.3524   -7936.5572    892.61152    27651.809    3.3949433 
    5830    487.29292   -7991.3153    -7936.957    902.07515    27655.554    3.3961637 
    5840    477.94035   -7990.6617   -7937.3468    864.28752    27662.763    3.3951295 
    5850    476.95717   -7990.9116   -7937.7063    749.05311    27673.223    3.3928748 
    5860     479.1427   -7991.4767   -7938.0276    720.43208    27686.522    3.3911361 
    5870    485.08261   -7992.4289   -7938.3172    597.86449    27702.433    3.3908515 
    5880    485.75743   -7992.7696   -7938.5826    456.67287    27720.494    3.3938415 
    5890    475.88271   -7991.9014    -7938.816    444.03237    27740.178    3.4003254 
    5900     475.1207   -7992.0097   -7939.0093    356.33379    27761.329    3.4071528 
    5910    471.64722   -7991.7712   -7939.1582    252.66774    27783.613    3.4114445 
    5920    461.54008   -7990.7431   -7939.2576    117.75804    27806.618    3.4127462 
    5930    457.69083   -7990.3516   -7939.2955   -275.58041    27829.704     3.413792 
    5940    456.15867     -7990.15   -7939.2648   -526.13677    27851.473    3.4175611 
    5950      463.721   -7990.9031   -7939.1743   -522.71138    27870.991    3.4242663 
    5960    477.73127   -7992.3339   -7939.0423   -551.41649    27888.175    3.4320989 
    5970    483.32385   -7992.8087   -7938.8932   -452.62827    27903.018    3.4384732 
    5980    481.66724   -7992.4737   -7938.7429   -285.39237    27915.896    3.4411682 
    5990    481.32317   -7992.2794   -7938.5871   -203.49265    27927.445    3.4401371 
    6000    489.55064   -7993.0387   -7938.4286   -189.85282    27938.026    3.4372243 
    6010    483.18774   -7992.1765   -7938.2762   -54.118862    27947.755    3.4354096 
    6020     475.0935   -7991.1251   -7938.1277    227.19767    27957.216    3.4362343 
    6030    483.00164   -7991.8488   -7937.9692     263.3252    27967.404    3.4399001 
    6040    490.98782   -7992.5763   -7937.8059    119.25533    27978.484     3.447503 
    6050    492.49712   -7992.5947   -7937.6559     40.36507    27989.954    3.4592309 
    6060    491.80033   -7992.3859   -7937.5249   -0.7563734    28001.471    3.4721959 
    6070    488.77159    -7991.936   -7937.4128   -61.553497    28012.867    3.4832832 
    6080    482.99169   -7991.1916   -7937.3131   -223.02794    28023.855    3.4918957 
    6090    479.63646   -7990.7205   -7937.2163    -342.4257    28033.857    3.4993349 
    6100    471.20154   -7989.6706   -7937.1073   -396.39448    28042.408    3.5087875 
    6110    470.47885   -7989.4574   -7936.9747   -532.35017     28049.23     3.521493 
    6120    479.34333   -7990.2894    -7936.818   -673.10261    28053.835    3.5366082 
    6130    482.28954   -7990.4545   -7936.6543   -722.64462     28055.72    3.5530041 
    6140    483.60299   -7990.4451   -7936.4985   -690.72572    28054.691    3.5672263 
    6150    489.95912   -7991.0106   -7936.3549   -592.07293    28050.901    3.5763585 
    6160    494.63434   -7991.4101   -7936.2329   -361.67943    28044.823    3.5818943 
    6170    493.28715   -7991.1643   -7936.1374   -126.91903    28037.352    3.5864069 
    6180    487.00588   -7990.3885   -7936.0622    62.383091    28029.448    3.5905497 
    6190    481.10121   -7989.6589   -7935.9913    138.60121    28021.853    3.5941937 
    6200    484.16367   -7989.9268   -7935.9176    86.756936    28014.865    3.5976133 
    6210    483.17215   -7989.7456    -7935.847    174.82056    28008.368     3.601999 
    6220    472.31692   -7988.4636   -7935.7759    351.69657    28002.685     3.607661 
    6230    472.71344   -7988.4227   -7935.6908    312.62745    27998.406    3.6138803 
    6240    484.11853   -7989.5983   -7935.5941    64.045403    27995.362    3.6215634 
    6250    484.17013   -7989.5091   -7935.4992   -123.79131    27992.643     3.631257 
    6260    483.71442   -7989.3721    -7935.413   -211.84812     27989.49    3.6416394 
    6270     481.3689   -7989.0282   -7935.3307    -248.8814    27985.548    3.6523243 
    6280    474.61038   -7988.1913   -7935.2478   -260.07963    27980.661    3.6630498 
    6290    473.38023   -7987.9571   -7935.1508   -250.61026    27974.796    3.6710942 
    6300    478.85396   -7988.4501   -7935.0332   -162.39467    27968.035    3.6736829 
    6310    485.17348   -7989.0245   -7934.9027   -76.239318    27960.697    3.6721189 
    6320    489.48681   -7989.3758   -7934.7728   -64.665318    27953.095    3.6708398 
    6330    485.36925   -7988.7934   -7934.6498    1.7429856    27945.352    3.6728309 
    6340    483.67317   -7988.4833   -7934.5288    125.01311    27937.724    3.6770061 
    6350    496.13191   -7989.7557   -7934.4115    230.56911    27930.664    3.6825768 
    6360    502.80501   -7990.4034   -7934.3148    342.88941    27924.619    3.6918421 
    6370    501.25403   -7990.1713   -7934.2557    268.65049    27919.951    3.7049171 
    6380    495.02474   -7989.4507     -7934.23    53.055902    27916.352    3.7189001 
    6390    484.88266   -7988.3102   -7934.2208  -0.35861515    27913.068    3.7304874 
    6400    480.33367   -7987.7903   -7934.2084    49.784843    27909.866    3.7373506 
    6410    484.90706   -7988.2759   -7934.1838    -74.77432     27906.83    3.7391133 
    6420    487.48293    -7988.532   -7934.1525   -114.92993    27903.576    3.7385315 
    6430     484.2024   -7988.1303   -7934.1167   -54.831304    27899.928    3.7386087 
    6440    489.73232   -7988.7062   -7934.0758   -39.356213    27896.073    3.7406764 
    6450    493.79667   -7989.1179   -7934.0342   -55.573144    27892.091    3.7449421 
    6460    492.27772   -7988.9164   -7934.0021   -101.65477    27887.911    3.7502083 
    6470    492.75593   -7988.9495   -7933.9819   -208.45025    27883.331    3.7533749 
    6480    491.63461   -7988.8151   -7933.9725   -360.73258    27877.938    3.7513605 
    6490    490.84637   -7988.7284   -7933.9737   -443.19618    27871.166     3.744598 
    6500    493.31431   -7989.0135   -7933.9836   -407.99448     27862.73    3.7352583 
    6510    500.41045   -7989.8323   -7934.0107   -359.32158    27852.728    3.7245991 
    6520    505.42989   -7990.4569   -7934.0755   -245.11824    27841.372    3.7147229 
    6530    502.49331   -7990.2481   -7934.1942   -54.816606    27829.142    3.7063956 
    6540    501.41031   -7990.3092   -7934.3762   -89.318923     27816.66    3.6983724 
    6550    502.40662   -7990.6768   -7934.6325   -191.62518    27803.859    3.6911704 
    6560    495.50505    -7990.245   -7934.9707   -101.59252    27790.444    3.6866921 
    6570    487.70668    -7989.783   -7935.3786   -64.377704    27776.667    3.6844268 
    6580    483.27394   -7989.7467   -7935.8367   -167.16955    27762.653    3.6831182 
    6590    477.69596   -7989.6037    -7936.316   -216.33122     27748.06    3.6827326 
    6600    472.57563   -7989.5003   -7936.7838   -208.97916    27732.688    3.6831788 
    6610    472.69846   -7989.9455   -7937.2153   -171.08727    27716.581    3.6844968 
    6620    472.51801   -7990.3119   -7937.6018   -101.26356    27699.883    3.6858084 
    6630    470.13206   -7990.3757   -7937.9317    91.967413    27682.934    3.6867805 
    6640    471.62397   -7990.8106   -7938.2002    169.69702    27666.408    3.6881835 
    6650    469.90777   -7990.8296   -7938.4107    142.58359    27650.607    3.6901301 
    6660    470.53667   -7991.0546   -7938.5655    96.434711    27635.463    3.6912963 
    6670    480.89606   -7992.3248   -7938.6801    49.850797     27620.79    3.6904793 
    6680    485.46703   -7992.9264   -7938.7718    166.66038    27606.471    3.6887031 
    6690    483.94563   -7992.8385   -7938.8537    337.26025    27592.905    3.6878359 
    6700    472.97979   -7991.6793   -7938.9177     559.3183    27580.765    3.6900984 
    6710    463.03262   -7990.5984   -7938.9464    805.50221    27570.897    3.6959972 
    6720    462.07044   -7990.4714   -7938.9268    950.07605    27564.204    3.7035232 
    6730    464.04487    -7990.624   -7938.8591    933.30434    27561.197    3.7103672 
    6740    459.03571   -7989.9487   -7938.7425    949.75905    27561.866    3.7140615 
    6750    462.25667   -7990.1379   -7938.5725    903.87987    27566.219    3.7136019 
    6760    481.08042   -7992.0149   -7938.3496    697.51278    27574.025    3.7115015 
    6770    494.21487   -7993.2301   -7938.0997    528.15718    27584.547    3.7119616 
    6780    492.52163   -7992.7972   -7937.8556    561.28453     27597.17    3.7173862 
    6790    495.85703   -7992.9408   -7937.6272    592.69301    27611.944    3.7274801 
    6800    500.41119    -7993.239   -7937.4174    553.37147    27628.961    3.7408744 
    6810    493.77117   -7992.3157   -7937.2348    674.25908    27648.161    3.7540055 
    6820    486.98797   -7991.3961   -7937.0719    846.71038    27669.972    3.7629738 
    6830    495.68009   -7992.2103   -7936.9165    762.25616    27694.956    3.7671053 
    6840    506.60156   -7993.2851    -7936.773     478.5917    27722.835    3.7681268 
    6850    503.85785   -7992.8644   -7936.6583    265.97043    27752.598    3.7690706 
    6860    507.09582   -7993.1438   -7936.5765    4.1098519    27783.335    3.7711174 
    6870    514.82827   -7993.9649   -7936.5351   -307.10036    27813.996    3.7745448 
    6880    500.14998   -7992.3364   -7936.5439   -404.70021    27843.448    3.7807494 
    6890    479.58766   -7990.0787     -7936.58   -362.36871    27871.269    3.7897621 
    6900    481.49856    -7990.323   -7936.6111   -417.92346    27897.536    3.8001006 
    6910    488.06021   -7991.0783   -7936.6344   -464.35324     27922.06     3.811224 
    6920    477.65738   -7989.9426   -7936.6592   -290.76828    27944.742    3.8233086 
    6930    466.32081     -7988.69   -7936.6712   -201.56149    27966.167    3.8353343 
    6940    467.63972    -7988.808   -7936.6421   -342.75979    27986.655    3.8464324 
    6950    470.72848   -7989.0645    -7936.554   -419.89446    28005.739    3.8572614 
    6960    472.02556   -7989.0534   -7936.3982   -316.61742    28023.147    3.8684007 
    6970    474.99928   -7989.1452   -7936.1583   -218.22315    28039.237    3.8798136 
    6980     490.9291    -7990.592   -7935.8281   -240.17741    28054.366    3.8914105 
    6990    495.76425   -7990.7286   -7935.4254    -168.8816     28068.54     3.903954 
    7000    487.90436    -7989.414   -7934.9876   -19.398613    28082.021    3.9163634 
    7010    481.29508    -7988.215   -7934.5258    100.56604     28095.39    3.9250771 
    7020    479.42572   -7987.5223   -7934.0416    88.585951    28109.095    3.9279982 
    7030    479.44573    -7987.032   -7933.5491    30.246543    28123.137    3.9271145 
    7040    479.52002   -7986.5558   -7933.0646   -172.51045    28137.238    3.9262728 
    7050    493.01688   -7987.5965   -7932.5997   -478.93887    28150.579    3.9279805 
    7060    500.12833   -7987.9671   -7932.1771   -531.47004    28162.046    3.9344868 
    7070     504.7857   -7988.1328   -7931.8231   -473.01208    28171.352     3.945261 
    7080    513.18874   -7988.7906   -7931.5436   -494.52485    28178.678     3.956568 
    7090    509.44227    -7988.173   -7931.3439   -374.61041    28184.039    3.9650411 
    7100    491.64525    -7986.051   -7931.2072   -115.04194    28187.915    3.9688576 
    7110    485.94073   -7985.3045   -7931.0971    41.905513    28191.292    3.9671561 
    7120    492.75106   -7985.9603   -7930.9931     116.0881    28194.827     3.962161 
    7130    499.98173   -7986.6784   -7930.9047     200.7112    28198.857     3.959659 
    7140    504.97403   -7987.1785   -7930.8479     198.2193    28203.682    3.9635022 
    7150    507.26817    -7987.417   -7930.8305    104.86812    28209.308    3.9717527 
    7160    513.99698   -7988.1992    -7930.862   -86.154796    28215.361    3.9794575 
    7170    516.82669   -7988.6083   -7930.9555   -198.34869    28221.112    3.9843932 
    7180    511.71337   -7988.1999   -7931.1175   -81.719008     28226.15    3.9881049 
    7190    504.72963   -7987.6417   -7931.3384   -14.406827    28230.826    3.9931458 
    7200    495.28366   -7986.8465   -7931.5969   -25.941497    28235.423    4.0017796 
    7210    490.76149   -7986.6152     -7931.87   -138.24952     28239.87     4.015592 
    7220    495.52117    -7987.427   -7932.1509   -218.63382    28243.778    4.0338314 
    7230    500.62006   -7988.2951   -7932.4501    -321.9951    28246.791    4.0529101 
    7240    502.36412    -7988.815   -7932.7756   -473.84915    28248.464    4.0698293 
    7250     505.4037   -7989.5109   -7933.1323   -611.05809    28248.178    4.0847785 
    7260    500.62104    -7989.358    -7933.513   -724.23387    28245.373    4.0990828 
    7270     490.3775   -7988.5985   -7933.8961    -800.0905    28239.608    4.1117995 
    7280    484.07343   -7988.2542   -7934.2551   -942.31077    28230.518    4.1207949 
    7290     483.7587   -7988.5425   -7934.5785    -985.0903     28217.59    4.1256341 
    7300    489.96917   -7989.5239   -7934.8671   -966.24466    28200.618    4.1283066 
    7310    499.72895   -7990.8876   -7935.1421   -960.91884    28179.638    4.1312279 
    7320     490.9971   -7990.1806   -7935.4092    -839.8793     28154.72    4.1354391 
    7330    477.83625   -7988.9502   -7935.6468   -603.51379     28126.38    4.1385222 
    7340    478.83766   -7989.2553   -7935.8403   -471.90358    28095.489    4.1381383 
    7350    487.45688   -7990.3752   -7935.9987   -371.08014    28062.637    4.1363427 
    7360    490.41132   -7990.8473   -7936.1412   -224.89158    28028.256     4.136972 
    7370    484.16975   -7990.2779    -7936.268   -78.055692    27992.938    4.1408555 
    7380    483.72567   -7990.3368   -7936.3765   -23.418644    27957.246    4.1463913 
    7390    484.75579   -7990.5403    -7936.465    53.995075    27921.465    4.1527793 
    7400    485.97655   -7990.7513   -7936.5399    161.14726    27885.897    4.1591884 
    7410    480.44483   -7990.1939   -7936.5995    467.61574    27851.043    4.1633255 
    7420    474.28347   -7989.5393   -7936.6323    709.61584    27818.055    4.1642522 
    7430    483.76995   -7990.6073    -7936.642    566.12922    27787.774    4.1646635 
    7440    492.36352   -7991.5706   -7936.6467    348.82849    27759.727    4.1684679 
    7450      493.781   -7991.7443   -7936.6623    287.45069    27733.137    4.1776798 
    7460    496.89768   -7992.1265   -7936.6968    269.66579    27707.701    4.1911949 
    7470    495.87986   -7992.0688   -7936.7526    396.73783    27683.387    4.2060005 
    7480     487.7781   -7991.2366   -7936.8243    667.79704    27660.692    4.2180594 
    7490    478.75742   -7990.2987   -7936.8926      1000.63     27640.66    4.2240386 
    7500    480.48012   -7990.5455   -7936.9472    1180.0577    27624.518    4.2236235 
    7510     483.4354   -7990.9172   -7936.9892    1189.8888    27612.947    4.2206566 
    7520    484.27044    -7991.047   -7937.0259    1155.0584    27606.033    4.2194502 
    7530    486.62203   -7991.3446   -7937.0612    1018.5705    27603.631    4.2216965 
    7540    489.83638   -7991.7432   -7937.1012    789.04038    27605.206    4.2274188 
    7550    487.46144    -7991.526   -7937.1489    611.97193    27609.904     4.236552 
    7560    484.81767   -7991.2846   -7937.2025    529.56532    27617.044    4.2477948 
    7570    481.58987   -7990.9772   -7937.2551    535.37372    27626.333    4.2586328 
    7580    481.55875    -7991.024   -7937.3054     533.4789     27637.77    4.2679688 
    7590    485.39168    -7991.502   -7937.3558    429.92028    27651.291    4.2770601 
    7600    482.82587   -7991.2693   -7937.4093    329.74494    27666.552    4.2862372 
    7610    479.65188   -7990.9683   -7937.4624    291.29077    27683.216    4.2936785 
    7620    487.31553   -7991.8711   -7937.5103    117.11102    27701.038    4.2985667 
    7630    486.95678   -7991.8797   -7937.5589   -1.6511033    27719.419       4.3023 
    7640    481.01048   -7991.2714    -7937.614   -63.695022    27737.896    4.3068009 
    7650    473.78568   -7990.5174   -7937.6659   -145.79899     27756.19    4.3145277 
    7660    464.53326   -7989.5124    -7937.693   -198.24776    27774.006     4.325945 
    7670    468.66259   -7989.9572   -7937.6772   -339.03916    27791.085    4.3401928 
    7680    478.17376   -7990.9572   -7937.6162   -470.10466    27806.901    4.3568785 
    7690    477.24031   -7990.7574   -7937.5206   -637.94954    27820.905    4.3739873 
    7700    475.15604   -7990.3967   -7937.3923   -942.98284    27832.394    4.3877882 
    7710    476.53612    -7990.385   -7937.2267   -1222.8913    27840.171    4.3957827 
    7720    475.77685   -7990.0999   -7937.0263   -1192.9044    27843.217    4.3974384 
    7730    473.38756   -7989.5957   -7936.7886    -968.3641    27841.583     4.393908 
    7740    482.73966   -7990.3624   -7936.5121   -776.22748    27836.056     4.386861 
    7750     496.1368   -7991.5547   -7936.2099   -602.97521    27827.392    4.3795687 
    7760    503.93638   -7992.1294   -7935.9145   -411.45241    27816.267    4.3747155 
    7770     510.9152   -7992.6462   -7935.6528   -190.77626    27803.452    4.3720469 
    7780    509.55499   -7992.2801   -7935.4384   -2.6404896    27789.785    4.3694368 
    7790    507.62336   -7991.9005   -7935.2743    153.68871    27776.005    4.3658465 
    7800    501.97273   -7991.1445   -7935.1487    287.21833    27762.735     4.363721 
    7810    499.31054   -7990.7534   -7935.0545    371.98858    27750.498    4.3649666 
    7820    497.96912   -7990.5333   -7934.9841    393.84142    27739.627    4.3688493 
    7830    502.40094     -7990.98   -7934.9364    371.98379    27730.246    4.3726575 
    7840    513.00343    -7992.154   -7934.9277    190.15772    27722.206    4.3745732 
    7850    504.20062   -7991.2186   -7934.9742     174.5879    27714.928    4.3757628 
    7860    487.42738   -7989.4341   -7935.0608    205.12308    27708.292    4.3772915 
    7870    478.56325   -7988.5367   -7935.1522    211.68852    27702.405    4.3801188 
    7880    479.08909   -7988.6717   -7935.2286    123.82602    27697.264    4.3851328 
    7890    485.16379   -7989.4144   -7935.2937    5.9497638     27692.55    4.3922941 
    7900    481.04321   -7989.0138   -7935.3527    -13.58953    27687.825    4.4003256 
    7910    475.76641   -7988.4722   -7935.3997     49.99296    27683.027    4.4063072 
    7920    485.61181   -7989.6023   -7935.4315   -38.490674    27678.318    4.4093086 
    7930    494.29109   -7990.6002   -7935.4613   -158.15404    27673.397    4.4123225 
    7940    494.53729   -7990.6755   -7935.5091   -208.93296    27667.813    4.4185163 
    7950    491.62055   -7990.4215   -7935.5805   -199.47928    27661.352    4.4287525 
    7960    488.58435   -7990.1727   -7935.6704    34.588586    27654.116    4.4419371 
    7970    490.05772   -7990.4429   -7935.7762    329.13011    27646.945    4.4565551 
    7980    487.27384   -7990.2522   -7935.8961    479.04016     27640.91    4.4711935 
    7990    481.89712   -7989.7818   -7936.0254    523.78858    27636.649    4.4832631 
    8000    478.69544    -7989.555   -7936.1558    408.48524     27634.34    4.4910831 
    8010    479.55203   -7989.7782   -7936.2834    257.72681    27633.596    4.4965959 
    8020    482.81769   -7990.2701    -7936.411    231.68297    27633.914    4.5035928 
    8030    485.18086   -7990.6671   -7936.5445    289.66675    27635.194      4.51418 
    8040    485.47279   -7990.8453   -7936.6901    301.10345    27637.629    4.5278815 
    8050    485.20205   -7990.9735   -7936.8485    309.40255    27641.315    4.5427689 
    8060    489.21477   -7991.5957    -7937.023    257.25193    27646.286     4.556692 
    8070    490.61425   -7991.9492   -7937.2204    131.09616    27652.375    4.5680434 
    8080    486.65225   -7991.7312   -7937.4444    14.693078    27659.133     4.575681 
    8090    477.07534   -7990.9028   -7937.6843   -8.6660748    27666.153    4.5788405 
    8100    468.36715   -7990.1662   -7937.9191   -94.596489    27673.288    4.5792814 
    8110    467.87053   -7990.3236   -7938.1319   -269.82198    27680.202    4.5816401 
    8120    469.55283   -7990.6971   -7938.3178   -337.05025    27686.266    4.5890295 
    8130    471.50195   -7991.0728    -7938.476   -273.76539    27691.197    4.6012295 
    8140    475.71213   -7991.6802   -7938.6138   -203.82373     27695.17    4.6157099 
    8150     470.8314   -7991.2509   -7938.7289   -75.514034     27698.48    4.6299651 
    8160    472.92456   -7991.5746   -7938.8191   -175.93703    27701.481    4.6430547 
    8170    475.79743   -7991.9589   -7938.8829   -207.59147    27703.902    4.6549065 
    8180    479.76939    -7992.447    -7938.928   -31.117185    27705.639    4.6645313 
    8190    486.70232   -7993.2562   -7938.9638    143.84529    27707.295     4.671361 
    8200    493.46505   -7994.0522   -7939.0055      244.365    27709.563    4.6770189 
    8210    492.46467   -7994.0011   -7939.0659    368.96174    27712.907     4.684474 
    8220    487.00507   -7993.4736   -7939.1475     477.7938    27717.842    4.6946686 
    8230    486.37234   -7993.5015    -7939.246    536.77844    27724.858     4.707071 
    8240    485.96974   -7993.5721   -7939.3615    564.25064    27734.246    4.7230343 
    8250    475.00119   -7992.4723   -7939.4852    692.80348    27746.281    4.7425095 
    8260    472.87458   -7992.3492   -7939.5994    723.10378    27761.487      4.76161 
    8270    477.47709   -7992.9529   -7939.6896    708.54757    27780.123     4.779096 
    8280    477.72827   -7993.0457   -7939.7544    654.92958    27802.257    4.7965982 
    8290    477.06477    -7993.011   -7939.7937    503.82514    27827.747    4.8141212 
    8300    475.82454   -7992.8815   -7939.8026     313.2638    27856.106    4.8311222 
    8310    481.30648   -7993.4682   -7939.7778    80.815452     27886.64    4.8474323 
    8320    485.71167   -7993.9082   -7939.7263   -79.260823    27918.496    4.8641711 
    8330    483.03331    -7993.538   -7939.6549   -229.84017    27950.982    4.8821579 
    8340    484.45903   -7993.6034   -7939.5613   -429.39886    27983.447     4.900194 
    8350    484.42754   -7993.4799   -7939.4412   -700.31252     28015.02    4.9190271 
    8360    477.49102   -7992.5589    -7939.294   -978.75032    28044.542    4.9399146 
    8370    474.10305   -7991.9986   -7939.1117   -1231.2049    28070.765    4.9611684 
    8380    475.33269    -7991.908   -7938.8839   -1279.6038    28092.628    4.9798597 
    8390     480.5006   -7992.2117   -7938.6111   -1206.9517     28109.77    4.9949536 
    8400    487.23508   -7992.6526   -7938.3008   -1148.9942    28122.314    5.0084692 
    8410    491.13288   -7992.7567     -7937.97   -1058.0839      28130.4    5.0222173 
    8420    487.33778    -7991.996   -7937.6328   -864.65532    28134.345    5.0338769 
    8430    490.07463   -7991.9655   -7937.2969   -804.15625    28134.753    5.0408161 
    8440     490.9858   -7991.7353   -7936.9651   -831.18896    28131.832    5.0446468 
    8450    489.86102   -7991.2893   -7936.6446   -793.33433    28125.451    5.0471215 
    8460    482.00096   -7990.0991   -7936.3312   -570.45806     28115.76    5.0485168 
    8470    484.13717   -7990.0237   -7936.0174   -420.38853    28103.512    5.0492289 
[...]
   22890     471.2801   -7993.0508   -7940.4788    -689.0974    27715.445    7.8395303 
   22900     464.0038   -7992.7875   -7941.0272   -493.74322    27709.735    7.8364698 
   22910    464.06308   -7993.2295   -7941.4625   -348.06602    27701.949    7.8376715 
   22920    458.13973   -7992.8937   -7941.7876   -307.77519    27692.636    7.8417756 
   22930    462.16549   -7993.5711   -7942.0158   -454.99225    27681.922    7.8477749 
   22940    478.69399   -7995.5775   -7942.1784   -731.72642    27669.212    7.8562577 
   22950    486.97565   -7996.6336   -7942.3107   -729.68705     27653.53    7.8665245 
   22960    490.18522   -7997.1075   -7942.4266   -499.73223    27634.825    7.8765904 
   22970    499.27073   -7998.2355   -7942.5411   -305.80809    27613.887    7.8875242 
   22980    488.63503   -7997.1677   -7942.6597    23.759025    27591.551    7.9034335 
   22990    470.80132   -7995.2789   -7942.7603    367.86245    27569.078    7.9243397 
   23000    465.60617   -7994.7529   -7942.8138    487.07348    27547.748    7.9465851 
   23010    469.89855    -7995.238   -7942.8201    587.50436    27528.109     7.967438 
   23020    471.59602   -7995.3938   -7942.7866    804.66378    27510.624    7.9858792 
   23030    473.30553   -7995.5175   -7942.7196    1049.9335    27496.137    8.0008233 
   23040    473.49906   -7995.4395     -7942.62    1236.3759    27485.617     8.012281 
   23050    481.78314   -7996.2381   -7942.4945    1330.0871    27479.802    8.0211259 
   23060    486.65197   -7996.6428   -7942.3561    1424.1606    27479.142    8.0279626 
   23070    486.74075   -7996.5142   -7942.2175    1277.4023    27483.948    8.0359718 
   23080    490.68877    -7996.813    -7942.076    947.95183    27493.759    8.0483989 
   23090    503.84127   -7998.1404   -7941.9362    502.85903    27507.353    8.0656728 
   23100    510.03113   -7998.7148   -7941.8201    211.17556    27523.111    8.0855995 
   23110    501.63712   -7997.7064    -7941.748      135.146    27539.965    8.1030093 
   23120    494.79663   -7996.9044   -7941.7091   -7.3284634    27557.505    8.1127788 
   23130     494.7203   -7996.8748   -7941.6881    -120.9644    27575.233    8.1129194 
   23140    496.52386   -7997.0711   -7941.6831   -319.49559    27592.642     8.104905 
   23150    492.46858   -7996.6293   -7941.6937    -413.8134     27609.07    8.0938003 
   23160    486.68658   -7996.0047    -7941.714   -615.68564    27624.016    8.0845469 
   23170    481.46932   -7995.4419   -7941.7333   -775.32835    27636.725    8.0802904 
   23180    480.48288   -7995.3428   -7941.7442   -876.77848    27646.552    8.0811516 
   23190    485.58922   -7995.9138   -7941.7456   -994.38191    27653.036    8.0846411 
   23200    489.17735   -7996.3138   -7941.7453   -940.87386    27655.714    8.0897758 
   23210    490.66679   -7996.4855   -7941.7508   -694.25328    27654.767    8.0962574 
   23220     501.3268   -7997.6954   -7941.7717   -551.02069    27651.025    8.1020122 
   23230    506.98209   -7998.3836    -7941.829   -421.69968    27645.052    8.1062017 
   23240    498.25343   -7997.5177   -7941.9368    -206.9557    27637.364    8.1115238 
   23250    491.66987   -7996.9338   -7942.0873   -19.610658     27628.76    8.1197649 
   23260    491.89621   -7997.1415   -7942.2697    113.42712    27619.956    8.1296679 
   23270    500.09805   -7998.2805   -7942.4938    149.23664     27611.44    8.1386654 
   23280      498.864   -7998.4206   -7942.7716    124.47806    27603.365    8.1436358 
   23290    494.08726   -7998.2174   -7943.1013    87.111409    27595.674      8.14055 
   23300    490.68097   -7998.2106   -7943.4744    199.43213    27588.288    8.1304424 
   23310    477.64153   -7997.1472   -7943.8656    491.86963    27581.666    8.1184761 
   23320     463.8689   -7995.9786   -7944.2333    757.42572    27576.896    8.1080551 
   23330    464.02346    -7996.316   -7944.5535    884.72487    27574.993    8.1016526 
   23340    468.32724   -7997.0681   -7944.8255    1000.3977    27576.557    8.1007002 
   23350    471.06819   -7997.6015   -7945.0531    1037.1603    27582.074    8.1022998 
   23360    476.74054   -7998.4269   -7945.2458    834.09932    27591.681    8.1030637 
   23370    477.37085   -7998.6618   -7945.4104    583.45023    27604.738    8.1014663 
   23380    471.29302    -7998.122   -7945.5486     403.1316    27620.359    8.0967433 
   23390    466.97798   -7997.7415   -7945.6495    169.06226    27637.816    8.0878206 
   23400    474.96431   -7998.6934   -7945.7104   -195.53313     27656.18    8.0744526 
   23410    481.07993   -7999.4045   -7945.7393   -452.83604    27674.106    8.0589668 
   23420    481.30126   -7999.4387   -7945.7488   -579.72143    27690.562    8.0421581 
   23430    485.77926   -7999.9339   -7945.7445   -667.24508        27705    8.0232873 
   23440    490.66919   -8000.4712   -7945.7363   -761.75394    27717.009     8.005291 
   23450    486.14692    -7999.963   -7945.7325   -797.82832    27726.208    7.9932363 
   23460    480.06197    -7999.281   -7945.7293   -846.46196    27732.364    7.9877522 
   23470    478.03244   -7999.0377   -7945.7125   -900.84058    27735.249    7.9844734 
   23480    490.05846   -8000.3498   -7945.6831   -976.08522    27734.586    7.9784557 
   23490    493.91994   -8000.7553   -7945.6578   -900.97305    27730.066     7.968112 
   23500    481.15973   -7999.3152   -7945.6411   -618.11634    27721.957    7.9532406 
   23510    472.25755   -7998.2898   -7945.6088   -386.37772    27711.222    7.9351412 
   23520    467.82928   -7997.7172   -7945.5302   -248.07169    27698.747    7.9181233 
   23530    471.42305   -7997.9781   -7945.3901   -271.31645    27685.021    7.9057986 
   23540    474.99285   -7998.1685   -7945.1823    -224.0679        27670    7.9004944 
   23550    469.86277   -7997.3153   -7944.9014    1.3692694      27653.9    7.9025558 
   23560    474.05961    -7997.416    -7944.534     148.5867    27637.511    7.9082803 
   23570    490.75042   -7998.8219   -7944.0779    168.13482    27621.401    7.9139969 
   23580    503.43419   -7999.7296   -7943.5707    160.33314    27605.688    7.9182288 
   23590    505.61819   -7999.4707   -7943.0683    118.97306     27590.33    7.9192093 
   23600    498.72995   -7998.2423   -7942.6083    168.63321    27575.242    7.9156423 
   23610    495.88375   -7997.5132   -7942.1967    145.07814    27560.558    7.9086474 
   23620    494.48915   -7996.9906   -7941.8296    32.505448    27546.203    7.9004369 
   23630    491.88764   -7996.3766   -7941.5058   -105.37469    27531.738    7.8924021 
   23640    485.47782   -7995.3741   -7941.2183   -66.893817     27516.71    7.8863353 
   23650    489.89894   -7995.6062   -7940.9572   -23.649067    27501.172    7.8820604 
   23660    504.82388    -7997.041   -7940.7271   -22.829617    27485.285    7.8775145 
   23670    513.85688   -7997.8749   -7940.5534   -29.482836    27469.066    7.8704527 
   23680    509.55782   -7997.2909    -7940.449    118.64334    27452.549    7.8588596 
   23690    506.66772   -7996.9243   -7940.4048    284.68109    27436.245    7.8437978 
   23700    499.27607   -7996.1007   -7940.4057    437.17355    27420.809    7.8293674 
   23710    489.59094     -7995.05   -7940.4354     502.6829    27406.827    7.8189754 
   23720    485.33862   -7994.6128   -7940.4725    540.95021    27394.604    7.8129674 
   23730    482.12717    -7994.285    -7940.503    700.29985    27384.374     7.809032 
   23740    484.40106   -7994.5588   -7940.5231    753.20779    27376.679    7.8043137 
   23750    489.04161   -7995.0935   -7940.5401    744.28441    27371.794    7.7968711 
   23760    486.17083   -7994.7898   -7940.5567    733.27723    27369.735    7.7849999 
   23770    482.16853   -7994.3533   -7940.5667    755.15266    27370.518     7.768894 
   23780    482.00224   -7994.3272   -7940.5591    569.11362    27374.159    7.7517464 
   23790     487.2321   -7994.8839   -7940.5324    240.62328    27380.004    7.7364555 
   23800    489.64792   -7995.1134   -7940.4924   -30.276261    27386.854     7.722264 
   23810    492.69636   -7995.4108   -7940.4497   -120.68777    27393.687    7.7080438 
   23820    495.55889   -7995.6916   -7940.4113   -47.092819    27400.147    7.6942355 
   23830     498.7777   -7996.0268   -7940.3874   0.26036124    27406.451    7.6819133 
   23840    493.59165   -7995.4477   -7940.3868    71.428854    27412.809    7.6714895 
   23850     489.4419   -7995.0085   -7940.4106     99.53496    27419.464    7.6602798 
   23860    491.79621   -7995.3149   -7940.4543    66.789847    27426.516    7.6458305 
   23870    499.05144   -7996.1944   -7940.5244    112.15039    27433.909    7.6299166 
   23880    507.72448   -7997.2842   -7940.6467    152.01933    27441.782    7.6159232 
   23890    509.43755   -7997.6802   -7940.8517    236.04821    27450.316    7.6054437 
   23900    500.60487   -7997.0028   -7941.1595    434.65376     27459.87    7.5990816 
   23910    481.33812   -7995.2489   -7941.5549    581.88519     27471.14    7.5950601 
   23920    469.39062   -7994.3599   -7941.9987    625.60418    27484.724    7.5891784 
   23930    472.66225   -7995.1919   -7942.4657    500.61735    27500.784    7.5793679 
   23940    472.67201   -7995.6714   -7942.9441    414.63768    27518.932    7.5667181 
   23950    463.74824   -7995.1355   -7943.4036    343.91737    27538.841    7.5520802 
   23960    460.45856   -7995.1794   -7943.8146    279.98549    27560.244    7.5360154 
   23970    464.10262   -7995.9369   -7944.1656     225.6259    27582.893    7.5210824 
   23980    468.61126   -7996.7316   -7944.4573    130.86277    27606.599    7.5096948 
   23990    474.86228   -7997.6718   -7944.7002   -74.938424    27630.958    7.5040802 
   24000    468.94004   -7997.2109   -7944.8999   -165.66744    27655.223    7.5060119 
   24010    455.70736   -7995.8784   -7945.0436   -62.405389    27679.061    7.5131323 
   24020    459.63218    -7996.396   -7945.1233   -140.22062    27702.728    7.5204682 
   24030    463.78761    -7996.876   -7945.1398   -357.75313    27725.939    7.5256178 
   24040    470.92989   -7997.6419    -7945.109   -571.16692    27747.863    7.5285838 
   24050    478.61888   -7998.4325   -7945.0418   -685.98988     27767.66    7.5318333 
   24060    483.03557   -7998.8333     -7944.95   -624.51517    27784.872    7.5373325 
   24070    487.44093    -7999.218   -7944.8432   -519.45347    27799.675    7.5453793 
   24080    488.64932   -7999.2365    -7944.727   -426.34752    27812.459    7.5560918 
   24090    487.70807   -7999.0087   -7944.6041   -398.64692    27823.551    7.5688184 
   24100    491.32491   -7999.2843   -7944.4762   -404.64608    27833.059     7.581561 
   24110    489.84767   -7998.9945   -7944.3513   -349.99575    27840.986    7.5938421 
   24120    483.10161    -7998.121   -7944.2303   -266.49397    27847.549    7.6058127 
   24130    485.34464   -7998.2454   -7944.1045   -375.36142    27852.987    7.6165959 
   24140    488.50365   -7998.4652   -7943.9719    -585.3887    27856.888     7.624322 
   24150    484.51442   -7997.8825   -7943.8342   -737.28667    27858.464    7.6276582 
   24160    479.84696   -7997.2073   -7943.6797   -750.57336    27857.164    7.6274261 
   24170    489.03428   -7998.0525      -7943.5   -785.28027     27852.84        7.625 
   24180    491.01531   -7998.0714   -7943.2979   -735.04282    27845.424    7.6236409 
   24190    486.05903   -7997.2958   -7943.0752   -685.34831     27835.08    7.6259859 
   24200    492.35156   -7997.7402   -7942.8177   -670.11297    27822.004    7.6320935 
   24210    494.33541   -7997.6589    -7942.515   -575.74217    27806.325     7.641297 
   24220    495.23799   -7997.4129   -7942.1683   -564.75937    27788.334     7.651749 
   24230    496.59775    -7997.165   -7941.7687   -433.96998    27768.188     7.659334 
   24240    501.88341   -7997.3012   -7941.3153   -283.97656    27746.366    7.6596518 
   24250    502.40084   -7996.8627   -7940.8191   -183.36553    27723.457    7.6529653 
   24260    496.45675   -7995.6823   -7940.3018   -21.234296    27699.899    7.6445559 
   24270    503.43479   -7995.9339    -7939.775    146.21801    27676.302    7.6384662 
   24280     510.2743   -7996.1849    -7939.263    265.13806      27653.3    7.6343811 
   24290    510.73041   -7995.7825   -7938.8098    253.88922    27631.317    7.6304699 
   24300    501.76249   -7994.4045   -7938.4321    243.66251     27610.38    7.6240493 
   24310    500.88503   -7993.9969   -7938.1224    260.65989    27590.453    7.6122016 
   24320    509.39341   -7994.6947   -7937.8711    264.74323    27571.564    7.5975264 
   24330    508.84087   -7994.4469   -7937.6849    410.95054    27553.804    7.5861719 
   24340    508.79887   -7994.3222   -7937.5649    481.12549    27537.665     7.581452 
   24350    505.70642   -7993.9124   -7937.5001    437.70827     27523.39    7.5833716 
   24360    503.95039   -7993.6985   -7937.4821    311.08696    27510.801    7.5900444 
   24370    503.78651    -7993.701   -7937.5029    288.69175    27499.483    7.5983775 
   24380    502.01341   -7993.5575   -7937.5571    520.43572    27489.411    7.6043802 
   24390    500.88688    -7993.515   -7937.6403    795.61576    27481.387    7.6040076 
   24400    503.72978   -7993.9422   -7937.7504    996.75365    27476.446    7.5954829 
   24410    512.21457   -7995.0344   -7937.8961    924.04326    27475.276    7.5826819 
   24420    512.31941   -7995.2366   -7938.0866    777.20359    27477.704    7.5747715 
   24430    501.45192   -7994.2509   -7938.3132    733.96351    27483.206    7.5767446 
   24440    488.00608   -7992.9855   -7938.5477    812.00327     27491.62    7.5835687 
   24450    484.38577   -7992.7978   -7938.7639    846.06762    27503.197    7.5870872 
   24460    494.93201   -7994.1708   -7938.9604    785.28677    27518.055    7.5836258 
   24470      505.359   -7995.5319   -7939.1583    784.52562    27536.022    7.5746558 
   24480    507.43409   -7995.9807   -7939.3756    783.66652    27557.073    7.5634993 
   24490    511.76623   -7996.7063    -7939.618    656.75353    27581.173    7.5537278 
   24500    510.65014    -7996.844   -7939.8802    408.55753    27607.825     7.547195 
   24510    502.10626   -7996.1595   -7940.1488    235.17913    27636.115    7.5431902 
   24520    497.04924   -7995.8507   -7940.4041    97.236204    27665.346    7.5402957 
   24530    499.57308   -7996.3669   -7940.6388   -57.186875     27694.96    7.5367546 
   24540    498.45034   -7996.4602   -7940.8573   -116.09818    27724.378    7.5319171 
   24550    489.43041   -7995.6525   -7941.0558   -130.37309    27753.322    7.5278356 
   24560    481.27435   -7994.9076   -7941.2208    -159.1839    27781.717    7.5279426 
   24570    477.79614   -7994.6424   -7941.3435   -221.16948    27809.437    7.5318562 
   24580    477.23951   -7994.6652   -7941.4284   -264.58381     27836.24    7.5355741 
   24590    473.65237   -7994.3182   -7941.4816   -222.00336     27861.98     7.538306 
   24600    469.20467   -7993.8426   -7941.5021   -230.13399     27886.76    7.5413393 
   24610    479.69795   -7995.0004   -7941.4894   -404.73221     27910.52    7.5444425 
   24620    497.46172    -7996.956   -7941.4634   -567.98736    27932.626    7.5475079 
   24630    503.38128   -7997.6086   -7941.4556   -605.66123    27952.464    7.5518107 
   24640    504.98688   -7997.8176   -7941.4856   -739.43359    27969.794    7.5574648 
   24650    499.46963   -7997.2661   -7941.5495   -899.51222    27984.124    7.5611169 
   24660    494.40985   -7996.7915   -7941.6394   -1029.0782    27994.821    7.5616032 
   24670     491.8814   -7996.6154   -7941.7453   -1041.5463    28001.401    7.5603606 
   24680    489.01361    -7996.412   -7941.8618     -922.582    28003.814    7.5570655 
   24690    484.88345   -7996.0717   -7941.9822   -748.32856    28002.517    7.5525082 
   24700    479.04426    -7995.532   -7942.0939   -604.79488    27998.198    7.5505766 
   24710    485.96171   -7996.4026   -7942.1928   -646.72086      27991.4     7.555142 
   24720    495.73036   -7997.5932   -7942.2938   -796.57142    27981.971    7.5661372 
   24730    489.87649   -7997.0601   -7942.4136   -740.81013    27969.425    7.5786396 
   24740    475.59877   -7995.5915   -7942.5377   -449.82359    27954.006    7.5872567 
   24750    469.18766   -7994.9786   -7942.6401   -222.16717    27936.777    7.5884235 
   24760    471.04987   -7995.2535   -7942.7072   -130.11918    27918.636    7.5809031 
   24770     475.9832   -7995.8367     -7942.74    24.370941    27900.048    7.5672806 
   24780    484.18502   -7996.7608   -7942.7493    144.59479    27881.572    7.5532401 
   24790    485.71891   -7996.9275   -7942.7448    244.21762    27863.701    7.5429808 
   24800    485.87762   -7996.9332   -7942.7329    344.84995    27846.854     7.537919 
   24810    493.62067   -7997.7802    -7942.716    379.87774    27831.385    7.5365901 
   24820    502.80685   -7998.8004   -7942.7116    369.18821     27817.44    7.5364118 
   24830    502.87377   -7998.8388   -7942.7424    391.42373    27805.012    7.5340599 
   24840    498.75586   -7998.4568   -7942.8199    442.85939    27794.175    7.5275779 
   24850    496.20644   -7998.2974   -7942.9449    457.30753    27785.108    7.5189732 
   24860    492.51262   -7998.0606   -7943.1201    359.91431    27777.825    7.5102738 
   24870    484.30632   -7997.3674   -7943.3423    249.95242     27771.98    7.5034244 
   24880    479.75771   -7997.1175   -7943.5998    84.794802    27767.098    7.4988603 
   24890    480.27823   -7997.4589   -7943.8832   -31.201261    27762.569    7.4943614 
   24900    478.62381   -7997.5811   -7944.1899   -91.315416    27757.925    7.4886076 
   24910    476.05887   -7997.6155   -7944.5104   -170.69612    27752.908    7.4817483 
   24920    471.34251   -7997.4106   -7944.8316   -150.12019    27747.255    7.4750212 
   24930    462.14551   -7996.6822   -7945.1292    79.581459    27741.083    7.4690429 
   24940    461.68133   -7996.8853   -7945.3841      187.174    27735.151    7.4623512 
   24950    470.40546   -7998.0707   -7945.5963     137.4455    27729.889    7.4539777 
   24960    476.81456   -7998.9717   -7945.7823     94.56755    27725.166     7.445292 
   24970    473.07174   -7998.7209   -7945.9491    122.70023    27720.826    7.4393034 
   24980    468.20882   -7998.3198   -7946.0904    108.45232    27716.942    7.4382579 
   24990    464.99775    -7998.065   -7946.1938    79.999837    27713.494    7.4411928 
   25000    460.63157   -7997.6361    -7946.252    36.764441     27710.35    7.4447412 
Loop time of 16112.5 on 16 procs for 20000 steps with 864 atoms

Performance: 0.107 ns/day, 223.785 hours/ns, 1.241 timesteps/s
97.9% CPU use with 16 MPI tasks x 1 OpenMP threads

MPI task timing breakdown:
Section |  min time  |  avg time  |  max time  |%varavg| %total
---------------------------------------------------------------
Pair    | 13518      | 15132      | 15849      | 571.9 | 93.92
Bond    | 0.0021195  | 0.0061467  | 0.011692   |   3.7 |  0.00
Neigh   | 0.22108    | 0.24577    | 0.27127    |   3.0 |  0.00
Comm    | 192.4      | 799.31     | 2315.5     |2263.9 |  4.96
Output  | 1.4359     | 1.4635     | 1.8677     |   8.6 |  0.01
Modify  | 7.0337     | 179.01     | 346.63     | 965.6 |  1.11
Other   |            | 0.112      |            |       |  0.00

Nlocal:        54.0000 ave          62 max          47 min
Histogram: 1 3 1 2 2 0 3 1 2 1
Nghost:        412.125 ave         448 max         383 min
Histogram: 3 2 1 2 1 2 2 1 0 2
Neighs:         0.00000 ave           0 max           0 min
Histogram: 16 0 0 0 0 0 0 0 0 0
FullNghs:      1658.88 ave        2079 max        1351 min
Histogram: 2 3 1 2 2 1 1 1 2 1

Total # of neighbors = 26542
Ave neighs/atom = 30.719907
Ave special neighs/atom = 0.0000000
Neighbor list builds = 2000
Dangerous builds = 2000
unfix   3
                
Total wall time: 5:35:50
