LAMMPS (29 Sep 2021 - Update 3)
OMP_NUM_THREADS environment is not set. Defaulting to 1 thread. (src/comm.cpp:98)
  using 1 OpenMP thread(s) per MPI task
units	metal
atom_style	full

read_data	mixed.data
Reading data file ...
  orthogonal box = (0.0000000 0.0000000 0.0000000) to (19.174564 18.334371 80.209106)
  2 by 1 by 8 MPI processor grid
  reading atoms ...
  864 atoms
Finding 1-2 1-3 1-4 neighbors ...
  special bond factors lj:    0        0        0       
  special bond factors coul:  0        0        0       
     0 = max # of 1-2 neighbors
     0 = max # of 1-3 neighbors
     0 = max # of 1-4 neighbors
     1 = max # of special neighbors
  special bonds CPU = 0.003 seconds
  read_data CPU = 0.030 seconds

pair_style	quip
pair_coeff	* * /ocean/projects/cts180021p/wuziqi/clease/mint-PD/PhaseDiagram-Clease/Liquid/GAP_potential/gap_LiKCl.xml "Potential xml_label=GAP_2021_9_27_0_1_17_37_618" 17 19 3

neighbor	0.3 bin
neigh_modify	delay 10

timestep	0.001
compute	msd all msd
thermo_style	custom step temp pe etotal press vol c_msd[4]
thermo	10
dump	1 all custom 10 xyz-mix.dump type id x y z
dump	2 all custom 10 force-mix.dump type id fx fy fz

fix     1 all nve
run     2000
Neighbor list info ...
  update every 1 steps, delay 10 steps, check yes
  max neighbors/atom: 2000, page size: 100000
  master list distance cutoff = 6.22
  ghost atom cutoff = 6.22
  binsize = 3.11, bins = 7 6 26
  1 neighbor lists, perpetual/occasional/extra = 1 0 0
  (1) pair quip, perpetual
      attributes: full, newton on
      pair build: full/bin
      stencil: full/bin/3d
      bin: standard
Per MPI rank memory allocation (min/avg/max) = 8.893 | 8.896 | 8.899 Mbytes
Step Temp PotEng TotEng Press Volume c_msd[4] 
       0            0   -7433.4988   -7433.4988   -3276.2935    28197.798            0 
      10    52.404798   -7439.3508    -7433.505   -3251.1444    28197.798 0.00037653742 
      20    139.99986   -7449.1283   -7433.5111   -2882.4638    28197.798 0.0046525409 
      30    184.89844   -7454.1347    -7433.509   -2125.0677    28197.798  0.015985103 
      40    208.94932   -7456.8149   -7433.5063   -1662.4669    28197.798  0.031135218 
      50    246.75939   -7461.0345   -7433.5082   -1664.6184    28197.798   0.04535964 
      60    276.85124   -7464.3928   -7433.5096   -1760.8171    28197.798  0.058304449 
      70    281.74509   -7464.9368   -7433.5077   -1780.9744    28197.798  0.071745136 
      80    278.62215   -7464.5886   -7433.5078   -1830.5145    28197.798  0.086537519 
      90    271.63877   -7463.8088   -7433.5071   -1784.3037    28197.798   0.10323335 
     100    268.54351   -7463.4633   -7433.5068   -1527.9053    28197.798   0.12174182 
     110    273.48277   -7464.0152   -7433.5078   -1273.3517    28197.798   0.14167857 
     120    278.69582   -7464.5968   -7433.5079   -1205.0202    28197.798   0.16248057 
     130    280.47217   -7464.7953   -7433.5082   -1323.1784    28197.798   0.18317475 
     140    277.20241   -7464.4295   -7433.5071   -1372.0801    28197.798   0.20283031 
     150    282.78617    -7465.053   -7433.5078   -1505.2169    28197.798   0.22058727 
     160     290.1136   -7465.8712   -7433.5086   -1674.0159    28197.798   0.23758181 
     170    284.88573   -7465.2876   -7433.5082   -1706.4981    28197.798   0.25570249 
     180    274.35333   -7464.1113   -7433.5068   -1718.6147    28197.798    0.2744632 
     190    276.48598   -7464.3491   -7433.5066   -1804.1052    28197.798   0.29182989 
     200    291.90348   -7466.0708   -7433.5085   -1940.0736    28197.798   0.30710935 
     210    297.83834   -7466.7336   -7433.5092    -1986.102    28197.798    0.3219422 
     220    286.77102   -7465.4971   -7433.5074   -2078.2599    28197.798   0.33684136 
     230    279.78719   -7464.7179   -7433.5072   -2190.0553    28197.798   0.35047641 
     240    281.73444   -7464.9357   -7433.5078    -2262.753    28197.798   0.36287355 
     250    285.80956   -7465.3901   -7433.5076    -2332.639    28197.798   0.37537005 
     260    292.11854   -7466.0939   -7433.5076   -2475.3781    28197.798    0.3890125 
     270    301.52725   -7467.1437   -7433.5079    -2617.426    28197.798   0.40407374 
     280    309.73897   -7468.0605   -7433.5086   -2752.0145    28197.798   0.42025778 
     290     308.0229   -7467.8686   -7433.5082   -2715.4369    28197.798   0.43692842 
     300    301.85764   -7467.1796   -7433.5069   -2565.9773    28197.798   0.45280033 
     310    304.69869   -7467.4976    -7433.508   -2628.8465    28197.798   0.46676108 
     320     307.0623   -7467.7615   -7433.5082   -2768.8787    28197.798   0.47983687 
     330    305.41709   -7467.5778    -7433.508      -2765.1    28197.798   0.49324396 
     340    302.56991     -7467.26   -7433.5078   -2716.3178    28197.798   0.50716353 
     350    300.34229   -7467.0112   -7433.5075   -2658.0167    28197.798   0.52121437 
     360    300.13685   -7466.9889   -7433.5081   -2535.9529    28197.798    0.5349885 
     370    296.38971   -7466.5706   -7433.5079   -2515.3636    28197.798   0.54851429 
     380    291.53808   -7466.0294   -7433.5079    -2529.736    28197.798   0.56205372 
     390     290.1885   -7465.8788   -7433.5078   -2482.9536    28197.798   0.57569719 
     400    291.57655   -7466.0341   -7433.5083   -2460.7608    28197.798   0.58950816 
     410    291.81754   -7466.0603   -7433.5076   -2418.5806    28197.798   0.60282046 
     420    298.48497   -7466.8046   -7433.5081   -2435.9821    28197.798   0.61423917 
     430    304.86003   -7467.5166    -7433.509   -2500.2682    28197.798   0.62410746 
     440    300.53815   -7467.0334   -7433.5079   -2482.1647    28197.798   0.63337578 
     450    297.90616   -7466.7393   -7433.5074   -2405.1031    28197.798   0.64188608 
     460    305.04414   -7467.5363   -7433.5082   -2344.8776    28197.798   0.64994066 
     470    313.18339   -7468.4445   -7433.5084   -2312.4999    28197.798   0.65909106 
     480    315.98519   -7468.7577   -7433.5091    -2216.287    28197.798   0.67012074 
     490    307.67199   -7467.8296   -7433.5083   -2089.9887    28197.798   0.68241459 
     500    299.91726   -7466.9628   -7433.5066    -1960.647    28197.798   0.69416783 
     510    308.53611   -7467.9263   -7433.5087   -1960.4852    28197.798   0.70416346 
     520    314.23793   -7468.5623   -7433.5086    -2016.915    28197.798   0.71410879 
     530    312.42144   -7468.3595   -7433.5085   -1984.2099    28197.798   0.72571833 
     540    307.01613   -7467.7561    -7433.508   -1823.8796    28197.798   0.73855723 
     550    303.44774   -7467.3583   -7433.5082   -1689.4313    28197.798   0.75080443 
     560    302.80868   -7467.2868   -7433.5081   -1721.8734    28197.798   0.76028881 
     570    306.14156   -7467.6591   -7433.5086   -1896.0317    28197.798   0.76577262 
     580    306.93991    -7467.748   -7433.5084   -2073.7003    28197.798   0.76829475 
     590    304.78082   -7467.5068   -7433.5081   -2160.3833    28197.798   0.76976388 
     600    306.71546   -7467.7219   -7433.5073    -2171.429    28197.798   0.77165514 
     610    317.96515   -7468.9782   -7433.5087   -2147.6693    28197.798   0.77469492 
     620    323.44563   -7469.5898    -7433.509   -2055.8519    28197.798   0.77920454 
     630    319.88606   -7469.1913   -7433.5076   -1961.8604    28197.798   0.78506808 
     640    323.09929   -7469.5502   -7433.5079   -1999.1427    28197.798   0.79162168 
     650    330.22678   -7470.3467   -7433.5094   -2105.0366    28197.798     0.799145 
     660    325.03755   -7469.7673   -7433.5088   -2197.0267    28197.798   0.80803625 
     670    314.39576   -7468.5789   -7433.5076   -2235.4599    28197.798    0.8167893 
     680    312.43479   -7468.3614   -7433.5088   -2308.4479    28197.798   0.82351397 
     690    307.50893   -7467.8118   -7433.5087   -2373.4206    28197.798   0.82881195 
     700    298.71836   -7466.8303   -7433.5078   -2292.5189    28197.798   0.83403601 
     710    295.74109    -7466.498   -7433.5077   -2234.6653    28197.798    0.8394168 
     720    303.45036   -7467.3579   -7433.5076   -2292.9548    28197.798   0.84453546 
     730    318.26702   -7469.0126   -7433.5094    -2401.384    28197.798   0.84949034 
     740    319.34393    -7469.132   -7433.5087   -2368.6494    28197.798   0.85545651 
     750    314.90106   -7468.6353   -7433.5076   -2297.5898    28197.798   0.86221479 
     760    318.89541   -7469.0818   -7433.5085   -2261.3305    28197.798     0.868374 
     770    321.30469   -7469.3508   -7433.5087   -2239.4677    28197.798   0.87328839 
     780     318.1442   -7468.9979   -7433.5085   -2193.7408    28197.798   0.87694376 
     790    311.48519   -7468.2551   -7433.5085   -2098.5648    28197.798   0.87939462 
     800    306.47815   -7467.6949   -7433.5068   -1982.0979    28197.798   0.88141231 
     810    316.96018   -7468.8665   -7433.5091    -1983.996    28197.798   0.88434461 
     820    319.28905   -7469.1263   -7433.5092    -1988.341    28197.798   0.89005413 
     830    311.73538   -7468.2821   -7433.5075   -1995.9118    28197.798   0.89840964 
     840    311.65354   -7468.2738   -7433.5084   -2001.3043    28197.798   0.90692957 
     850    312.67197   -7468.3873   -7433.5082   -2004.4044    28197.798    0.9137187 
     860    315.83867   -7468.7406   -7433.5083   -2079.1873    28197.798   0.91829904 
     870    320.71995   -7469.2858    -7433.509   -2168.5597    28197.798   0.92142159 
     880    320.57652   -7469.2691   -7433.5083   -2173.6428    28197.798   0.92519045 
     890    318.91447   -7469.0843   -7433.5089   -2156.9615    28197.798   0.93124072 
     900    312.61391   -7468.3805   -7433.5079    -2099.649    28197.798   0.93924677 
     910    312.10913   -7468.3244   -7433.5082   -2047.7717    28197.798   0.94673589 
     920    316.04181   -7468.7639    -7433.509   -1987.5347    28197.798   0.95198829 
     930    315.03787    -7468.652    -7433.509   -1844.1499    28197.798   0.95534233 
     940    309.80641    -7468.067   -7433.5076   -1661.8607    28197.798   0.95785559 
     950    314.68824   -7468.6122   -7433.5082   -1685.0824    28197.798   0.96071691 
     960    324.95429   -7469.7579   -7433.5087   -1820.0386    28197.798   0.96600779 
     970    331.35116   -7470.4718   -7433.5091    -1957.237    28197.798   0.97519119 
     980     329.7825   -7470.2967    -7433.509   -1901.9892    28197.798   0.98742251 
     990    322.65959   -7469.5016   -7433.5084   -1774.2109    28197.798    1.0002266 
    1000    316.60889   -7468.8269   -7433.5087   -1746.2277    28197.798     1.011533 
    1010    311.25193    -7468.229   -7433.5084   -1845.6806    28197.798      1.02082 
    1020    307.20804   -7467.7784   -7433.5089   -2068.9867    28197.798    1.0281087 
    1030    300.75734    -7467.058    -7433.508   -2239.9958    28197.798    1.0338805 
    1040    299.87308   -7466.9592   -7433.5079   -2372.2706    28197.798    1.0391214 
    1050    306.88679   -7467.7423   -7433.5086   -2472.0727    28197.798    1.0450663 
    1060    312.67567   -7468.3884    -7433.509   -2543.5336    28197.798    1.0516895 
    1070     312.8664   -7468.4091   -7433.5084   -2570.2571    28197.798    1.0572381 
    1080    312.76626   -7468.3979   -7433.5084   -2664.3961    28197.798    1.0603499 
    1090    312.81427   -7468.4033   -7433.5084   -2700.2906    28197.798    1.0615235 
    1100    312.52187   -7468.3705   -7433.5082   -2687.2237    28197.798    1.0621707 
    1110    312.75056   -7468.3963   -7433.5085   -2641.2369    28197.798    1.0634308 
    1120    311.63928   -7468.2725   -7433.5087   -2523.8064    28197.798    1.0656422 
    1130    309.44865   -7468.0275    -7433.508   -2319.4135    28197.798    1.0686259 
    1140    314.06598   -7468.5434   -7433.5089   -2167.0113    28197.798    1.0722483 
    1150    316.84713   -7468.8536   -7433.5088   -2057.6275    28197.798    1.0766087 
    1160     317.6305   -7468.9401    -7433.508   -1909.0819    28197.798    1.0804093 
    1170    324.21655   -7469.6761   -7433.5093   -1794.4319    28197.798    1.0823291 
    1180    324.83339   -7469.7444   -7433.5088   -1595.8979    28197.798      1.08324 
    1190     323.0656    -7469.547   -7433.5086   -1375.8946    28197.798    1.0843645 
    1200    326.00229   -7469.8755   -7433.5094   -1363.0761    28197.798    1.0866847 
    1210    323.60131   -7469.6075   -7433.5093   -1443.8788    28197.798    1.0914376 
    1220    314.86633   -7468.6315   -7433.5077    -1441.619    28197.798    1.0987426 
    1230    317.32768   -7468.9064    -7433.508   -1559.6432    28197.798    1.1065849 
    1240    326.61768   -7469.9442   -7433.5095    -1737.292    28197.798    1.1124274 
    1250    327.91435   -7470.0882   -7433.5088   -1749.2493    28197.798    1.1148136 
    1260    327.41425   -7470.0321   -7433.5085   -1712.0432    28197.798    1.1139762 
    1270    328.75653   -7470.1825   -7433.5092   -1683.8137    28197.798    1.1115386 
    1280    325.80598   -7469.8529   -7433.5088   -1538.0149    28197.798    1.1099118 
    1290    323.59797   -7469.6061   -7433.5083    -1393.147    28197.798    1.1110394 
    1300    328.71985   -7470.1782    -7433.509   -1431.9253    28197.798    1.1157633 
    1310    332.05384   -7470.5509   -7433.5098   -1601.7046    28197.798    1.1238464 
    1320    326.34719   -7469.9128   -7433.5083    -1756.141    28197.798    1.1334851 
    1330    324.68525   -7469.7281    -7433.509   -1866.9567    28197.798    1.1424768 
    1340    323.62895   -7469.6106   -7433.5093   -1820.3961    28197.798    1.1503474 
    1350    321.18374   -7469.3371   -7433.5086   -1632.9848    28197.798    1.1571992 
    1360    323.09507   -7469.5509   -7433.5091   -1587.1482    28197.798    1.1631636 
    1370    324.29232   -7469.6842   -7433.5089   -1616.6449    28197.798    1.1686982 
    1380     326.2503   -7469.9023   -7433.5086   -1636.9188    28197.798     1.173831 
    1390    332.41763   -7470.5906   -7433.5089   -1665.6686    28197.798     1.178143 
    1400     337.5602   -7471.1651   -7433.5097   -1687.4959    28197.798    1.1818866 
    1410    333.85834   -7470.7513   -7433.5089   -1669.0761    28197.798    1.1862746 
    1420    329.15392   -7470.2262   -7433.5086   -1696.7844    28197.798     1.192114 
    1430    328.52491   -7470.1563   -7433.5089   -1763.0447    28197.798    1.1993094 
    1440     327.3183   -7470.0222   -7433.5093   -1740.2368    28197.798    1.2070267 
    1450    320.56166   -7469.2677   -7433.5086   -1571.8358    28197.798    1.2140574 
    1460    317.21612   -7468.8939    -7433.508   -1450.6782    28197.798    1.2193446 
    1470    324.56132   -7469.7143    -7433.509   -1410.6769    28197.798    1.2226826 
    1480    330.13379   -7470.3368   -7433.5098   -1431.8034    28197.798    1.2245776 
    1490    325.99003   -7469.8731   -7433.5084   -1460.0301    28197.798    1.2251991 
    1500    326.34111   -7469.9125   -7433.5087   -1492.8131    28197.798    1.2250425 
    1510    328.98361   -7470.2082   -7433.5096   -1366.0993    28197.798    1.2258269 
    1520    323.19049   -7469.5616   -7433.5092   -1233.2236    28197.798    1.2287949 
    1530    314.30765   -7468.5695    -7433.508   -1166.0146    28197.798     1.233467 
    1540    316.88621   -7468.8578   -7433.5086   -1296.0227    28197.798    1.2387587 
    1550    324.65879   -7469.7256   -7433.5094   -1479.6195    28197.798    1.2448694 
    1560    327.50012   -7470.0423   -7433.5091   -1643.9366    28197.798    1.2525129 
    1570    327.65604   -7470.0595    -7433.509   -1741.9673    28197.798    1.2614899 
    1580    328.47786    -7470.151   -7433.5088   -1769.2005    28197.798    1.2709819 
    1590    329.28696   -7470.2422   -7433.5097   -1803.0203    28197.798    1.2802744 
    1600     321.9951   -7469.4276   -7433.5085   -1826.5634    28197.798    1.2894024 
    1610    317.74199   -7468.9527   -7433.5082   -1871.7877    28197.798    1.2978342 
    1620    322.49906   -7469.4845   -7433.5092   -1926.4056    28197.798    1.3047741 
    1630    324.53767   -7469.7123   -7433.5097    -1886.055    28197.798    1.3106314 
    1640    321.32055   -7469.3524   -7433.5086   -1889.5966    28197.798    1.3165616 
    1650    324.87363   -7469.7495   -7433.5094   -2048.7483    28197.798    1.3231018 
    1660    327.06048   -7469.9934   -7433.5093   -2321.9126    28197.798    1.3301325 
    1670    327.01807    -7469.988   -7433.5087   -2463.2173    28197.798    1.3371232 
    1680    332.73575   -7470.6262    -7433.509   -2473.9756    28197.798    1.3434501 
    1690    340.27634   -7471.4684   -7433.5101   -2358.4231    28197.798     1.349213 
    1700    337.44669   -7471.1522   -7433.5095   -2252.2725    28197.798    1.3549843 
    1710    330.67556    -7470.396   -7433.5086   -2160.1691    28197.798    1.3604068 
    1720    331.67093   -7470.5077   -7433.5093   -2156.9409    28197.798    1.3647557 
    1730    333.01289   -7470.6579   -7433.5098   -2021.7211    28197.798    1.3682441 
    1740    330.44178   -7470.3703    -7433.509   -1850.1577    28197.798    1.3714091 
    1750     332.4665    -7470.596   -7433.5089   -1832.8568    28197.798    1.3748089 
    1760    338.17048   -7471.2334     -7433.51   -1973.1084    28197.798    1.3794872 
    1770    335.21561    -7470.903   -7433.5092   -2005.2986    28197.798    1.3861103 
    1780    331.46871   -7470.4842   -7433.5083    -2006.432    28197.798    1.3935425 
    1790    336.57308   -7471.0542    -7433.509   -1950.7177    28197.798    1.4003036 
    1800    342.16681   -7471.6789   -7433.5097   -1858.6382    28197.798    1.4064058 
    1810    341.53807   -7471.6084   -7433.5093   -1744.4176    28197.798    1.4119797 
    1820    338.74843   -7471.2969    -7433.509   -1716.7454    28197.798    1.4163984 
    1830    337.43007   -7471.1504   -7433.5096   -1688.5283    28197.798    1.4193696 
    1840    332.09753   -7470.5554   -7433.5094   -1600.2009    28197.798    1.4219384 
    1850    325.17964    -7469.783   -7433.5087    -1439.338    28197.798    1.4258708 
    1860    325.05027   -7469.7687   -7433.5089    -1373.363    28197.798    1.4317493 
    1870    331.46526   -7470.4843   -7433.5088    -1327.857    28197.798    1.4388941 
    1880    342.15073   -7471.6771   -7433.5097   -1249.4856    28197.798    1.4469071 
    1890    346.12273   -7472.1203   -7433.5098   -1070.4903    28197.798    1.4557041 
    1900    342.16962    -7471.678   -7433.5085   -929.47635    28197.798    1.4642996 
    1910     342.4351   -7471.7085   -7433.5094   -1069.1378    28197.798    1.4714358 
    1920    340.30349   -7471.4704    -7433.509   -1312.7881    28197.798    1.4769569 
    1930    335.83125   -7470.9717   -7433.5092   -1652.4617    28197.798    1.4812625 
    1940    329.14467   -7470.2254   -7433.5088   -1839.7793    28197.798     1.484747 
    1950    325.46317   -7469.8145   -7433.5086    -1862.611    28197.798    1.4876872 
    1960    325.80538   -7469.8536   -7433.5095   -1803.4783    28197.798    1.4908352 
    1970    322.63237   -7469.4987   -7433.5085   -1762.1388    28197.798    1.4943863 
    1980    323.28026   -7469.5712   -7433.5088   -1849.0487    28197.798    1.4974264 
    1990    326.60106   -7469.9416   -7433.5087   -1955.1148    28197.798     1.499423 
    2000    331.22759   -7470.4581   -7433.5091   -2018.3182    28197.798     1.500266 
Loop time of 631.551 on 16 procs for 2000 steps with 864 atoms

Performance: 0.274 ns/day, 87.715 hours/ns, 3.167 timesteps/s
97.1% CPU use with 16 MPI tasks x 1 OpenMP threads

MPI task timing breakdown:
Section |  min time  |  avg time  |  max time  |%varavg| %total
---------------------------------------------------------------
Pair    | 338.93     | 488        | 629.66     | 378.1 | 77.27
Bond    | 0.00017452 | 0.00035603 | 0.0005846  |   0.0 |  0.00
Neigh   | 0.017024   | 0.021024   | 0.023133   |   1.2 |  0.00
Comm    | 1.4672     | 136.13     | 288.74     | 705.3 | 21.55
Output  | 0.13455    | 3.92       | 9.468      | 205.5 |  0.62
Modify  | 0.0074     | 0.0078623  | 0.0087042  |   0.4 |  0.00
Other   |            | 3.474      |            |       |  0.55

Nlocal:        54.0000 ave          62 max          42 min
Histogram: 1 0 0 1 2 2 4 3 1 2
Nghost:        408.688 ave         443 max         379 min
Histogram: 2 2 1 1 2 3 1 3 0 1
Neighs:         0.00000 ave           0 max           0 min
Histogram: 16 0 0 0 0 0 0 0 0 0
FullNghs:      1634.62 ave        2021 max        1124 min
Histogram: 1 0 1 1 3 1 5 2 0 2

Total # of neighbors = 26154
Ave neighs/atom = 30.270833
Ave special neighs/atom = 0.0000000
Neighbor list builds = 199
Dangerous builds = 198
unfix   1

velocity    all create 525.0 1312343 dist gaussian
fix     2 all npt temp 525.0 525.0 $(100.0*dt) aniso 0.0 1.01325 $(1000.0*dt)
fix     2 all npt temp 525.0 525.0 0.10000000000000000555 aniso 0.0 1.01325 $(1000.0*dt)
fix     2 all npt temp 525.0 525.0 0.10000000000000000555 aniso 0.0 1.01325 1
run     3000
Per MPI rank memory allocation (min/avg/max) = 8.897 | 8.898 | 8.900 Mbytes
Step Temp PotEng TotEng Press Volume c_msd[4] 
    2000          525   -7470.4581   -7411.8935   -1199.5306    28197.798     1.500266 
    2010    499.26636   -7467.5823   -7411.8884   -1142.8829     28195.56    1.4970997 
    2020    455.05598   -7462.5961   -7411.8339   -1060.6538    28189.004    1.4966928 
    2030    431.84502   -7459.8335   -7411.6605   -964.15338    28178.418    1.4964728 
    2040    430.78785   -7459.3767   -7411.3216   -716.06887    28164.235    1.4960826 
    2050    436.22646   -7459.4739   -7410.8122   -460.64663    28147.338    1.4966631 
    2060    428.63361   -7457.9965   -7410.1818   -198.12542    28128.703    1.4983809 
    2070    424.92803   -7456.9153    -7409.514    131.92332    28109.355    1.4999985 
    2080    435.03956   -7457.3985   -7408.8692    296.28727    28090.454    1.5018493 
    2090    445.63614   -7457.9981   -7408.2867    286.52507    28072.627    1.5053419 
    2100    453.14819   -7458.3158   -7407.7664    144.40833    28055.825    1.5108665 
    2110    459.18431   -7458.5007    -7407.278    54.529607      28039.6    1.5189029 
    2120     458.1491   -7457.8985   -7406.7912    26.905169    28023.608     1.529699 
    2130    450.47286   -7456.5321   -7406.2812     81.92659     28007.77    1.5420537 
    2140    451.47492   -7456.0848   -7405.7221    91.350802    27992.241    1.5543697 
    2150    454.86131    -7455.842   -7405.1015    94.509427     27977.09     1.566512 
    2160    451.44449   -7454.7967   -7404.4374    71.935672     27962.33    1.5792206 
    2170    446.49208   -7453.5563   -7403.7495   -31.178355    27947.859    1.5923896 
    2180    445.69935   -7452.7605    -7403.042   -105.78522    27933.349    1.6048071 
    2190    450.25165   -7452.5424   -7402.3161   -175.27862    27918.519    1.6163767 
    2200    450.81432   -7451.8699   -7401.5809   -235.15554    27903.121    1.6281018 
    2210    454.59961   -7451.5554   -7400.8441   -270.49801    27886.957     1.639657 
    2220    462.10815   -7451.6456   -7400.0967   -275.25359    27869.914    1.6501254 
    2230    471.45016   -7451.9317   -7399.3408   -281.31823     27851.98    1.6592076 
    2240    480.77071   -7452.2202   -7398.5895   -286.90902    27833.161    1.6682855 
    2250    483.41848   -7451.7863   -7397.8602   -251.42376    27813.455    1.6803238 
    2260     483.2338   -7451.0575   -7397.1521   -137.71912     27793.03    1.6975975 
    2270     487.4612   -7450.8302   -7396.4531     54.23791    27772.338    1.7197593 
    2280    496.15744   -7451.1034   -7395.7563    87.486985    27751.994     1.744306 
    2290      507.939   -7451.7362   -7395.0749   -126.05385    27732.103    1.7694668 
    2300    506.61311   -7450.9358   -7394.4224   -344.73138    27711.988    1.7951588 
    2310    502.97208   -7449.9139   -7393.8066   -496.96697    27690.873    1.8206717 
    2320    498.50501   -7448.8179    -7393.209    -368.4123    27668.304     1.845724 
    2330    494.45827   -7447.7714   -7392.6138   -4.4924382    27644.766    1.8710192 
    2340    497.08101   -7447.4589   -7392.0087    288.10632    27621.508    1.8969563 
    2350    499.19883   -7447.0715   -7391.3851    511.96897    27599.612    1.9228926 
    2360    507.07262   -7447.3122   -7390.7475    710.41799    27579.924    1.9470627 
    2370    517.15768   -7447.8028    -7390.113    761.19378    27563.092    1.9691134 
    2380    518.54658   -7447.3526    -7389.508    604.44899    27549.218    1.9911236 
    2390     513.6061   -7446.2317   -7388.9382    296.58361    27537.701    2.0152425 
    2400    515.57734   -7445.8996   -7388.3862    152.96787    27527.529    2.0418985 
    2410    533.17345    -7447.322   -7387.8457    116.47678    27518.113     2.071764 
    2420    531.67795   -7446.6468   -7387.3374    321.67982    27509.377     2.105929 
    2430    518.10797   -7444.6696   -7386.8739    379.00344    27501.901    2.1406922 
    2440    513.47974   -7443.7031   -7386.4236    235.19338    27495.885    2.1708736 
    2450     521.5261   -7444.1454   -7385.9684    12.216436    27490.815    2.1953057 
    2460     525.2152   -7444.1014   -7385.5129   -104.05398    27485.943    2.2171655 
    2470     527.1769   -7443.8802   -7385.0728   -246.45881    27480.783    2.2405396 
    2480    532.40406   -7444.0427   -7384.6522   -384.69234    27474.846    2.2677321 
    2490    532.38739   -7443.6467   -7384.2581   -395.17903    27467.693    2.2969753 
    2500     534.4033   -7443.5057   -7383.8923   -375.07037    27459.288    2.3241378 
    2510    545.38014    -7444.396    -7383.558   -453.14213    27449.703    2.3464969 
    2520    543.38049   -7443.8834   -7383.2685   -481.78189    27438.714    2.3634552 
    2530    534.78126   -7442.6807    -7383.025   -237.09032    27426.291    2.3759054 
    2540    537.54244   -7442.7719   -7382.8082    303.89858    27413.367     2.385293 
    2550    541.40576   -7443.0081   -7382.6134    717.88635    27401.718    2.3929554 
    2560    543.05345   -7443.0346   -7382.4562    985.39915    27392.813    2.3998943 
    2570    544.87506   -7443.1273   -7382.3457    952.44766    27387.489    2.4063772 
    2580    545.44081   -7443.1292   -7382.2844    715.57454    27385.602    2.4106252 
    2590    547.56086   -7443.3556   -7382.2743    408.00081    27386.266    2.4101639 
    2600    551.40797   -7443.8292   -7382.3188    255.00676    27388.426    2.4057105 
    2610    557.55104   -7444.6243   -7382.4287    249.91103    27391.496    2.4008308 
    2620    556.79362   -7444.7264   -7382.6152    447.41989    27395.465    2.3978144 
    2630     551.4195    -7444.387   -7382.8754    734.75364    27401.012    2.3950557 
    2640    548.23759   -7444.3594   -7383.2027    859.36101    27409.044    2.3898077 
    2650    535.38865   -7443.2999   -7383.5765    909.62592    27420.012    2.3802502 
    2660      526.987   -7442.7542    -7383.968    787.19612    27434.027    2.3651629 
    2670    523.25677   -7442.7249   -7384.3548    657.86743     27450.68    2.3468601 
    2680    524.36407    -7443.219   -7384.7254    486.90935    27469.471    2.3284531 
    2690    532.94347    -7444.538   -7385.0873    22.069033    27489.643    2.3109322 
    2700    533.68829   -7444.9848    -7385.451   -369.40825    27509.654     2.294596 
    2710    527.23292   -7444.6284   -7385.8148   -685.31938    27528.099    2.2785769 
    2720     523.3508   -7444.5502   -7386.1696   -883.86179    27543.866    2.2617023 
    2730    519.58817   -7444.4682   -7386.5074    -1013.879    27556.266    2.2444644 
    2740    515.77782   -7444.3605   -7386.8247    -1277.034    27564.776    2.2281014 
    2750    505.94827   -7443.5471   -7387.1078   -1286.0444     27568.67    2.2128544 
    2760    502.66255   -7443.4171   -7387.3443   -1229.3031    27567.876    2.1998109 
    2770     507.9627   -7444.2008   -7387.5368   -1245.8557    27562.639    2.1917973 
    2780     509.9007    -7444.577   -7387.6968   -1260.3355    27552.967    2.1895868 
    2790    507.15757   -7444.3992    -7387.825   -978.53618    27538.996    2.1913783 
    2800    512.15241   -7445.0488   -7387.9174   -571.37782    27521.742    2.1945817 
    2810    523.68603   -7446.4039    -7387.986   -175.79126    27502.681     2.196909 
    2820    523.70732   -7446.4663    -7388.046    217.94751    27483.263     2.196758 
    2830    524.29487   -7446.5898   -7388.1039    544.76072    27464.896    2.1938094 
    2840    521.93348   -7446.3817   -7388.1593    760.78823    27448.725    2.1894778 
    2850    511.62504   -7445.2755    -7388.203    871.27056    27435.487    2.1844706 
    2860    515.60866   -7445.7439   -7388.2269    784.56973    27425.486    2.1770164 
    2870     515.6308   -7445.7462   -7388.2268    776.98681    27418.466    2.1669484 
    2880    510.41426   -7445.1406   -7388.2032    859.69109    27414.352    2.1557237 
    2890    517.88257   -7445.9214   -7388.1508    730.48904    27413.289    2.1447342 
    2900    530.85483    -7447.298   -7388.0803    464.20663    27414.813    2.1353673 
    2910    536.99949   -7447.9187   -7388.0156    206.73187    27417.988    2.1282109 
    2920    543.29773   -7448.5871   -7387.9814   -52.571918    27421.884    2.1234319 
    2930    538.27228    -7448.029   -7387.9839   -282.33663    27425.552    2.1212265 
    2940    525.97438   -7446.6861   -7388.0128    -164.3839    27428.306    2.1202503 
    2950    513.35754   -7445.3074   -7388.0416    9.1085319    27430.455    2.1184386 
    2960    510.44294   -7444.9901   -7388.0494    39.289546    27432.586    2.1153811 
    2970     513.1409   -7445.2696   -7388.0279     -182.394    27434.749    2.1120485 
    2980    510.70367   -7444.9439   -7387.9742   -335.69241    27436.271    2.1092775 
    2990    510.47422   -7444.8327   -7387.8886   -360.95071    27436.623    2.1075585 
    3000    508.33189   -7444.4725   -7387.7673   -299.27345      27435.7    2.1077064 
    3010    505.38179   -7443.9814   -7387.6053   -206.25788    27433.723    2.1102889 
    3020    506.80537   -7443.9316   -7387.3967   -306.29631    27430.966    2.1142251 
    3030    510.37135   -7444.0763   -7387.1437   -505.90158    27427.128    2.1172001 
    3040    510.58979   -7443.8119   -7386.8548   -662.51468    27421.546    2.1188876 
    3050    510.78334   -7443.5122   -7386.5335   -714.84022    27413.693    2.1215761 
    3060    520.59826   -7444.2567   -7386.1832   -651.18068    27403.426    2.1267006 
    3070     528.8265   -7444.8118   -7385.8204   -602.78087    27390.951    2.1331265 
    3080     532.9985   -7444.9295   -7385.4727   -456.95481    27376.507    2.1399894 
    3090    534.55485   -7444.7839   -7385.1535    -118.0473    27360.656    2.1485761 
    3100    533.07655   -7444.3279   -7384.8624    292.98964    27344.575    2.1597639 
    3110    541.05902   -7444.9575   -7384.6016    680.85869    27329.706    2.1718478 
    3120    550.15703   -7445.7522   -7384.3814    800.65401    27317.315    2.1839128 
    3130     551.2154   -7445.7084   -7384.2195    670.65078    27307.815    2.1975354 
    3140    550.69322   -7445.5498   -7384.1191    462.07822    27300.767    2.2130599 
    3150    549.45945   -7445.3749   -7384.0819    362.78463    27295.461    2.2288629 
    3160    533.74334   -7443.6366   -7384.0967    484.29295    27291.552    2.2430671 
    3170    525.92296   -7442.8043   -7384.1368    693.10997    27289.437    2.2529039 
    3180    525.11534   -7442.7606   -7384.1832    583.46526     27289.69    2.2578577 
    3190    514.73812   -7441.6466   -7384.2268    426.38071    27292.019    2.2600696 
    3200    508.56254   -7440.9812   -7384.2503    308.06453    27295.863    2.2606394 
    3210    517.58126   -7441.9801   -7384.2432    276.53919    27300.814    2.2600001 
    3220    521.26993   -7442.3601   -7384.2116     295.1364    27306.734    2.2596946 
    3230    526.79693   -7442.9347   -7384.1698    230.15258    27313.638    2.2612016 
    3240    531.68934   -7443.4377   -7384.1269    125.51105    27321.297    2.2646646 
    3250    531.54646   -7443.3889   -7384.0941    112.71137    27329.392    2.2682067 
    3260    536.54109   -7443.9304   -7384.0784    36.388012    27337.824     2.269988 
    3270    537.87185   -7444.0907   -7384.0903   -34.317979    27346.341    2.2706154 
    3280    525.64285    -7442.766   -7384.1298   -98.300736    27354.689     2.271732 
    3290    515.35569   -7441.6657    -7384.177   -222.22516     27362.63    2.2729814 
    3300    519.03038    -7442.107   -7384.2083   -364.87665    27369.734    2.2731531 
    3310     535.6967   -7443.9952   -7384.2374   -414.74139    27375.532    2.2725629 
    3320    527.07441   -7443.0825   -7384.2866    -209.7592    27379.913    2.2724123 
    3330    512.16657   -7441.4793   -7384.3464   -40.451841    27383.512    2.2710919 
    3340    518.03545   -7442.1831   -7384.3954   -169.66434    27386.848    2.2679851 
    3350    516.09669   -7441.9984   -7384.4271   -272.13901    27389.599    2.2647494 
    3360    512.75912   -7441.6405   -7384.4414   -337.25857    27391.399    2.2618761 
    3370    516.84183   -7442.0858   -7384.4313   -569.87146    27391.945    2.2585434 
    3380    520.08631   -7442.4176   -7384.4012   -844.53936    27390.444    2.2535269 
    3390    514.98553   -7441.8004    -7384.353   -850.29799     27386.02    2.2470725 
    3400    509.85306     -7441.15   -7384.2751   -618.68205    27378.656    2.2398287 
    3410    514.04992   -7441.4971    -7384.154   -263.13879    27369.154    2.2315595 
    3420    519.16839   -7441.9015   -7383.9875    24.960075    27358.731    2.2233899 
    3430    524.67563   -7442.3122   -7383.7839     238.6116     27348.43     2.217298 
    3440    534.02499   -7443.1281   -7383.5568    394.73668    27338.998    2.2141121 
    3450    544.72484     -7444.09   -7383.3251    600.30933    27331.026    2.2134343 
    3460    556.63511   -7445.2132   -7383.1197    731.23215    27325.181    2.2123072 
    3470    561.94131   -7445.6561   -7382.9707    818.04103    27321.946    2.2074306 
    3480    561.58212    -7445.546   -7382.9007    864.36811    27321.624    2.1988656 
    3490    560.13627   -7445.3999   -7382.9159     941.5881    27324.414    2.1890575 
    3500    562.82485   -7445.8081   -7383.0241    897.14272    27330.519    2.1800528 
    3510    559.38231    -7445.633    -7383.233     765.6905    27339.803    2.1724806 
    3520     549.7728   -7444.8659   -7383.5379    619.87717    27351.832    2.1648535 
    3530    542.07184   -7444.3855   -7383.9165    490.35379    27366.105    2.1553286 
    3540    540.76968   -7444.6777    -7384.354    461.45867    27382.184    2.1432833 
    3550    536.72678   -7444.7125   -7384.8398     487.7305    27399.946    2.1301454 
    3560    523.76156   -7443.7648   -7385.3384    372.55697    27419.441    2.1183093 
    3570     517.2202   -7443.5049   -7385.8082    224.32401     27440.31     2.108427 
    3580    515.48204   -7443.7276   -7386.2248    105.38267    27462.027    2.0999001 
    3590    513.75634   -7443.8921   -7386.5818   -70.944032    27484.122    2.0918671 
    3600    511.34711   -7443.9197   -7386.8781   -274.11505    27505.959    2.0835658 
    3610    501.54643   -7443.0535   -7387.1052   -433.25152    27526.834    2.0751747 
    3620    502.07358   -7443.2619   -7387.2548   -692.34389    27546.107      2.06731 
    3630    518.19819   -7445.1546   -7387.3488   -991.63173    27562.839    2.0614468 
    3640    521.52794   -7445.5929   -7387.4157   -1037.6956    27576.071    2.0582463 
    3650    521.94771   -7445.6977   -7387.4736   -1105.6478    27585.502    2.0558859 
    3660    520.55315   -7445.5917   -7387.5232   -1111.1054    27590.924    2.0530638 
    3670    518.91139    -7445.449   -7387.5637   -900.53665    27592.374    2.0499638 
    3680    522.05374   -7445.8284   -7387.5926   -565.78169      27590.6    2.0478006 
    3690    534.36255   -7447.2279   -7387.6189   -398.70615    27586.738     2.047452 
    3700    536.60007   -7447.5179   -7387.6594   -423.61187    27581.383    2.0501536 
    3710    527.30918    -7446.543   -7387.7209   -349.67167    27574.551    2.0556646 
    3720    525.49616   -7446.4119    -7387.792   -295.69946    27566.454    2.0623012 
    3730    531.89218   -7447.2046   -7387.8712   -341.82613    27557.281    2.0692775 
    3740    525.70075   -7446.6046   -7387.9619   -445.66191    27546.871    2.0764922 
    3750    519.19802   -7445.9723    -7388.055   -302.59881    27534.962    2.0834141 
    3760    529.14331    -7447.175   -7388.1482   -58.926208    27522.013    2.0909627 
    3770    525.38535   -7446.8561   -7388.2486    292.79134    27508.907    2.1029794 
    3780    515.64063   -7445.8722   -7388.3517    649.67385    27496.896    2.1201861 
    3790    521.63243   -7446.6404   -7388.4515    701.97611    27487.169    2.1394842 
    3800    519.12505   -7446.4605   -7388.5514     543.6958    27479.911    2.1588651 
    3810    513.08775   -7445.8851   -7388.6494    413.87813    27474.639    2.1764669 
    3820    514.02552    -7446.078   -7388.7377    349.24994      27470.9     2.191048 
    3830    510.76617    -7445.788   -7388.8113    257.84319    27468.409    2.2034171 
    3840    511.07139   -7445.8797   -7388.8689     123.2276    27466.841    2.2147007 
    3850    507.72188   -7445.5406   -7388.9034    68.968447     27465.76    2.2261054 
    3860    507.05478   -7445.4662   -7388.9035    -16.03611    27464.926    2.2373247 
    3870    515.70235   -7446.3919   -7388.8645   -217.03697    27463.982    2.2481018 
    3880     516.0153   -7446.3506   -7388.7883   -270.57779    27462.308    2.2596525 
    3890    516.30219   -7446.2703    -7388.676   -179.02068    27459.714    2.2715226 
    3900    516.45577   -7446.1304    -7388.519   -43.774969    27456.486    2.2824683 
    3910    515.76303   -7445.8488   -7388.3147    125.40757    27453.102    2.2925705 
    3920    509.36058   -7444.8764   -7388.0565    370.42282     27450.19    2.3028961 
    3930    499.80044   -7443.4885    -7387.735    590.57004      27448.6    2.3139299 
    3940    500.02008   -7443.1122   -7387.3342     673.8182    27449.083    2.3258224 
    3950    521.57216   -7445.0366   -7386.8544    715.41684    27451.987    2.3389799 
    3960    534.32571    -7445.941   -7386.3362    919.98861     27457.56    2.3545446 
    3970    533.85785   -7445.3988   -7385.8461    1192.3339    27466.503    2.3715251 
    3980    529.67876   -7444.4935    -7385.407    1194.8324    27479.706    2.3851963 
    3990    532.15073   -7444.3786   -7385.0164    950.11464    27497.222    2.3916629 
    4000    530.42023   -7443.8414   -7384.6722    636.93427    27518.228    2.3929701 
    4010    525.16965   -7442.9513   -7384.3678    315.42085     27541.64    2.3937355 
    4020    533.43934   -7443.5932   -7384.0873    -29.99917    27566.284    2.3958689 
    4030    545.70044   -7444.7066   -7383.8329   -266.76623    27590.938     2.399294 
    4040    551.78406   -7445.1814    -7383.629   -399.48235    27614.737    2.4033494 
    4050    554.42542   -7445.3421   -7383.4951   -490.01103    27637.169    2.4084527 
    4060    544.40039    -7444.159   -7383.4303   -605.07775    27657.869     2.416163 
    4070    535.77544   -7443.1813   -7383.4147   -769.95959    27676.401    2.4269436 
    4080    532.95014   -7442.8802   -7383.4289   -866.85778    27692.183    2.4399957 
    4090    522.74879   -7441.7744   -7383.4609    -783.8289    27704.882    2.4539525 
    4100    519.16971    -7441.406   -7383.4919   -668.15024     27714.75    2.4661324 
    4110    534.82831     -7443.18   -7383.5191   -735.88146    27722.109     2.474279 
    4120    540.32067    -7443.837   -7383.5634   -627.46139    27726.852    2.4807748 
    4130    533.09532   -7443.1101   -7383.6426   -425.96359    27729.334    2.4889179 
    4140    528.86139   -7442.7392   -7383.7439   -386.05208    27730.203    2.4996438 
    4150    536.50626     -7443.71   -7383.8619   -477.11729    27729.619    2.5123798 
    4160    549.41566   -7445.3055   -7384.0174   -567.09323    27727.288    2.5268712 
    4170    556.64225   -7446.3386   -7384.2443    -586.1021     27722.88    2.5435445 
    4180    547.72223   -7445.6555   -7384.5563   -443.85768    27716.363     2.561725 
    4190    534.44836   -7444.5484   -7384.9299   -396.93296    27708.166    2.5800391 
    4200     532.9472   -7444.7915   -7385.3404   -591.93431    27698.407    2.5991457 
    4210    529.14807    -7444.802   -7385.7747   -718.79057    27686.492    2.6215459 
    4220     525.1542   -7444.7935   -7386.2117    -750.6798    27671.958    2.6478946 
    4230    532.21709   -7446.0132   -7386.6435   -901.34486    27654.596    2.6774742 
    4240    533.93749   -7446.6324   -7387.0709   -870.41373    27633.982    2.7088269 
    4250    523.60977   -7445.8843   -7387.4748   -677.01623    27610.215    2.7381164 
    4260    518.96439   -7445.7187   -7387.8275   -581.33884    27583.903    2.7617676 
    4270     529.3856   -7447.1853   -7388.1316   -461.54204    27555.467    2.7820517 
    4280    529.95442   -7447.5179   -7388.4007   -284.95809    27525.355    2.8053015 
    4290    526.40415   -7447.3586   -7388.6374   -165.27276    27494.164    2.8343204 
    4300    535.26498   -7448.5607   -7388.8511   -126.33958    27462.341    2.8683309 
    4310    539.31077   -7449.2175   -7389.0565    72.940248    27430.118    2.9054757 
    4320    535.83778   -7449.0302   -7389.2567    492.54477    27398.246    2.9419836 
    4330    530.46409    -7448.621    -7389.447    712.75909    27368.083    2.9735604 
    4340    516.81066   -7447.2651   -7389.6141    563.35653    27340.387    2.9984489 
    4350    511.12197   -7446.7644   -7389.7479    212.78345    27314.668    3.0183649 
    4360    509.79679   -7446.7103   -7389.8417    17.868739    27289.768    3.0392855 
    4370    507.89559   -7446.5479   -7389.8914    259.64511    27265.106    3.0663374 
    4380    512.64009   -7447.0791   -7389.8933    666.56406     27241.45    3.0990364 
    4390    527.78397   -7448.7442   -7389.8691    926.18243    27220.129    3.1329136 
    4400    527.10381   -7448.6462    -7389.847    1165.2229    27202.106    3.1637897 
    4410    511.62818      -7446.9   -7389.8271    1322.5669     27188.21    3.1895387 
    4420    510.84027   -7446.7762   -7389.7912    1221.7755    27178.908    3.2092899 
    4430    516.00948   -7447.2894   -7389.7278    1091.2768    27173.941    3.2239253 
    4440    521.19867   -7447.7867   -7389.6462    798.97659     27172.78    3.2352396 
    4450    521.04811   -7447.6795   -7389.5558    553.33411    27174.459    3.2447167 
    4460    511.65737   -7446.5298   -7389.4536    518.54017    27178.172    3.2532802 
    4470    505.03328   -7445.6639   -7389.3267    523.32305    27183.725    3.2605238 
    4480    498.68673   -7444.7846   -7389.1554    520.38139    27191.138    3.2661278 
    4490    503.55701   -7445.1054   -7388.9329    371.69733    27200.357    3.2706225 
    4500    510.54203   -7445.6081   -7388.6563    263.41607     27210.95    3.2777067 
    4510    524.85788   -7446.8931   -7388.3444    85.300066    27222.477     3.290161 
    4520    533.09414    -7447.488   -7388.0205   -74.988368     27234.33     3.306283 
    4530    530.53226    -7446.894   -7387.7123   -23.923051    27246.027    3.3226179 
    4540    532.89157   -7446.8704   -7387.4255    63.045545     27257.69    3.3360663 
    4550    539.06509   -7447.2961   -7387.1626    84.600901    27269.585    3.3443647 
    4560    545.66599    -7447.807   -7386.9371    51.877312    27281.784    3.3449939 
    4570    549.12988   -7448.0174   -7386.7612   -134.23262    27294.163    3.3375028 
    4580    546.48951   -7447.6012   -7386.6395   -401.33569    27306.077      3.32528 
    4590    547.32077   -7447.6272   -7386.5728   -359.04655    27316.707     3.312138 
    4600    538.98441   -7446.6768   -7386.5523    -157.4047    27326.132    3.3026638 
    4610    537.15145   -7446.4883   -7386.5683   -86.402822    27335.003    3.3007941 
    4620    543.03776   -7447.1925   -7386.6158   -353.38028    27343.488      3.30783 
    4630    540.14925   -7446.9562   -7386.7018   -424.76658    27350.808    3.3225318 
    4640    534.18211   -7446.4125   -7386.8236   -246.67652      27356.7    3.3406189 
    4650    536.60038   -7446.8345   -7386.9759   -66.926592    27361.746    3.3574499 
    4660     533.2651   -7446.6448   -7387.1582   -3.3194178    27366.535    3.3717119 
    4670     529.9808    -7446.488   -7387.3679    14.723427    27371.335    3.3832279 
    4680     529.0861   -7446.6235   -7387.6032    -108.9803    27376.172    3.3924865 
    4690    520.42179   -7445.9151   -7387.8613   -199.95919    27380.667    3.4035413 
    4700    513.81564   -7445.4486   -7388.1317   -301.88456    27384.444    3.4202182 
    4710    517.28575   -7446.1155   -7388.4115   -494.50326    27387.127    3.4418738 
    4720     527.3398   -7447.5464   -7388.7209   -685.20616     27388.07    3.4663311 
    4730    529.96662    -7448.209   -7389.0904   -608.90341    27386.645    3.4917141 
    4740    523.13946   -7447.8964   -7389.5394   -317.11768    27383.081    3.5153759 
    4750    516.00414   -7447.6265   -7390.0655   -112.03453    27378.329    3.5356828 
    4760    512.30035   -7447.8039   -7390.6561   -19.854532    27373.138    3.5541769 
    4770    514.81889   -7448.7273   -7391.2985   -80.673442    27367.791    3.5735248 
    4780    510.61211   -7448.9195   -7391.9599   -130.98756    27362.124    3.5943987 
    4790    500.22765   -7448.3778   -7392.5767    30.950954     27356.03     3.614738 
    4800    494.12115   -7448.2077   -7393.0877    154.58181    27350.023    3.6312567 
    4810    495.54757   -7448.7568   -7393.4778    104.56294    27344.487    3.6417942 
    4820     487.9078   -7448.1696   -7393.7427    157.33951    27339.343    3.6464905 
    4830    489.53892   -7448.4983   -7393.8895    160.72057    27334.722    3.6464512 
    4840    505.04101   -7450.2844   -7393.9463    173.44985    27330.652    3.6445384 
    4850    515.05493   -7451.4045   -7393.9493    279.58197    27327.215    3.6455653 
    4860    516.10732   -7451.5014   -7393.9289     362.2792    27324.739    3.6521312 
    4870    509.50269   -7450.7271   -7393.8914    573.53412    27323.586    3.6630173 
    4880    505.55953   -7450.2265   -7393.8305    662.45104    27324.439    3.6742256 
    4890    506.49382   -7450.2436   -7393.7434    532.06882    27327.606    3.6824783 
    4900    506.79979   -7450.1648   -7393.6306    393.90869    27332.719    3.6872757 
    4910     502.2942   -7449.5242   -7393.4925    352.62537     27339.32    3.6881894 
    4920    497.27442   -7448.7929   -7393.3211    359.80578    27347.272    3.6834967 
    4930     505.7655   -7449.5322   -7393.1133    244.32915    27356.544     3.673394 
    4940    509.76155   -7449.7355   -7392.8708    117.34165     27366.78    3.6614622 
    4950    516.15956   -7450.1869   -7392.6085   -86.076154    27377.506     3.649354 
    4960    522.28819   -7450.5967   -7392.3347   -286.57054    27388.031    3.6377154 
    4970    527.18986   -7450.8762   -7392.0674   -432.38601     27397.63    3.6283959 
    4980    519.26884   -7449.7402    -7391.815   -306.18659    27405.838    3.6239251 
    4990     512.7443   -7448.7682   -7391.5708   -39.659316    27413.054    3.6243823 
    5000    513.12813   -7448.5602     -7391.32    95.344017    27420.143    3.6287361 
Loop time of 963.491 on 16 procs for 3000 steps with 864 atoms

Performance: 0.269 ns/day, 89.212 hours/ns, 3.114 timesteps/s
96.8% CPU use with 16 MPI tasks x 1 OpenMP threads

MPI task timing breakdown:
Section |  min time  |  avg time  |  max time  |%varavg| %total
---------------------------------------------------------------
Pair    | 576.83     | 773.16     | 948.89     | 443.2 | 80.25
Bond    | 0.00029588 | 0.00054431 | 0.00090194 |   0.0 |  0.00
Neigh   | 0.028295   | 0.032314   | 0.035175   |   1.1 |  0.00
Comm    | 6.3817     | 163.64     | 378.44     | 969.6 | 16.98
Output  | 0.14387    | 0.147      | 0.19307    |   3.1 |  0.02
Modify  | 2.931      | 26.499     | 63.731     | 460.9 |  2.75
Other   |            | 0.01057    |            |       |  0.00

Nlocal:        54.0000 ave          60 max          45 min
Histogram: 1 1 1 1 3 0 1 1 3 4
Nghost:        424.938 ave         453 max         403 min
Histogram: 4 0 0 3 3 1 2 0 2 1
Neighs:         0.00000 ave           0 max           0 min
Histogram: 16 0 0 0 0 0 0 0 0 0
FullNghs:      1685.12 ave        1945 max        1237 min
Histogram: 2 0 0 1 1 3 1 1 4 3

Total # of neighbors = 26962
Ave neighs/atom = 31.206019
Ave special neighs/atom = 0.0000000
Neighbor list builds = 300
Dangerous builds = 300
unfix   2

fix     3 all npt temp 525.0 525.0 $(100.0*dt) aniso 1.01325 1.01325 $(1000.0*dt)
fix     3 all npt temp 525.0 525.0 0.10000000000000000555 aniso 1.01325 1.01325 $(1000.0*dt)
fix     3 all npt temp 525.0 525.0 0.10000000000000000555 aniso 1.01325 1.01325 1
run     20000
Per MPI rank memory allocation (min/avg/max) = 8.897 | 8.898 | 8.900 Mbytes
Step Temp PotEng TotEng Press Volume c_msd[4] 
    5000    513.12813   -7448.5602     -7391.32    95.344017    27420.143    3.6287361 
    5010    507.77717   -7447.9471   -7391.3038    153.08592    27420.381    3.6474947 
    5020     510.6605   -7448.2188   -7391.2538    10.453393    27421.122    3.6654154 
    5030    517.48842   -7448.8966     -7391.17   -215.67509    27421.896    3.6787566 
    5040    524.48527    -7449.574   -7391.0669   -473.34318    27421.888    3.6865651 
    5050    530.30723   -7450.1157   -7390.9591   -580.42892    27420.231    3.6911009 
    5060    529.30474   -7449.9006   -7390.8558   -349.92152    27416.596    3.6956858 
    5070    526.81223   -7449.5232   -7390.7565   -111.75674    27411.696    3.7025192 
    5080    526.90764   -7449.4317   -7390.6544    11.070644    27406.344    3.7128873 
    5090    527.06354   -7449.3419   -7390.5471    144.79721    27401.027    3.7273148 
    5100    522.43983   -7448.7083   -7390.4293    236.75316    27396.218    3.7452774 
    5110    526.94489   -7449.0793   -7390.2978    71.743827    27392.171    3.7645781 
    5120    532.70428    -7449.576    -7390.152   -155.58732    27388.358    3.7836275 
    5130    533.28993   -7449.4907   -7390.0014   -114.59532     27384.08    3.8011213 
    5140    542.78987   -7450.3989   -7389.8499    7.3784346    27379.404    3.8138376 
    5150    549.45858   -7451.0023   -7389.7094    178.65849    27374.775    3.8202457 
    5160    548.39275   -7450.7763   -7389.6023    209.13281    27370.726    3.8215243 
    5170    538.15051   -7449.5614   -7389.5299    228.66764    27367.423     3.819317 
    5180    528.90008   -7448.4765   -7389.4769    323.80121    27364.969    3.8163181 
    5190    524.38901   -7447.9183   -7389.4219    414.10746     27363.69    3.8156112 
    5200    529.12871   -7448.3843   -7389.3592    308.54426    27363.835    3.8179406 
    5210    532.13057    -7448.653    -7389.293    103.42002    27365.062    3.8229154 
    5220    530.70925    -7448.431   -7389.2296   -112.31496    27366.673    3.8308784 
    5230    531.13617   -7448.4181   -7389.1691   -219.53848    27367.945    3.8420163 
    5240    534.52848   -7448.7424   -7389.1149   -254.46984    27368.466    3.8553739 
    5250    532.76174   -7448.5073   -7389.0769   -278.86758    27368.079    3.8699404 
    5260    526.81139   -7447.8191   -7389.0525   -312.76805      27366.7    3.8861849 
    5270    530.43936   -7448.2084   -7389.0371   -571.59605    27364.113    3.9042094 
    5280    520.92528   -7447.1362   -7389.0262    -694.2313    27359.508    3.9213796 
    5290    508.14842   -7445.6925   -7389.0078   -631.23469    27352.439    3.9338113 
    5300    504.04347   -7445.1796   -7388.9528   -533.57694    27343.075    3.9416991 
    5310    512.83111   -7446.0573   -7388.8502   -462.15498    27331.725    3.9492776 
    5320    525.56098   -7447.3358   -7388.7087   -371.87581    27318.645     3.961135 
    5330     532.1952   -7447.9176   -7388.5505   -245.08067     27304.16    3.9793961 
    5340    533.92058   -7447.9549   -7388.3953   -209.87852    27288.665    4.0035074 
    5350    534.10652   -7447.8305   -7388.2502    -181.5144    27272.324    4.0319452 
    5360    532.53658   -7447.5219   -7388.1166   -230.05861    27255.195    4.0629702 
    5370    525.89973   -7446.6563   -7387.9913   -306.11872     27237.11    4.0935856 
    5380    523.68624   -7446.2809   -7387.8629    -318.1571    27217.824    4.1195139 
    5390    533.93783   -7447.2866   -7387.7251   -256.14013    27197.299    4.1376132 
    5400    541.24005    -7447.972   -7387.5959   -153.99487    27175.715    4.1484246 
    5410    530.99159   -7446.7214   -7387.4885   -1.4864509     27153.45    4.1542273 
    5420     525.8849   -7446.0588   -7387.3956    69.583185    27131.005    4.1570293 
    5430    531.61896   -7446.6026   -7387.2997    208.03356    27108.673    4.1603454 
    5440     548.9403   -7448.4512   -7387.2161    422.07612    27086.917    4.1681313 
    5450    549.32252   -7448.4516   -7387.1738    768.81532    27066.526    4.1840935 
    5460    534.32873   -7446.7871   -7387.1819    962.84811    27048.647    4.2078381 
    5470    523.53163   -7445.6164   -7387.2156    923.75545    27033.943    4.2335707 
    5480    518.77028   -7445.1221   -7387.2525    973.43428    27022.407    4.2543876 
    5490    518.73442   -7445.1404   -7387.2748    1061.1324    27014.226    4.2656222 
    5500    540.31917   -7447.5716   -7387.2981    881.98073    27009.601    4.2661579 
    5510    546.84967   -7448.3564   -7387.3545    756.51902    27008.047    4.2596858 
    5520     546.4021   -7448.4238   -7387.4718    848.48686    27009.211    4.2506011 
    5530    543.83374   -7448.3199   -7387.6544    993.56405    27013.386    4.2443085 
    5540    530.16931   -7447.0366   -7387.8954    1104.0546    27021.085    4.2439158 
    5550    517.50808   -7445.8974   -7388.1686    1098.2816    27032.707    4.2466518 
    5560    510.15411   -7445.3545    -7388.446    1069.2794    27048.327     4.248523 
    5570    510.94951   -7445.7077   -7388.7105     879.3419    27067.838    4.2481264 
    5580    522.26834   -7447.2313   -7388.9715    696.95356    27090.684    4.2460466 
    5590    520.06516   -7447.2526   -7389.2386    679.93077    27116.323    4.2429373 
    5600    518.41153   -7447.3397   -7389.5102    591.98243    27144.649    4.2367006 
    5610    525.31817   -7448.3849   -7389.7849    368.35078    27175.377    4.2241434 
    5620    529.02944   -7449.0866   -7390.0726    238.91971     27207.83    4.2050598 
    5630    534.04543   -7449.9561   -7390.3825    10.133686    27241.475    4.1826916 
    5640    529.67088    -7449.801   -7390.7154    -204.2156    27275.539    4.1626036 
    5650    517.75735   -7448.8085   -7391.0519   -297.05261    27309.304    4.1479562 
    5660    516.30439   -7448.9714   -7391.3769   -507.48156    27342.327    4.1400649 
    5670    504.12525   -7447.9036   -7391.6677   -557.28461    27373.934    4.1395566 
    5680    504.76556    -7448.224   -7391.9166   -546.67035    27403.887    4.1437291 
    5690    512.68883   -7449.3175   -7392.1263   -564.32511    27432.154    4.1481298 
    5700    516.88853   -7449.9677    -7392.308   -692.43403    27458.605    4.1479777 
    5710    522.04829   -7450.7109   -7392.4756   -865.19289    27482.766    4.1408523 
    5720    519.96589   -7450.6423   -7392.6393   -834.33572    27504.068    4.1281067 
    5730    514.81125   -7450.2234   -7392.7954   -716.76767    27522.573    4.1120401 
    5740    511.83985   -7450.0265     -7392.93   -690.16395    27538.608    4.0961057 
    5750    503.93356   -7449.2437   -7393.0292   -699.83005    27552.261    4.0849093 
    5760    500.39879   -7448.9065   -7393.0863   -618.25069    27563.532    4.0803736 
    5770    499.94915   -7448.8625   -7393.0925   -550.72193    27572.621    4.0817953 
    5780    507.93557   -7449.7079   -7393.0469   -670.29161    27579.681    4.0872328 
    5790    517.98599   -7450.7371   -7392.9549   -871.47315    27584.338    4.0944604 
    5800    518.56909    -7450.676   -7392.8288   -1108.1929    27585.853    4.1012473 
    5810     518.8759   -7450.5557   -7392.6743   -1198.2761    27583.389    4.1049711 
    5820    519.98743   -7450.4857   -7392.4803   -1071.0139     27576.61    4.1052112 
    5830    526.90062   -7451.0183   -7392.2418   -858.69228     27565.92    4.1043233 
    5840    530.08795   -7451.0905   -7391.9584   -668.35559    27552.056    4.1075162 
    5850    530.18361   -7450.7766   -7391.6338   -529.51069    27535.691    4.1178278 
    5860    526.87254   -7450.0371   -7391.2637   -546.95687    27517.274    4.1346869 
    5870     522.7404   -7449.1468   -7390.8343   -621.72433    27496.771    4.1546359 
    5880    528.94147    -7449.337   -7390.3328   -670.76171    27473.919    4.1741288 
    5890    524.33148   -7448.2538   -7389.7639   -644.29039    27448.566    4.1929168 
    5900    520.82173   -7447.2565    -7389.158   -620.71979    27420.791    4.2104612 
    5910    530.08493    -7447.669   -7388.5373   -599.60771    27390.672    4.2266876 
    5920    546.05603   -7448.8598   -7387.9464   -532.07803    27358.314      4.24061 
    5930    554.86322   -7449.3447   -7387.4489   -462.95196    27323.969    4.2519738 
    5940    548.11035   -7448.2206   -7387.0781   -291.55189    27287.921    4.2640562 
    5950    551.11377   -7448.2973   -7386.8197   -59.204393    27250.772    4.2808482 
    5960    556.44514   -7448.7283    -7386.656    195.18647    27213.336    4.3047056 
    5970    544.81215   -7447.3464   -7386.5718    686.86678    27176.633    4.3352143 
    5980    536.55176   -7446.3888   -7386.5357     895.6038    27142.225    4.3697294 
    5990    541.21773   -7446.9072   -7386.5336    766.45523     27110.86    4.4048701 
    6000    542.56269   -7447.0901   -7386.5664     535.4936    27082.165    4.4379456 
    6010    546.54937   -7447.6117   -7386.6433    232.47821    27055.314    4.4664591 
    6020    542.36511   -7447.2639   -7386.7623    194.41323     27029.36    4.4910545 
    6030    532.19166   -7446.2711   -7386.9043     485.4431    27004.206    4.5137776 
    6040    534.12999   -7446.6417   -7387.0587    642.31307    26980.697    4.5364149 
    6050    533.15507   -7446.6954   -7387.2212    716.85894    26959.422    4.5604456 
    6060    536.44625   -7447.2379   -7387.3965    778.30912    26940.639    4.5863063 
    6070    541.74992   -7448.0239   -7387.5908    1039.4631    26924.659    4.6146733 
    6080    547.85092   -7448.9337   -7387.8201    1110.2955    26912.238    4.6448345 
    6090    543.09935   -7448.6742   -7388.0906    1001.2302    26903.617    4.6754809 
    6100    536.87836    -7448.277   -7388.3874    876.75187     26898.47    4.7064391 
    6110    534.10184   -7448.2796   -7388.6997    612.14234    26896.324    4.7360796 
    6120    528.42275   -7447.9546   -7389.0082    240.21708    26896.279      4.76144 
    6130    529.96075   -7448.4276   -7389.3097   -130.31543    26897.066    4.7832348 
    6140    518.37099   -7447.4104   -7389.5853   -377.51872    26897.441    4.8050507 
    6150    509.66431   -7446.6777   -7389.8238   -480.67626    26896.547    4.8289112 
    6160    502.40284   -7446.0485   -7390.0047   -427.76538    26894.051    4.8552332 
    6170    514.43955   -7447.5278   -7390.1413   -360.41881    26890.071    4.8823712 
    6180    513.05652   -7447.4776   -7390.2454   -17.296753    26884.946    4.9080952 
    6190    505.90668   -7446.7492   -7390.3145    297.43338    26879.752    4.9285735 
    6200    517.06454   -7448.0257   -7390.3464    317.65902    26875.496    4.9417429 
    6210    529.49063   -7449.4226   -7390.3571    238.70171    26872.327    4.9508536 
    6220     538.5172   -7450.4495   -7390.3771    252.17022    26870.011    4.9605731 
    6230    545.37036   -7451.2631   -7390.4262    509.12443    26868.651    4.9739438 
    6240    550.03313   -7451.8786   -7390.5216    714.96781    26869.011    4.9917842 
    6250    539.80141   -7450.8833   -7390.6676    962.05173    26871.867    5.0126403 
    6260     523.8326   -7449.2706   -7390.8362    1094.3616     26878.01     5.031956 
    6270    530.37706   -7450.1685   -7391.0042    1029.6574    26887.891    5.0481222 
    6280    545.53552   -7452.0398   -7391.1845    829.69637    26901.302    5.0634396 
    6290    542.13805    -7451.874   -7391.3977    653.65355    26917.614    5.0779217 
    6300    526.00371   -7450.3047   -7391.6282    416.57019    26936.188     5.090849 
    6310    515.67562   -7449.3626   -7391.8382    134.67737    26956.215    5.1026663 
    6320     514.2904   -7449.3777   -7392.0078   -206.04441    26976.693    5.1139234 
    6330    508.91693   -7448.9084   -7392.1379   -355.20575    26996.515    5.1256566 
    6340    499.85337     -7447.98   -7392.2206   -382.42509    27015.128    5.1380732 
    6350    503.58737   -7448.4238   -7392.2478   -398.02679    27032.394    5.1509747 
    6360    515.55709   -7449.7417   -7392.2306   -213.78671    27048.335    5.1645905 
    6370    525.45871   -7450.8129   -7392.1972   -91.272901    27063.477    5.1789156 
    6380    524.77783   -7450.7036   -7392.1639   -51.016678    27078.278    5.1940615 
    6390    526.48374   -7450.8654   -7392.1353   -173.87071    27092.834    5.2092811 
    6400    516.78575   -7449.7527   -7392.1045   -245.38489    27106.775    5.2241902 
    6410     506.8589   -7448.5962   -7392.0553   -354.61894    27119.831    5.2398321 
    6420    515.79903   -7449.5156   -7391.9774   -711.66206    27131.537    5.2580141 
    6430    524.68265   -7450.4119   -7391.8827   -977.80051    27140.763    5.2787051 
    6440    529.10412   -7450.8171   -7391.7947   -1067.8969      27146.6     5.299644 
    6450    530.58612   -7450.9149   -7391.7272   -909.26305     27148.76    5.3211502 
    6460    526.62913   -7450.4265   -7391.6803   -674.98387    27147.742    5.3448635 
    6470    527.33707   -7450.4738   -7391.6485   -574.05466    27144.316    5.3688817 
    6480    521.95111   -7449.8508   -7391.6264   -432.20009    27138.899    5.3913522 
    6490    509.88928   -7448.4786   -7391.5997   -360.65762    27131.962     5.411696 
    6500    511.25067   -7448.5857   -7391.5549   -650.08724    27123.659    5.4290518 
    6510    515.26141   -7448.9755   -7391.4974   -1068.6442    27113.028    5.4440778 
    6520    496.40411   -7446.8023   -7391.4277   -1261.1571    27098.722    5.4580952 
    6530    482.70204   -7445.1709   -7391.3247    -1265.063    27080.059    5.4704147 
    6540    499.53679   -7446.8984   -7391.1743   -1251.4227    27056.978    5.4821602 
    6550    516.92486   -7448.6606   -7390.9969   -1012.8864    27029.622    5.4983565 
    6560     516.8804   -7448.4802   -7390.8214   -447.12722    26998.862    5.5210485 
    6570    510.48614   -7447.5897   -7390.6442    199.43799    26966.626    5.5456156 
    6580    516.50581    -7448.072    -7390.455    607.97739    26935.065    5.5649583 
    6590    531.65695   -7449.5699   -7390.2628    850.54211    26905.629    5.5749052 
    6600    534.36268   -7449.7001   -7390.0912    989.02972    26879.163    5.5767904 
    6610    532.05852   -7449.3019     -7389.95    1039.0661    26856.147     5.574936 
    6620     533.1381   -7449.3113   -7389.8389    1082.9469     26836.76     5.573448 
    6630    520.33346   -7447.7926   -7389.7486    1227.6713    26821.171    5.5738472 
    6640    512.24999    -7446.802   -7389.6597    1390.8282     26809.86    5.5746808 
    6650    517.47745   -7447.2808   -7389.5554    1438.4812    26803.316    5.5753516 
    6660    522.67194   -7447.7428    -7389.438    1354.6154    26801.668    5.5764819 
    6670     535.4357   -7449.0519   -7389.3232    1192.5517    26804.665    5.5780768 
    6680    539.94001   -7449.4608   -7389.2297     1082.951    26811.779    5.5807068 
    6690    532.32369   -7448.5523   -7389.1708     1155.828    26822.674    5.5820525 
    6700    531.30998   -7448.4073   -7389.1389     1184.975    26837.539    5.5777131 
    6710     531.4182   -7448.4026   -7389.1221    1000.3784    26856.429    5.5688732 
    6720    530.41465   -7448.2863   -7389.1177    728.70083    26878.775    5.5600104 
    6730    531.05127   -7448.3615   -7389.1219    452.80798    26903.656    5.5537904 
    6740    529.92855   -7448.2479   -7389.1335    305.70883    26930.158    5.5504201 
    6750    521.94403   -7447.3777    -7389.154    399.85832    26957.813    5.5497454 
    6760    511.49244   -7446.2273   -7389.1696    583.97773    26986.909     5.552224 
    6770    517.86671   -7446.9353   -7389.1665    517.98913    27017.974    5.5571073 
    6780    522.92347   -7447.4753   -7389.1424    331.62915    27050.837    5.5644537 
    6790    517.94396   -7446.8798   -7389.1024    134.93878    27084.877    5.5743767 
    6800    516.85322    -7446.694   -7389.0382   -51.505854    27119.415    5.5829583 
    6810    525.97379   -7447.6179   -7388.9448   -209.60957    27153.779    5.5869654 
    6820    530.64177   -7448.0205   -7388.8266   -513.00318    27187.308    5.5877862 
    6830    534.60774   -7448.3347   -7388.6984   -781.80801    27219.012    5.5878706 
    6840    538.69174   -7448.6634   -7388.5716   -917.41018    27247.956    5.5889292 
    6850    544.37079   -7449.1868   -7388.4614     -837.329     27273.68    5.5920296 
    6860    546.63555   -7449.3636   -7388.3856   -669.84562    27296.428    5.5981119 
    6870    541.05626   -7448.7095   -7388.3539   -619.33356    27316.728    5.6073946 
    6880     529.7768   -7447.4539   -7388.3565   -709.51178    27334.742     5.616768 
    6890    526.31038   -7447.0876   -7388.3769   -957.98674    27350.139    5.6222578 
    6900     523.0419   -7446.7473   -7388.4012   -1265.5131    27362.077    5.6243448 
    6910    518.74877   -7446.2909   -7388.4237   -1538.4292    27369.476    5.6264751 
    6920    517.02314   -7446.1121   -7388.4374   -1733.4052    27371.374    5.6321778 
    6930    518.52834   -7446.2861   -7388.4435   -1775.9007    27367.101    5.6422322 
    6940    510.79188    -7445.417   -7388.4374   -1545.4937    27356.561    5.6546612 
    6950    505.24747   -7444.7656   -7388.4044   -1405.0265    27340.495    5.6680057 
    6960    510.62278   -7445.2922   -7388.3314   -1521.8873    27319.369    5.6823696 
    6970    522.29323    -7446.485   -7388.2224   -1457.7762     27292.94    5.6984111 
    6980    532.73767   -7447.5215   -7388.0938    -1173.612    27261.458    5.7164794 
    6990    538.71721   -7448.0554   -7387.9607   -677.95068    27225.979    5.7351653 
    7000    544.59067   -7448.5849    -7387.835   -60.312861    27188.288    5.7518936 
    7010    542.35698   -7448.2236   -7387.7228    496.83025    27150.551    5.7657191 
    7020    542.77234   -7448.1813   -7387.6342     761.3394    27114.649    5.7777284 
    7030    542.34228   -7448.0735   -7387.5744    1006.7135    27081.636    5.7885171 
    7040    539.75507   -7447.7604   -7387.5499    1213.7793    27052.335    5.7982213 
    7050    539.04616   -7447.6916   -7387.5602    1263.3105    27027.405    5.8090675 
    7060    543.49659    -7448.243   -7387.6151    1244.1351    27007.017    5.8240261 
    7070    537.01587   -7447.6229    -7387.718    1279.2712    26991.094    5.8432662 
    7080    530.81449   -7447.0738   -7387.8606    1472.9119    26979.789    5.8650422 
    7090    526.56701   -7446.7725   -7388.0332    1550.9947    26973.629    5.8870363 
    7100    516.86227   -7445.8757   -7388.2189    1504.8884    26972.861    5.9047705 
    7110    524.69956   -7446.9432   -7388.4122    1207.7941    26977.238    5.9134137 
    7120    528.95375    -7447.625   -7388.6194    798.53632    26985.758     5.913942 
    7130    521.63468   -7447.0301    -7388.841    455.54865    26997.056      5.90963 
    7140     519.0349   -7446.9656   -7389.0665    85.222491    27009.874    5.9040252 
    7150    513.36465   -7446.5507   -7389.2841   -227.01945    27022.952    5.9005655 
    7160    507.30536   -7446.0716    -7389.481   -412.81423    27035.221    5.8996545 
    7170    510.98619   -7446.6539   -7389.6527   -431.93112    27046.044     5.900396 
    7180    513.41535   -7447.0779   -7389.8056   -93.593004    27055.443     5.903715 
    7190    512.33549   -7447.0917   -7389.9399    202.86829    27064.479    5.9098903 
    7200    520.71421   -7448.1448   -7390.0583    6.4626093     27074.02    5.9180326 
    7210    525.16256   -7448.7545   -7390.1719   -146.02579    27083.571    5.9266222 
    7220    516.36383   -7447.8905   -7390.2894   -124.07755    27092.624    5.9325312 
    7230    512.75091   -7447.5974   -7390.3993   -198.97105     27101.17    5.9331388 
    7240     519.6865   -7448.4704   -7390.4986   -257.72829    27109.002    5.9285319 
    7250    515.71968   -7448.1218   -7390.5924   -208.21542    27115.943     5.921334 
    7260      507.829   -7447.3213   -7390.6722    -107.5528    27122.155    5.9131056 
    7270    511.87855    -7447.829   -7390.7281    28.275648    27127.991    5.9033743 
    7280    511.87172   -7447.8565   -7390.7564    212.43194    27133.946    5.8920654 
    7290    508.90164   -7447.5245   -7390.7557    75.272028     27140.52    5.8805884 
    7300    507.71104    -7447.353    -7390.717   -131.40344     27147.34    5.8696538 
    7310    503.59312   -7446.8058   -7390.6292   -184.33644    27153.741    5.8594799 
    7320    508.55031   -7447.2102   -7390.4807   -239.53343    27159.488    5.8517798 
    7330     512.6447   -7447.4506   -7390.2643   -417.47695    27164.334    5.8477966 
    7340    505.50876   -7446.3672   -7389.9769   -481.46148    27167.752    5.8432452 
    7350    517.78358    -7447.373   -7389.6135   -555.96437    27169.475    5.8330547 
    7360    533.51992   -7448.6989    -7389.184   -647.86562    27169.221    5.8179585 
    7370    538.30991    -7448.785   -7388.7357   -589.54867    27166.733    5.8009653 
    7380    546.04476    -7449.215   -7388.3029   -605.20401    27162.153    5.7845033 
    7390    555.59717   -7449.8873   -7387.9096   -568.37297    27155.489    5.7723008 
    7400    553.51816   -7449.3266   -7387.5808   -360.83086    27146.907    5.7676746 
    7410    548.39443   -7448.4954   -7387.3212   -269.35828    27137.052    5.7686024 
    7420    551.41934   -7448.6371   -7387.1254   -300.43058    27126.256    5.7709333 
    7430    546.18394   -7447.9161   -7386.9885    -257.5742    27114.468      5.77411 
    7440    533.23999   -7446.3817    -7386.898   -59.100661    27101.894    5.7794246 
    7450    519.57405   -7444.7812    -7386.822    120.58545    27089.155    5.7870226 
    7460     517.9054   -7444.5054   -7386.7323     264.0449    27076.896    5.7944687 
    7470    533.13183   -7446.1005   -7386.6289    324.61074    27065.599    5.8004222 
    7480    539.46309   -7446.7097   -7386.5318    429.60498    27055.512    5.8081337 
    7490    547.92789   -7447.5908   -7386.4686    457.77092    27046.948    5.8206737 
    7500    549.85574   -7447.7941   -7386.4569    367.12093    27039.994    5.8363767 
    7510    540.76663   -7446.8278   -7386.5045    271.52315    27034.364    5.8495563 
    7520    528.69541   -7445.5717   -7386.5949    190.67917    27029.703    5.8580022 
    7530    521.77079   -7444.9069   -7386.7026    101.60582    27025.717    5.8626796 
    7540    527.04239   -7445.6118   -7386.8195    2.3810222    27022.108    5.8629326 
    7550    535.03035   -7446.6446   -7386.9611   -87.970478    27018.535    5.8604842 
    7560    530.88317   -7446.3683   -7387.1475   -172.61692    27014.655    5.8597489 
    7570     522.2068   -7445.6283   -7387.3753   -16.054347    27010.279    5.8624178 
    7580    524.54498   -7446.1552   -7387.6414    170.52445    27005.862     5.867335 
    7590     528.7223   -7446.9324   -7387.9526    437.60942    27002.074    5.8720504 
    7600    529.26887   -7447.3657    -7388.325    854.81096    26999.897     5.874172 
    7610    516.88642   -7446.4087   -7388.7492    1087.4599    27000.651    5.8740342 
    7620    515.46981   -7446.7028   -7389.2013    1036.9475    27005.122     5.873695 
    7630    527.39691    -7448.512   -7389.6801     821.9704     27013.16    5.8752693 
    7640    530.76294   -7449.3934    -7390.186    756.31494    27024.132    5.8800141 
    7650    536.11205   -7450.5215   -7390.7174    574.80738    27037.699    5.8852695 
    7660    531.31839   -7450.5207   -7391.2514    289.14378    27053.259    5.8888011 
    7670    524.51304   -7450.2599   -7391.7496     -99.3747     27069.81    5.8912411 
    7680    523.44855   -7450.5832   -7392.1917   -483.93665     27086.03    5.8939107 
    7690    514.75655   -7449.9839    -7392.562   -649.45675    27100.638    5.8975409 
    7700    513.16641    -7450.103   -7392.8585   -701.39091    27113.005    5.9033588 
    7710    506.05127   -7449.5342   -7393.0834   -748.94085    27122.914    5.9131785 
    7720     498.9552   -7448.8939   -7393.2347   -785.57954    27130.219    5.9261914 
    7730    499.05332   -7448.9861   -7393.3159   -921.51654     27134.73    5.9385301 
    7740    497.41182   -7448.8197   -7393.3326   -995.78707    27136.035    5.9462643 
    7750     502.6878   -7449.3724   -7393.2968   -1043.1814    27133.829    5.9484095 
    7760     504.4144   -7449.4859   -7393.2177   -895.77722    27128.016    5.9480088 
    7770     512.4997   -7450.2773   -7393.1072   -766.11202    27119.024    5.9482468 
    7780     519.3341   -7450.9121   -7392.9796   -651.92462    27107.319    5.9510171 
    7790    505.52857   -7449.2316   -7392.8391   -373.53634     27093.36    5.9565453 
    7800    499.96932   -7448.4412   -7392.6689   -83.992228    27078.049    5.9627834 
    7810    514.96489   -7449.9011    -7392.456    183.89613    27062.422    5.9675378 
    7820    525.03047    -7450.787   -7392.2191    302.52925     27047.37    5.9685776 
    7830    520.35407   -7450.0314   -7391.9851     296.4294    27033.308    5.9646194 
    7840    515.18071   -7449.2195   -7391.7503    336.58976    27020.277    5.9583719 
    7850     520.1782   -7449.5315   -7391.5049    503.12042    27008.431    5.9550474 
    7860    525.46633   -7449.8699   -7391.2533     724.4162     26998.32      5.95909 
    7870    532.04346   -7450.3622   -7391.0119    799.98941    26990.659    5.9718225 
    7880    533.48438   -7450.3065   -7390.7956    907.69837    26985.777    5.9909391 
    7890     529.3386   -7449.6561   -7390.6076    1108.7964     26984.08    6.0118576 
    7900    531.95291   -7449.7837   -7390.4436    1220.6642    26986.213    6.0306785 
    7910    538.32775   -7450.3541   -7390.3028    1222.4541    26992.596    6.0460375 
    7920    540.85008   -7450.5303   -7390.1977    1108.2025    27003.257    6.0577174 
    7930    530.92347   -7449.3528   -7390.1275    968.66581    27017.848    6.0652471 
    7940    528.40078   -7449.0231   -7390.0792    921.44506    27035.954     6.067679 
    7950    525.50656   -7448.6595   -7390.0384    1005.5062    27057.444    6.0670161 
    7960    524.55073   -7448.5172   -7390.0028    961.88313    27082.548    6.0674775 
    7970    528.66749   -7448.9397    -7389.966    615.09889    27111.103    6.0717151 
    7980    536.23985   -7449.7506   -7389.9322     139.5671    27141.978    6.0805735 
    7990    531.19762   -7449.1651   -7389.9092   -277.18622     27173.56    6.0930178 
    8000    520.89771   -7447.9985   -7389.8915   -552.17584    27204.424    6.1051037 
    8010    526.43173   -7448.5919   -7389.8676   -740.08702    27233.569    6.1125354 
    8020    527.33406    -7448.667   -7389.8421   -752.70318    27260.318    6.1135973 
    8030    519.21809   -7447.7389   -7389.8193   -678.67297    27284.579    6.1096556 
    8040    514.86194   -7447.2199   -7389.7863   -680.01332    27306.536    6.1016725 
    8050    513.70526   -7447.0289   -7389.7243   -746.83183    27326.196    6.0900778 
    8060    524.83087   -7448.1735   -7389.6279   -907.85209     27343.29    6.0764865 
    8070    529.13122   -7448.5284    -7389.503   -962.00367     27357.27    6.0655266 
    8080    523.92297   -7447.8013   -7389.3569   -816.77352    27367.941    6.0598686 
    8090     521.5821   -7447.3615   -7389.1782   -572.29183    27375.768    6.0574544 
    8100    523.59651   -7447.3524   -7388.9444   -465.32018    27381.552    6.0561469 
    8110    542.65495   -7449.1924   -7388.6584   -476.40779    27385.686    6.0527549 
    8120    545.77427   -7449.2243   -7388.3423   -527.79694    27388.125    6.0448783 
    8130    545.86573   -7448.9243   -7388.0322   -663.27125    27388.657    6.0312908 
    8140    540.79128    -7448.059    -7387.733   -741.82164     27386.83    6.0152975 
    8150     530.9449   -7446.6737    -7387.446    -716.4411     27382.37    6.0009771 
    8160    537.10539   -7447.0789    -7387.164   -740.02083    27375.284     5.989201 
    8170    543.54262   -7447.5239   -7386.8909   -567.57901    27365.548     5.981495 
    8180    544.03749   -7447.3304   -7386.6422   -181.17803    27353.751    5.9787962 
    8190    547.77372   -7447.5271   -7386.4222    346.72209    27341.255    5.9800663 
    8200    553.63987   -7447.9968   -7386.2375    837.64253    27329.898    5.9846366 
    8210    554.53068   -7447.9647    -7386.106     1128.535    27321.401    5.9945493 
    8220    555.07106    -7447.962    -7386.043    1157.6951    27316.785    6.0105884 
    8230     548.6052   -7447.2437   -7386.0459    1209.8436    27316.307    6.0290644 
    8240    548.59489   -7447.3072   -7386.1106    1247.5252    27320.169    6.0456378 
    8250    554.64004   -7448.1092   -7386.2382    1103.5196    27328.505    6.0595588 
    8260    559.76256   -7448.8901   -7386.4477     740.4339    27340.806    6.0721469 
    8270    550.79472   -7448.1878   -7386.7459    442.98437    27355.914    6.0844684 
    8280    534.03041   -7446.6732   -7387.1013    69.493847    27372.745    6.0955178 
    8290    536.45666   -7447.3298   -7387.4873   -471.88419    27389.926    6.1039966 
    8300    539.21131   -7448.0503   -7387.9005   -867.91552    27405.609    6.1109626 
    8310    527.63588   -7447.1893   -7388.3307    -921.4934    27418.417    6.1164235 
    8320    513.39106   -7446.0061   -7388.7365   -958.80172    27428.017    6.1183219 
    8330    518.04941   -7446.8861   -7389.0969   -1162.0307    27434.182    6.1166737 
    8340    528.90229   -7448.4258    -7389.426   -1266.6119    27436.238    6.1159982 
    8350    538.51988   -7449.8198   -7389.7471   -1277.4343    27433.753    6.1209398 
    8360    544.06247   -7450.7719    -7390.081    -1242.199    27426.633     6.132787 
    8370    536.45154   -7450.2657   -7390.4237   -1032.8072    27415.027    6.1488472 
    8380      525.609   -7449.3837   -7390.7512    -824.0882    27399.591    6.1640103 
    8390    516.01502   -7448.6011   -7391.0389   -804.11332    27380.975    6.1734993 
    8400    513.56772   -7448.5675   -7391.2783   -714.80309     27359.31    6.1757179 
    8410    519.06774   -7449.3753   -7391.4725   -556.98146    27334.892    6.1741803 
    8420    524.62158   -7450.1648   -7391.6425   -451.25327     27308.22    6.1745486 
    8430    509.51778   -7448.6238   -7391.7863   -250.98311    27279.724    6.1792066 
    8440    501.73961     -7447.86   -7391.8902   -320.33884    27249.953    6.1850471 
    8450    509.49061   -7448.7867   -7391.9522   -466.28752     27218.73    6.1881598 
    8460    513.71364   -7449.2845    -7391.979   -502.55697    27185.576    6.1865884 
    8470     511.9479   -7449.0835   -7391.9749   -510.42056     27150.36    6.1812461 
[...]
   22890    533.33708   -7452.4666   -7392.9721   -1109.2353    27774.882    7.7324644 
   22900    524.77027   -7451.4599    -7392.921   -1126.5173    27792.081    7.7253186 
   22910     531.8326   -7452.2006   -7392.8739   -1136.8429    27805.092    7.7132766 
   22920    529.29414   -7451.8783   -7392.8348   -1065.3308    27813.892    7.7001156 
   22930     518.9904   -7450.6976   -7392.8034   -930.25977    27818.752     7.689036 
   22940     520.5346   -7450.8278   -7392.7614   -811.07181    27820.148    7.6826005 
   22950    530.84029   -7451.9189   -7392.7028   -562.24354    27818.607    7.6820461 
   22960    536.43496   -7452.4862    -7392.646   -357.32094     27814.98    7.6840343 
   22970    526.92084    -7451.384   -7392.6052   -213.43953     27810.04    7.6847911 
   22980     511.3454   -7449.5993    -7392.558   -128.58062    27804.338    7.6830773 
   22990    511.08083   -7449.4908    -7392.479   -135.78678    27798.172    7.6764352 
   23000    517.54328   -7450.0922   -7392.3595   -157.98454    27791.532    7.6642377 
   23010     520.0325   -7450.2203   -7392.2099   -162.83448    27784.351    7.6498856 
   23020    523.32118   -7450.4138   -7392.0366   -199.74808    27776.613    7.6369598 
   23030    527.13688   -7450.6425   -7391.8396   -254.04991    27768.186    7.6274973 
   23040    534.72922   -7451.2764   -7391.6265   -224.48203     27758.91    7.6237699 
   23050    540.43386   -7451.6988   -7391.4126   -142.39252    27748.902    7.6270051 
   23060    538.14906   -7451.2469   -7391.2156   -105.08253    27738.435    7.6354071 
   23070    532.61503   -7450.4544   -7391.0404   -250.99175    27727.601    7.6451419 
   23080    530.57919   -7450.0636   -7390.8767    -631.3567    27715.854    7.6526289 
   23090    532.47043   -7450.1124   -7390.7145   -882.77952     27701.94    7.6562177 
   23100    536.80422   -7450.4394   -7390.5581   -1005.6791    27684.923    7.6565728 
   23110    540.29264   -7450.6895   -7390.4191   -928.61186    27664.442    7.6573552 
   23120    543.46934   -7450.9355   -7390.3107   -729.05706    27640.789     7.661474 
   23130    534.40273    -7449.849   -7390.2356   -633.01288     27614.63    7.6671556 
   23140     531.0568   -7449.4234   -7390.1832   -486.96828    27586.402    7.6703867 
   23150    534.98697   -7449.8194   -7390.1407   -212.37713    27556.689    7.6703639 
   23160    523.66447   -7448.5164   -7390.1009    37.347998    27526.467    7.6679308 
   23170    521.40772   -7448.2182   -7390.0544    166.26625     27496.63    7.6612241 
   23180    534.61464   -7449.6332   -7389.9961       321.13    27467.716    7.6468682 
   23190      548.148   -7451.0982   -7389.9514    443.65404    27440.234    7.6259274 
   23200    550.40119   -7451.3479   -7389.9498    563.98937    27414.614     7.604736 
   23210    556.04031   -7452.0369   -7390.0098    913.69591    27391.371       7.5866 
   23220    560.07892   -7452.6314   -7390.1538    1294.9504    27371.665    7.5723721 
   23230    544.65813   -7451.1508   -7390.3934    1563.8552    27356.756    7.5655062 
   23240    519.24516   -7448.6211   -7390.6985    1670.1396    27347.531    7.5696561 
   23250     502.2979   -7447.0451    -7391.013    1498.1385    27344.264    7.5824318 
   23260    504.44192   -7447.5794   -7391.3082    1119.9824    27346.296    7.5977919 
   23270    509.14679   -7448.3779   -7391.5818    906.58068    27352.373    7.6111691 
   23280    513.84792   -7449.1595    -7391.839    771.97009    27361.649    7.6194047 
   23290    524.81186   -7450.6377   -7392.0941    614.50651     27373.59    7.6209912 
   23300     526.0822   -7451.0444   -7392.3592    448.10509    27387.612    7.6173507 
   23310    521.31959   -7450.7874   -7392.6334    311.37501    27403.128    7.6124325 
   23320    522.07969   -7451.1509   -7392.9121    157.55093    27419.626    7.6111824 
   23330    518.29451   -7451.0061   -7393.1895    51.707951    27436.555    7.6159203 
   23340    515.69261   -7450.9844   -7393.4581   -30.856313    27453.533    7.6244133 
   23350    517.27299   -7451.4153   -7393.7128    -102.9078    27470.274    7.6327264 
   23360    514.53692   -7451.3495   -7393.9521    -83.67636    27486.549    7.6389522 
   23370    511.06912   -7451.1833   -7394.1728   -4.6924262    27502.418    7.6434841 
   23380    507.56345   -7450.9859   -7394.3664    157.96851    27518.174    7.6464206 
   23390    503.39969   -7450.6824   -7394.5275    250.39326    27534.351    7.6492451 
   23400    501.80436   -7450.6232   -7394.6461    175.89301    27551.268    7.6553412 
   23410    511.26008   -7451.7535   -7394.7217    71.850814    27568.693    7.6668845 
   23420    529.11491   -7453.7989   -7394.7753     178.3192    27586.324    7.6838107 
   23430    543.52627   -7455.4777   -7394.8465    387.14327    27604.504    7.7032036 
   23440    538.02329   -7454.9829   -7394.9656    552.44429    27623.951    7.7202347 
   23450    523.92721   -7453.5686   -7395.1238    571.44908    27645.231    7.7312087 
   23460    526.95372   -7454.0873   -7395.3048    397.67234     27668.39    7.7376234 
   23470    530.72727   -7454.7167   -7395.5133    57.693177    27692.796    7.7448412 
   23480    518.22793   -7453.5652   -7395.7561   -256.95379    27717.266    7.7553202 
   23490    496.91287   -7451.4389   -7396.0076   -399.29318    27740.692    7.7661069 
   23500     486.2023   -7450.4708   -7396.2342   -502.09093    27762.502    7.7723222 
   23510    481.03199   -7450.0746   -7396.4147   -617.71158    27782.308    7.7727285 
   23520     474.0312    -7449.407   -7396.5281   -688.44842    27799.711     7.771065 
   23530    485.98658   -7450.7738   -7396.5613   -669.57052    27814.476    7.7708944 
   23540    505.12026   -7452.8592   -7396.5122   -501.45515    27826.721    7.7744523 
   23550    512.00135   -7453.5101   -7396.3956   -404.18923     27836.98    7.7835668 
   23560     507.8867   -7452.8721   -7396.2166   -374.42881    27845.651    7.7965815 
   23570    512.92784   -7453.1848   -7395.9669   -362.65063    27852.873     7.807444 
   23580    519.76104   -7453.6226   -7395.6425    -307.9299    27858.701    7.8126152 
   23590    527.76322   -7454.1328     -7395.26    -198.4291    27863.352     7.812748 
   23600    530.93528   -7454.0631   -7394.8365   -50.596091    27867.248     7.811239 
   23610    526.41249   -7453.1137   -7394.3916    158.47138    27870.944    7.8124378 
   23620    525.82605   -7452.5914   -7393.9347    326.75475    27875.179    7.8203448 
   23630    536.98688   -7453.3822   -7393.4805    193.21586    27880.481    7.8357774 
   23640    542.33704   -7453.5527   -7393.0542   -29.751633    27886.431    7.8573618 
   23650    547.87116    -7453.803   -7392.6872   -190.23088    27892.233     7.881163 
   23660    549.64909   -7453.7056   -7392.3914   -271.61779    27897.309    7.9030293 
   23670    542.58237   -7452.6942   -7392.1683   -268.38956    27901.347    7.9220226 
   23680    538.85581   -7452.1096   -7391.9994   -173.20767    27904.395    7.9384222 
   23690    540.03027   -7452.1117   -7391.8705   -159.94768    27906.723    7.9556315 
   23700    530.87216   -7450.9925   -7391.7729   -34.101641    27908.477    7.9794955 
   23710    528.79536   -7450.6848   -7391.6968    90.328859    27910.079     8.009107 
   23720    527.46256   -7450.4638   -7391.6245   -64.103457    27911.903    8.0361235 
   23730     537.0594   -7451.4741   -7391.5643   -585.40862    27913.342    8.0527582 
   23740    538.65678   -7451.6152   -7391.5272   -988.03971    27912.658    8.0574644 
   23750    530.94615   -7450.7509   -7391.5231   -1057.0485    27908.427    8.0553443 
   23760    526.80041    -7450.302   -7391.5367   -925.19869    27900.391    8.0529094 
   23770    532.61876   -7450.9745   -7391.5601   -781.53902     27889.04    8.0546824 
   23780    533.77877   -7451.1485   -7391.6047   -779.79831    27874.902    8.0617429 
   23790    519.04569   -7449.5666   -7391.6662   -779.80196    27858.073    8.0692178 
   23800      515.629    -7449.243   -7391.7238   -831.32536    27838.554    8.0691843 
   23810     519.8786   -7449.7633   -7391.7701   -1009.3585    27816.174    8.0589348 
   23820    514.76357   -7449.2309   -7391.8083   -1147.9799    27790.384    8.0426564 
   23830    513.87193   -7449.1546   -7391.8314   -1090.0373    27760.778     8.024545 
   23840    523.86282   -7450.2717    -7391.834   -749.10374    27727.673    8.0080605 
   23850     519.7406   -7449.7942   -7391.8163   -262.38281    27692.327    7.9953318 
   23860    514.09937   -7449.1192   -7391.7707    188.57203    27656.516    7.9856078 
   23870    525.68239   -7450.3314   -7391.6908    453.74214    27621.842    7.9776222 
   23880    532.09199   -7450.9405   -7391.5848    672.18333    27589.327    7.9705463 
   23890    545.31404   -7452.3122   -7391.4816    637.77012    27559.665    7.9649413 
   23900    549.98116    -7452.762   -7391.4108    479.66579    27532.697    7.9601011 
   23910    539.30696   -7451.5453   -7391.3848    592.54217    27507.962    7.9503754 
   23920    543.45651   -7452.0199   -7391.3965    614.45691    27485.697    7.9319465 
   23930    552.07469   -7453.0424   -7391.4576    680.93448    27466.011    7.9094446 
   23940    545.08422   -7452.3947   -7391.5898    869.96081    27449.116    7.8897748 
   23950    523.33743   -7450.1625   -7391.7834    1076.3325    27435.614    7.8750215 
   23960    508.70918   -7448.7422   -7391.9949    1085.5027    27426.121    7.8622608 
   23970    516.09736   -7449.7724    -7392.201    855.59875    27420.585    7.8465788 
   23980    523.50016    -7450.806   -7392.4087     767.8789    27418.261    7.8266934 
   23990    526.57935   -7451.3719   -7392.6312    730.25979    27418.722    7.8060594 
   24000    524.47078   -7451.3786   -7392.8731    763.29559    27421.803    7.7897385 
   24010    516.48566   -7450.7386   -7393.1239    822.33848    27427.582    7.7800901 
   24020    525.10633   -7451.9554    -7393.379    796.57323    27436.193    7.7751089 
   24030    537.85121   -7453.6531    -7393.655    647.34175    27447.487     7.772938 
   24040    532.88232   -7453.4076   -7393.9638    448.99761    27460.919    7.7737306 
   24050     521.6623   -7452.4808   -7394.2886    339.93913    27475.791    7.7792848 
   24060    519.86144   -7452.5971   -7394.6058    231.83967    27491.648    7.7896397 
   24070    520.80056   -7453.0087   -7394.9126    160.27707    27508.095    7.7998313 
   24080    508.44228   -7451.9148   -7395.1973    344.68872    27524.966    7.8044754 
   24090    508.15407   -7452.1316   -7395.4463    427.33967     27542.79     7.803822 
   24100    517.92427   -7453.4376   -7395.6623    422.52547    27561.848    7.8033369 
   24110    521.77259   -7454.0669   -7395.8624    471.40058     27582.14    7.8080694 
   24120    523.13534   -7454.4156   -7396.0591    415.57626    27603.782    7.8174654 
   24130    518.10261   -7454.0448   -7396.2496    215.72014    27626.541    7.8301212 
   24140    510.91718   -7453.4161   -7396.4225    88.938579    27649.745    7.8471373 
   24150    507.76139   -7453.2046   -7396.5631    105.10654    27672.946    7.8695326 
   24160      514.241   -7454.0352   -7396.6708    71.710182    27696.129    7.8977396 
   24170    514.59783   -7454.1537   -7396.7495   -24.721995    27719.178    7.9320007 
   24180    507.10016   -7453.3666   -7396.7988    -169.2397    27741.738    7.9700751 
   24190    504.72582   -7453.1117   -7396.8088   -333.42661    27763.303    8.0079354 
   24200     510.8574   -7453.7621   -7396.7752   -449.46227    27783.313    8.0419545 
   24210    516.64918   -7454.3412   -7396.7083   -443.08099    27801.384    8.0706212 
   24220    515.18213   -7454.0878   -7396.6184    -452.4583    27817.514    8.0957754 
   24230    507.50009    -7453.113   -7396.5006   -497.42799    27831.706     8.118817 
   24240    498.80827   -7451.9764   -7396.3336   -535.19512    27843.849    8.1398231 
   24250     501.7521   -7452.0676   -7396.0964   -626.30535    27853.792    8.1591525 
   24260    506.10159   -7452.2319   -7395.7755    -582.8971    27861.327    8.1775227 
   24270    506.84321   -7451.9129   -7395.3737   -579.63381    27866.576    8.1961994 
   24280     514.3408   -7452.2716   -7394.8961   -479.72872    27869.654    8.2166675 
   24290    515.49276   -7451.8621   -7394.3581   -392.17946    27870.905    8.2378495 
   24300    519.04123   -7451.6938    -7393.794   -421.90043    27870.655    8.2557579 
   24310    529.42137   -7452.2928   -7393.2351   -461.32603    27868.845    8.2671192 
   24320    529.26286   -7451.7656   -7392.7255   -251.56444    27865.461    8.2721347 
   24330    527.61777   -7451.1503   -7392.2937   -55.755962      27861.2    8.2745788 
   24340    532.06953   -7451.2914   -7391.9382    19.874314    27856.773     8.278896 
   24350    539.97302   -7451.8928    -7391.658   -40.030801    27852.445    8.2878572 
   24360    547.68556   -7452.5553   -7391.4602   -194.70825    27848.016    8.2987261 
   24370    536.50045   -7451.1852   -7391.3377   -382.14047    27842.931     8.305052 
   24380    530.19696   -7450.4088   -7391.2645   -525.34152     27836.54    8.3031374 
   24390    537.13164   -7451.1401   -7391.2223   -735.23805    27828.288    8.2953737 
   24400    529.72217   -7450.2986   -7391.2073    -749.5693    27817.543    8.2875171 
   24410    521.78392   -7449.4123   -7391.2066   -699.30982    27804.212    8.2832017 
   24420    526.00925   -7449.8826   -7391.2055   -738.69489    27788.473    8.2842434 
   24430    525.61848   -7449.8372   -7391.2036   -684.88106    27770.299    8.2896018 
   24440    527.16632   -7450.0111   -7391.2049   -573.15618    27749.895    8.2965025 
   24450    535.08637   -7450.9023   -7391.2126   -461.21912    27727.702    8.3029911 
   24460    540.20769   -7451.5016   -7391.2406   -538.58435    27704.086    8.3094973 
   24470    535.34182   -7451.0212    -7391.303     -599.603    27678.878    8.3173262 
   24480    520.83913   -7449.4811   -7391.3807    -532.5272    27651.923    8.3252096 
   24490     526.1455   -7450.1481   -7391.4558   -455.41946     27623.44    8.3291243 
   24500    538.32663   -7451.5896   -7391.5385   -268.22296    27593.768    8.3293407 
   24510    527.07864   -7450.4378   -7391.6414     88.37935    27563.643    8.3280758 
   24520    510.92452   -7448.7368   -7391.7424     330.2523    27534.274    8.3258713 
   24530    520.17087   -7449.8529   -7391.8271    407.49579    27506.505    8.3234559 
   24540    521.09034   -7450.0268   -7391.8984      621.427    27480.688    8.3223729 
   24550    512.87796   -7449.1741   -7391.9618    777.38166    27457.494    8.3222787 
   24560    509.84733   -7448.8794   -7392.0052    712.08005     27437.38    8.3203881 
   24570    511.77467   -7449.1069   -7392.0177    608.08039    27420.126    8.3165166 
   24580    518.94121   -7449.8899   -7392.0012    413.98429    27405.294    8.3144201 
   24590    527.65476   -7450.8276    -7391.967     143.8076    27392.156    8.3169781 
   24600      529.039   -7450.9459   -7391.9308   -126.74326    27379.729    8.3249651 
   24610    522.36181   -7450.1665   -7391.8963    -172.8875    27367.136    8.3357638 
   24620    525.60201   -7450.4859   -7391.8542   -37.940221    27354.202    8.3429673 
   24630    543.62863   -7452.4564   -7391.8138    70.580629     27341.34    8.3446146 
   24640     548.8513   -7453.0301   -7391.8049    213.95377    27328.957    8.3456564 
   24650    543.73357   -7452.5076   -7391.8533    430.84375    27317.568    8.3471342 
   24660    535.81572   -7451.7314   -7391.9604    624.87629    27307.883    8.3445258 
   24670    524.59539   -7450.6306   -7392.1112    826.64642    27300.586    8.3359607 
   24680    527.72894   -7451.1666   -7392.2976     800.7927    27296.245    8.3259903 
   24690    526.73428   -7451.2771   -7392.5191    830.24858    27294.825    8.3206422 
   24700     519.8822   -7450.7685   -7392.7749     1024.971     27296.42    8.3220859 
   24710    512.86855   -7450.2594   -7393.0482    1129.6517    27301.586    8.3318355 
   24720    509.09905   -7450.1101   -7393.3194    1082.3529    27310.636    8.3499649 
   24730    515.10467   -7451.0436   -7393.5829     827.7039    27323.316    8.3746833 
   24740    521.13539   -7451.9789   -7393.8454    680.99418    27338.779    8.4026229 
   24750    520.06317   -7452.1286   -7394.1147    712.97008    27356.476    8.4286573 
   24760    522.72693    -7452.705    -7394.394    661.91374     27376.41    8.4508032 
   24770    520.54589   -7452.7517    -7394.684    518.69974    27398.373    8.4729263 
   24780    503.58146   -7451.1388   -7394.9635    478.61176    27421.892    8.4971316 
   24790      496.072   -7450.5385   -7395.2009     373.7332    27446.736    8.5202267 
   24800    505.22968   -7451.7476   -7395.3885    183.97356    27472.523    8.5408649 
   24810    512.28249   -7452.6835   -7395.5376   -120.81149    27498.534    8.5622292 
   24820    511.60536   -7452.7304   -7395.6601    -459.9089    27523.697    8.5860611 
   24830    503.96939   -7451.9699   -7395.7513   -587.41222    27546.881    8.6126606 
   24840    506.06272   -7452.2571    -7395.805   -491.87945    27567.653    8.6422092 
   24850    516.58996   -7453.4503   -7395.8239   -431.45099    27586.315    8.6733376 
   24860    520.54959   -7453.8927   -7395.8246    -328.2802    27603.137    8.7041762 
   24870    515.09103   -7453.2745   -7395.8153   -181.34382    27618.535    8.7337978 
   24880    512.46485   -7452.9533   -7395.7871   -121.66813    27633.023    8.7598288 
   24890    511.20306   -7452.7535    -7395.728   -131.49436    27646.835     8.779655 
   24900    514.77116   -7453.0538   -7395.6303   -191.73301    27659.967    8.7911046 
   24910    531.51746   -7454.7917   -7395.5001   -351.68856    27672.191    8.7948647 
   24920    538.52344   -7455.4339   -7395.3608   -379.79923    27683.014    8.7941942 
   24930    537.80038   -7455.2286   -7395.2362   -178.39937    27692.371    8.7928958 
   24940    541.24842   -7455.5102   -7395.1331    149.82696    27700.975    8.7952974 
   24950    536.01682   -7454.8471   -7395.0537    570.98831    27710.057    8.8047763 
   24960     533.3513   -7454.4933   -7394.9972    602.57986    27720.971    8.8209422 
   24970    532.81031   -7454.3865   -7394.9507    359.07233    27733.867    8.8400422 
   24980    539.52822   -7455.1029   -7394.9177    167.16053    27747.933    8.8575321 
   24990    539.84749   -7455.1303   -7394.9095    190.77599    27762.507    8.8693575 
   25000    537.58434   -7454.9066   -7394.9383    224.35071    27777.608    8.8710334 
Loop time of 6388.78 on 16 procs for 20000 steps with 864 atoms

Performance: 0.270 ns/day, 88.733 hours/ns, 3.130 timesteps/s
96.6% CPU use with 16 MPI tasks x 1 OpenMP threads

MPI task timing breakdown:
Section |  min time  |  avg time  |  max time  |%varavg| %total
---------------------------------------------------------------
Pair    | 3653.5     | 5172.9     | 6304.8     |1115.2 | 80.97
Bond    | 0.0033965  | 0.0046802  | 0.0089872  |   2.0 |  0.00
Neigh   | 0.21958    | 0.2415     | 0.25649    |   2.2 |  0.00
Comm    | 47.355     | 1062.2     | 2623.6     |2448.4 | 16.63
Output  | 1.8537     | 1.8763     | 2.2077     |   6.2 |  0.03
Modify  | 34.374     | 151.41     | 405.47     |1127.5 |  2.37
Other   |            | 0.1253     |            |       |  0.00

Nlocal:        54.0000 ave          60 max          44 min
Histogram: 1 0 0 1 1 4 2 3 3 1
Nghost:        418.000 ave         427 max         403 min
Histogram: 1 0 2 1 2 0 1 3 3 3
Neighs:         0.00000 ave           0 max           0 min
Histogram: 16 0 0 0 0 0 0 0 0 0
FullNghs:      1640.75 ave        1901 max        1260 min
Histogram: 1 0 0 2 2 2 2 5 1 1

Total # of neighbors = 26252
Ave neighs/atom = 30.384259
Ave special neighs/atom = 0.0000000
Neighbor list builds = 2000
Dangerous builds = 2000
unfix   3
                
Total wall time: 2:13:18
