LAMMPS (29 Sep 2021 - Update 3)
OMP_NUM_THREADS environment is not set. Defaulting to 1 thread. (src/comm.cpp:98)
  using 1 OpenMP thread(s) per MPI task
units	metal
atom_style	full

read_data	mixed.data
Reading data file ...
  orthogonal box = (0.0000000 0.0000000 0.0000000) to (15.866041 15.852264 77.123517)
  2 by 1 by 8 MPI processor grid
  reading atoms ...
  864 atoms
Finding 1-2 1-3 1-4 neighbors ...
  special bond factors lj:    0        0        0       
  special bond factors coul:  0        0        0       
     0 = max # of 1-2 neighbors
     0 = max # of 1-3 neighbors
     0 = max # of 1-4 neighbors
     1 = max # of special neighbors
  special bonds CPU = 0.002 seconds
  read_data CPU = 1.971 seconds

pair_style	quip
pair_coeff	* * /ocean/projects/cts180021p/wuziqi/clease/mint-PD/PhaseDiagram-Clease/Liquid/GAP_potential/gap_LiKCl.xml "Potential xml_label=GAP_2021_9_27_0_1_17_37_618" 17 19 3

neighbor	0.3 bin
neigh_modify	delay 10

timestep	0.001
compute	msd all msd
thermo_style	custom step temp pe etotal press vol c_msd[4]
thermo	10
dump	1 all custom 10 xyz-mix.dump type id x y z
dump	2 all custom 10 force-mix.dump type id fx fy fz

fix     1 all nve
run     2000
Neighbor list info ...
  update every 1 steps, delay 10 steps, check yes
  max neighbors/atom: 2000, page size: 100000
  master list distance cutoff = 6.22
  ghost atom cutoff = 6.22
  binsize = 3.11, bins = 6 6 25
  1 neighbor lists, perpetual/occasional/extra = 1 0 0
  (1) pair quip, perpetual
      attributes: full, newton on
      pair build: full/bin
      stencil: full/bin/3d
      bin: standard
Per MPI rank memory allocation (min/avg/max) = 8.889 | 8.906 | 8.916 Mbytes
Step Temp PotEng TotEng Press Volume c_msd[4] 
       0            0   -8878.9247   -8878.9247   -11708.833    19397.542            0 
      10    108.80145    -8891.078    -8878.941   -13519.947    19397.542 0.00037756483 
      20    255.99871   -8907.5101   -8878.9531   -15433.074    19397.542  0.004636157 
      30    288.56988   -8911.1358   -8878.9454   -14361.122    19397.542  0.015943357 
      40    289.10053   -8911.1934   -8878.9438   -12512.136    19397.542  0.032214776 
      50    304.26419   -8912.8839   -8878.9428   -12190.839    19397.542  0.050010352 
      60    330.67215   -8915.8353   -8878.9484    -12512.07    19397.542  0.067008738 
      70    319.75479    -8914.613   -8878.9439   -12021.554    19397.542  0.084636553 
      80     311.7171   -8913.7131   -8878.9406   -11242.174    19397.542   0.10335882 
      90    344.97025   -8917.4272   -8878.9452   -11377.847    19397.542   0.12285636 
     100    369.47631   -8920.1625   -8878.9469   -11460.202    19397.542   0.14373353 
     110    369.44402   -8920.1551   -8878.9431   -10737.559    19397.542   0.16547428 
     120    381.04496   -8921.4513   -8878.9452   -10101.733    19397.542   0.18697263 
     130    387.01967   -8922.1174   -8878.9447    -9853.945    19397.542   0.20927079 
     140    390.46305   -8922.5002   -8878.9434   -10154.629    19397.542   0.23274757 
     150    401.17379   -8923.6966   -8878.9451   -10935.233    19397.542   0.25686229 
     160    405.60936   -8924.1923    -8878.946   -11533.497    19397.542   0.28181117 
     170    403.00983   -8923.9035   -8878.9472   -11313.905    19397.542   0.30705714 
     180    385.93942   -8921.9971   -8878.9449   -10395.352    19397.542   0.33328028 
     190    384.55592   -8921.8429   -8878.9451   -9702.4152    19397.542    0.3615061 
     200    397.89654   -8923.3338   -8878.9478   -9508.3306    19397.542   0.39138176 
     210    403.74057   -8923.9838    -8878.946   -9854.3562    19397.542   0.41959204 
     220    419.25516   -8925.7147   -8878.9462   -11120.155    19397.542   0.44190424 
     230    437.64496   -8927.7678   -8878.9478   -12741.979    19397.542   0.46059951 
     240    436.22365   -8927.6096   -8878.9482   -13773.271    19397.542   0.48016288 
     250     417.4692   -8925.5154   -8878.9461   -14188.084    19397.542   0.50051511 
     260    403.07006   -8923.9093   -8878.9463   -14452.366    19397.542   0.51954432 
     270    390.78955   -8922.5388   -8878.9456   -14869.677    19397.542   0.53842732 
     280    390.91941   -8922.5534   -8878.9458   -15753.944    19397.542   0.55789535 
     290    394.53071   -8922.9579   -8878.9474   -16866.473    19397.542   0.57907365 
     300    385.46639   -8921.9447   -8878.9454   -17556.881    19397.542   0.60332818 
     310    388.07639   -8922.2367   -8878.9462   -18102.563    19397.542   0.62988844 
     320    395.22438   -8923.0346   -8878.9467   -18476.923    19397.542   0.65693198 
     330     392.7193   -8922.7554    -8878.947   -18634.964    19397.542   0.68294096 
     340    387.36548    -8922.158   -8878.9468   -18928.114    19397.542    0.7064488 
     350    383.70376     -8921.75   -8878.9472   -19255.038    19397.542   0.72809194 
     360    380.16279   -8921.3526   -8878.9449   -19764.905    19397.542   0.74756432 
     370    391.53302   -8922.6238   -8878.9477   -20433.416    19397.542   0.76345228 
     380    397.18733   -8923.2529   -8878.9461   -20848.612    19397.542   0.77799013 
     390    399.66038   -8923.5327     -8878.95   -20962.623    19397.542    0.7926845 
     400    376.74168   -8920.9703   -8878.9442   -20594.318    19397.542   0.80792627 
     410    384.01385   -8921.7861   -8878.9488   -20827.442    19397.542   0.82090067 
     420    385.42711   -8921.9432   -8878.9482    -21282.02    19397.542   0.83289421 
     430    375.82197   -8920.8694   -8878.9459   -21749.833    19397.542   0.84474346 
     440    377.40301   -8921.0478   -8878.9479   -22280.425    19397.542   0.85654263 
     450    373.39276   -8920.5987   -8878.9462   -22358.315    19397.542   0.87121917 
     460    380.55104   -8921.3982   -8878.9472   -22127.174    19397.542   0.88923864 
     470    389.08947   -8922.3531   -8878.9496   -21563.629    19397.542   0.90990069 
     480    377.88025   -8921.0989   -8878.9458   -20903.426    19397.542   0.93174236 
     490    381.74982   -8921.5319   -8878.9472   -20620.986    19397.542   0.94962563 
     500    394.14575   -8922.9156   -8878.9481   -20486.731    19397.542   0.96309083 
     510    397.04898   -8923.2389   -8878.9475   -19997.235    19397.542   0.97658553 
     520    399.82595   -8923.5491    -8878.948   -19535.484    19397.542   0.99241283 
     530    404.27704   -8924.0446   -8878.9469    -19115.46    19397.542    1.0084992 
     540     411.3451   -8924.8362     -8878.95   -18661.849    19397.542    1.0226069 
     550    394.09812   -8922.9082    -8878.946   -17821.103    19397.542    1.0374953 
     560    386.81962   -8922.0987   -8878.9484   -17144.624    19397.542    1.0531551 
     570    383.04436   -8921.6747   -8878.9456   -16711.306    19397.542    1.0690946 
     580    397.22268   -8923.2587   -8878.9479   -16702.646    19397.542    1.0866029 
     590    408.28446   -8924.4929   -8878.9481   -16623.668    19397.542    1.1074158 
     600    405.74477   -8924.2095   -8878.9481   -16314.107    19397.542    1.1302748 
     610    396.02325   -8923.1251   -8878.9481    -15628.66    19397.542    1.1519665 
     620     395.3341   -8923.0495   -8878.9494   -15051.831    19397.542    1.1694303 
     630    394.27036   -8922.9318   -8878.9503   -14512.907    19397.542    1.1828305 
     640    383.62649   -8921.7417   -8878.9476   -14067.198    19397.542    1.1945401 
     650    385.14193   -8921.9112    -8878.948   -13839.463    19397.542    1.2068311 
     660     395.4713   -8923.0651   -8878.9497   -13755.797    19397.542    1.2218962 
     670     396.9724   -8923.2312   -8878.9483   -13681.042    19397.542    1.2411479 
     680    400.76426   -8923.6562   -8878.9504   -13529.754    19397.542    1.2649597 
     690    395.59922   -8923.0782   -8878.9485   -13202.541    19397.542    1.2892968 
     700    393.08673   -8922.7984    -8878.949    -12863.36    19397.542    1.3108518 
     710    392.46287   -8922.7295   -8878.9497   -12776.215    19397.542    1.3306314 
     720    392.69983   -8922.7538   -8878.9476   -12960.731    19397.542    1.3493343 
     730    407.70626    -8924.431   -8878.9507   -13617.908    19397.542    1.3652761 
     740    418.60831   -8925.6458   -8878.9494   -14182.857    19397.542    1.3758719 
     750    427.35697   -8926.6222   -8878.9499   -14411.802    19397.542    1.3817369 
     760    426.23067   -8926.4956    -8878.949   -14240.457    19397.542    1.3874968 
     770    425.68986   -8926.4355   -8878.9492   -14121.142    19397.542    1.3956033 
     780    424.34662   -8926.2861   -8878.9496   -14199.692    19397.542    1.4059418 
     790    416.51178   -8925.4118   -8878.9493   -14348.579    19397.542    1.4172819 
     800    406.85203   -8924.3329   -8878.9479   -14603.708    19397.542    1.4293586 
     810     409.3926   -8924.6176   -8878.9492   -14954.594    19397.542    1.4437899 
     820    411.52943   -8924.8561   -8878.9494   -15227.004    19397.542     1.461671 
     830    414.76526   -8925.2161   -8878.9484   -15348.177    19397.542    1.4822988 
     840    425.47297   -8926.4126   -8878.9505   -15497.059    19397.542    1.5061095 
     850    424.10961   -8926.2589   -8878.9489    -15461.05    19397.542    1.5339208 
     860    425.84903   -8926.4531    -8878.949   -15668.017    19397.542    1.5638872 
     870    428.28778   -8926.7265   -8878.9503   -15975.954    19397.542    1.5941429 
     880    422.32484   -8926.0597   -8878.9487   -16050.391    19397.542    1.6254163 
     890    420.59441   -8925.8681   -8878.9502   -16210.368    19397.542    1.6579317 
     900    412.78354   -8924.9958   -8878.9492   -16186.118    19397.542    1.6917804 
     910    408.88335   -8924.5603   -8878.9488   -16398.021    19397.542    1.7253326 
     920    415.25495   -8925.2723     -8878.95   -16866.947    19397.542    1.7566903 
     930    417.79568   -8925.5555   -8878.9498    -17314.63    19397.542    1.7866576 
     940    414.15774   -8925.1502   -8878.9503   -17816.895    19397.542    1.8175362 
     950    410.14766   -8924.7024   -8878.9498   -18397.528    19397.542     1.850555 
     960    412.13206   -8924.9218   -8878.9478   -18864.984    19397.542    1.8837942 
     970    427.90234   -8926.6835   -8878.9503   -19165.223    19397.542    1.9147148 
     980    431.11936    -8927.043    -8878.951    -19021.79    19397.542    1.9457246 
     990    415.64991   -8925.3145   -8878.9482   -18606.767    19397.542    1.9812421 
    1000    413.92707   -8925.1233   -8878.9491   -18513.829    19397.542    2.0201072 
    1010    417.45395   -8925.5177     -8878.95   -18558.895    19397.542    2.0574524 
    1020    414.66605   -8925.2045   -8878.9479    -18540.13    19397.542    2.0909232 
    1030    425.32279   -8926.3944    -8878.949   -18804.281    19397.542    2.1200334 
    1040    437.39791    -8927.743   -8878.9506    -19174.44    19397.542    2.1461906 
    1050    432.04437    -8927.144   -8878.9488   -19430.964    19397.542    2.1724444 
    1060    423.10855   -8926.1471   -8878.9487    -19670.97    19397.542     2.200914 
    1070    416.30819    -8925.389   -8878.9492   -19752.208    19397.542     2.232564 
    1080    410.19009   -8924.7058   -8878.9485   -19471.789    19397.542    2.2656179 
    1090    411.43188   -8924.8454   -8878.9496   -18927.842    19397.542    2.2963807 
    1100    413.58688   -8925.0849   -8878.9486   -18540.027    19397.542    2.3238349 
    1110    425.71996   -8926.4384   -8878.9486   -18620.545    19397.542    2.3474636 
    1120    443.01807   -8928.3709   -8878.9516   -18883.908    19397.542    2.3679172 
    1130    437.42575   -8927.7454   -8878.9499   -18767.479    19397.542    2.3882255 
    1140    422.48256   -8926.0773   -8878.9487   -18476.767    19397.542    2.4089666 
    1150    414.07643   -8925.1393   -8878.9485   -18282.798    19397.542    2.4284943 
    1160    416.01416   -8925.3558   -8878.9488   -18291.885    19397.542     2.446853 
    1170    419.66714   -8925.7642   -8878.9497   -18446.717    19397.542    2.4644412 
    1180    424.21945   -8926.2706   -8878.9483    -18449.36    19397.542    2.4806419 
    1190    440.19598   -8928.0557   -8878.9512   -18343.062    19397.542    2.4945267 
    1200    440.38662   -8928.0752   -8878.9494   -17908.359    19397.542     2.507228 
    1210    440.40752   -8928.0774   -8878.9493   -17509.071    19397.542    2.5196997 
    1220    445.29341   -8928.6232   -8878.9501   -17433.008    19397.542    2.5321836 
    1230    444.31811   -8928.5138   -8878.9494   -17404.254    19397.542    2.5456285 
    1240    444.21916   -8928.5028   -8878.9495   -17567.287    19397.542    2.5617678 
    1250    447.95301   -8928.9197   -8878.9499   -17998.888    19397.542    2.5810013 
    1260    447.05056     -8928.82   -8878.9509   -18113.089    19397.542    2.6027835 
    1270    433.76409   -8927.3363   -8878.9493   -17647.746    19397.542    2.6267411 
    1280    426.49744   -8926.5249   -8878.9485   -17215.404    19397.542    2.6522665 
    1290    438.76938   -8927.8949   -8878.9495   -17215.004    19397.542     2.679609 
    1300     454.8554   -8929.6913   -8878.9515   -17412.029    19397.542    2.7096074 
    1310    451.74789   -8929.3435   -8878.9504   -17515.094    19397.542    2.7419599 
    1320    440.03726   -8928.0361   -8878.9493    -17582.78    19397.542    2.7732724 
    1330    433.51813    -8927.309   -8878.9494   -17627.787    19397.542    2.7991894 
    1340    430.66307   -8926.9918   -8878.9507   -17406.648    19397.542    2.8192899 
    1350    422.06307   -8926.0311   -8878.9493    -17030.68    19397.542    2.8369839 
    1360    423.68793   -8926.2128   -8878.9498   -16872.793    19397.542    2.8564726 
    1370    432.23825   -8927.1671   -8878.9502   -16941.721    19397.542    2.8798412 
    1380    440.61409   -8928.1014   -8878.9502   -17160.411    19397.542     2.904214 
    1390    442.38617   -8928.3005   -8878.9516   -17288.698    19397.542    2.9262872 
    1400    432.82497   -8927.2303    -8878.948   -17111.965    19397.542    2.9462931 
    1410    443.20721   -8928.3906   -8878.9502   -17379.272    19397.542    2.9656964 
    1420     452.8574   -8929.4692   -8878.9523   -17581.285    19397.542    2.9866189 
    1430    440.33742   -8928.0699   -8878.9496    -17078.18    19397.542    3.0107644 
    1440    434.09539   -8927.3728   -8878.9488   -16559.852    19397.542    3.0372306 
    1450    446.59797     -8928.77   -8878.9513   -16458.202    19397.542    3.0634597 
    1460    455.16552   -8929.7248   -8878.9504   -16509.198    19397.542    3.0883146 
    1470     460.5176    -8930.323   -8878.9516   -16639.411    19397.542    3.1117695 
    1480    455.78137    -8929.792   -8878.9489   -16643.605    19397.542    3.1332037 
    1490    461.66937   -8930.4506   -8878.9507   -16632.215    19397.542     3.152331 
    1500    464.06114   -8930.7172   -8878.9504   -16316.323    19397.542    3.1724877 
    1510    464.69685   -8930.7871   -8878.9495    -16148.36    19397.542    3.1960897 
    1520    471.22077   -8931.5167   -8878.9514   -16208.841    19397.542    3.2225013 
    1530    471.47122   -8931.5429   -8878.9496   -16597.639    19397.542    3.2496574 
    1540    479.04999   -8932.3903   -8878.9516   -17340.131    19397.542    3.2743864 
    1550    475.60674   -8932.0055   -8878.9508   -17872.304    19397.542    3.2971604 
    1560    465.76065   -8930.9064   -8878.9501   -17822.552    19397.542    3.3221892 
    1570    460.06152    -8930.271   -8878.9505    -17442.47    19397.542    3.3512444 
    1580    459.40082   -8930.1971   -8878.9502   -16941.542    19397.542    3.3813068 
    1590    460.93829   -8930.3707   -8878.9523   -16350.345    19397.542    3.4083736 
    1600     448.2201   -8928.9504   -8878.9508   -15603.607    19397.542    3.4316634 
    1610     443.9941   -8928.4772    -8878.949    -15275.86    19397.542    3.4534934 
    1620    463.51034   -8930.6582    -8878.953   -15593.563    19397.542    3.4766509 
    1630    474.66564   -8931.9011   -8878.9514   -16126.405    19397.542    3.5034224 
    1640    481.75389   -8932.6918   -8878.9514   -16542.721    19397.542    3.5333548 
    1650    479.37897   -8932.4264    -8878.951   -16541.998    19397.542    3.5648125 
    1660    474.97776   -8931.9337   -8878.9492   -16284.173    19397.542    3.5952514 
    1670    481.99089    -8932.719   -8878.9522   -15990.017    19397.542    3.6221631 
    1680      474.213   -8931.8498   -8878.9506   -15457.654    19397.542    3.6454728 
    1690    462.13083    -8930.502   -8878.9506   -14731.806    19397.542     3.665115 
    1700    458.63731   -8930.1109   -8878.9492   -14389.905    19397.542    3.6801149 
    1710    473.55465   -8931.7771   -8878.9513   -14547.389    19397.542    3.6915037 
    1720    483.59001    -8932.897   -8878.9518   -15013.331    19397.542    3.7021408 
    1730    481.36556   -8932.6472   -8878.9501   -15645.926    19397.542    3.7142289 
    1740    484.05437   -8932.9483   -8878.9513   -16474.749    19397.542    3.7288904 
    1750    482.16869   -8932.7383   -8878.9516   -16722.219    19397.542     3.747119 
    1760    470.26243   -8931.4082   -8878.9497   -16475.495    19397.542    3.7689551 
    1770    472.75321   -8931.6852   -8878.9489   -16480.419    19397.542    3.7930019 
    1780    495.80424   -8934.2609   -8878.9532   -16801.632    19397.542     3.817904 
    1790    498.29189   -8934.5359   -8878.9506   -17030.699    19397.542    3.8432118 
    1800    497.22115   -8934.4163   -8878.9505   -17233.599    19397.542    3.8677962 
    1810    498.13201   -8934.5195   -8878.9521   -17294.852    19397.542    3.8916583 
    1820    485.17576   -8933.0725   -8878.9504   -16971.976    19397.542    3.9157232 
    1830    479.44537   -8932.4337   -8878.9509   -16627.564    19397.542    3.9391486 
    1840    478.88134   -8932.3712   -8878.9513   -16398.764    19397.542    3.9621449 
    1850     478.6415   -8932.3435   -8878.9503   -16406.049    19397.542    3.9857213 
    1860     486.1211   -8933.1789   -8878.9514   -16705.544    19397.542    4.0086822 
    1870    492.79459   -8933.9238   -8878.9519   -17221.514    19397.542    4.0297149 
    1880    491.36379   -8933.7648   -8878.9525   -18037.772    19397.542    4.0499732 
    1890    475.70955   -8932.0166   -8878.9505   -18910.363    19397.542    4.0709101 
    1900    464.92588   -8930.8141   -8878.9509   -19819.272    19397.542    4.0929306 
    1910    455.59431   -8929.7727   -8878.9505   -20229.987    19397.542    4.1160109 
    1920    452.87672   -8929.4684   -8878.9493   -20242.611    19397.542    4.1384657 
    1930    467.97161   -8931.1539   -8878.9509   -20369.825    19397.542    4.1581839 
    1940    485.34862   -8933.0926   -8878.9512   -20514.477    19397.542    4.1756159 
    1950    495.78252   -8934.2578   -8878.9525   -20428.878    19397.542    4.1936772 
    1960    500.11778   -8934.7389     -8878.95   -20591.437    19397.542    4.2145461 
    1970    511.99695   -8936.0681    -8878.954   -21344.221    19397.542    4.2363696 
    1980    499.23942   -8934.6421   -8878.9512   -21654.428    19397.542    4.2540635 
    1990    487.56603   -8933.3391   -8878.9504    -21588.86    19397.542    4.2657075 
    2000    485.14508   -8933.0707    -8878.952   -21134.343    19397.542    4.2770463 
Loop time of 1910.76 on 16 procs for 2000 steps with 864 atoms

Performance: 0.090 ns/day, 265.383 hours/ns, 1.047 timesteps/s
96.9% CPU use with 16 MPI tasks x 1 OpenMP threads

MPI task timing breakdown:
Section |  min time  |  avg time  |  max time  |%varavg| %total
---------------------------------------------------------------
Pair    | 579.14     | 1203.1     | 1883.7     | 997.9 | 62.97
Bond    | 0.00024652 | 0.0007726  | 0.0018723  |   0.0 |  0.00
Neigh   | 0.014217   | 0.029448   | 0.061393   |   7.6 |  0.00
Comm    | 24.189     | 646.1      | 1229.1     |1329.8 | 33.81
Output  | 1.2881     | 17.97      | 45.193     | 349.5 |  0.94
Modify  | 0.011523   | 0.013126   | 0.015255   |   0.8 |  0.00
Other   |            | 43.53      |            |       |  2.28

Nlocal:        54.0000 ave          90 max          29 min
Histogram: 3 3 0 2 3 1 0 2 0 2
Nghost:        493.750 ave         643 max         369 min
Histogram: 3 1 0 3 2 2 1 2 0 2
Neighs:         0.00000 ave           0 max           0 min
Histogram: 16 0 0 0 0 0 0 0 0 0
FullNghs:      2706.00 ave        5944 max         890 min
Histogram: 6 0 2 1 3 0 2 0 0 2

Total # of neighbors = 43296
Ave neighs/atom = 50.111111
Ave special neighs/atom = 0.0000000
Neighbor list builds = 200
Dangerous builds = 200
unfix   1

velocity    all create 1012.5 1312343 dist gaussian
fix     2 all npt temp 1012.5 1012.5 $(100.0*dt) aniso 0.0 1.01325 $(1000.0*dt)
fix     2 all npt temp 1012.5 1012.5 0.10000000000000000555 aniso 0.0 1.01325 $(1000.0*dt)
fix     2 all npt temp 1012.5 1012.5 0.10000000000000000555 aniso 0.0 1.01325 1
run     3000
Per MPI rank memory allocation (min/avg/max) = 8.894 | 8.909 | 8.920 Mbytes
Step Temp PotEng TotEng Press Volume c_msd[4] 
    2000       1012.5   -8933.0707   -8820.1248   -17895.046    19397.542    4.2770463 
    2010     870.4609   -8917.3014   -8820.2002   -14398.548     19389.44    4.3061752 
    2020     681.2913   -8896.1774   -8820.1784   -9165.9194    19368.049    4.3356861 
    2030    701.26946   -8898.0276      -8819.8    -8479.683    19337.763    4.3519574 
    2040    746.23432   -8902.2461   -8819.0026   -8799.0575    19299.652     4.354716 
    2050    764.41528   -8903.3015   -8818.0299    -7990.948    19253.714    4.3497329 
    2060    777.34701   -8903.8168   -8817.1026   -6405.8313    19200.896    4.3399059 
    2070    790.28981    -8904.436    -8816.278   -4736.9218    19142.903    4.3284265 
    2080    795.46986   -8904.2185   -8815.4826   -2819.7489    19081.652    4.3171271 
    2090    784.33178   -8902.0924    -8814.599    -335.5899    19019.303    4.3043872 
    2100     780.5854   -8900.5709   -8813.4955    2432.7248    18958.414    4.2884824 
    2110    792.87688   -8900.5428   -8812.0962    4987.0956    18901.678    4.2688922 
    2120    830.61397   -8903.0794   -8810.4232     7127.898    18851.431     4.247138 
    2130    846.56497   -8903.0109   -8808.5753    9231.5202    18809.474    4.2271777 
    2140    832.27287   -8899.5485   -8806.7072    10817.044     18777.31    4.2094382 
    2150    846.35357   -8899.3018   -8804.8898    10778.434    18755.793    4.1918046 
    2160    876.21311   -8900.8547   -8803.1118    9743.8748    18744.411    4.1744664 
    2170    890.22645   -8900.7133   -8801.4072      9068.99      18741.9    4.1590534 
    2180    870.39549   -8896.9069   -8799.8129    8486.6027    18747.228    4.1471414 
    2190    837.53874   -8891.7333   -8798.3046    7429.5539    18759.499    4.1401983 
    2200    867.07844   -8893.5094   -8796.7855    5126.3277    18777.452    4.1391509 
    2210    895.55929   -8895.0995   -8795.1985    3434.3179    18799.038    4.1431204 
    2220    884.12916   -8892.2751   -8793.6491    3067.7949    18822.738    4.1503331 
    2230    894.12911   -8891.9017   -8792.1602    2750.0836    18848.053    4.1586739 
    2240    884.73314   -8889.3717   -8790.6784    2731.6187    18874.721    4.1707924 
    2250    898.48363   -8889.4147   -8789.1875    1960.7119    18902.598    4.1846619 
    2260     898.6792   -8887.8946   -8787.6456    1349.0761    18931.063    4.1950287 
    2270    898.33994   -8886.3055   -8786.0943    1201.8074    18959.607    4.2025882 
    2280    930.29716   -8888.2872   -8784.5111    675.30669    18988.053     4.212648 
    2290     938.9544   -8887.6541   -8782.9123    543.36848    19016.056     4.229245 
    2300    939.55001   -8886.1663   -8781.3581    59.158325    19043.441     4.249532 
    2310    935.10358   -8884.1429   -8779.8307   -636.41364    19069.854    4.2689328 
    2320    934.95073   -8882.6084   -8778.3132   -1825.3396    19094.705    4.2817723 
    2330     954.6829   -8883.2876   -8776.7913   -2595.2875    19117.114    4.2834892 
    2340     972.1205   -8883.7262   -8775.2847    -2614.316    19136.539    4.2752072 
    2350    1001.1461   -8885.5012   -8773.8219   -3153.0694    19152.954    4.2629925 
    2360    981.93114   -8881.9769    -8772.441   -3170.7194    19166.086    4.2526918 
    2370    947.57499   -8876.8653   -8771.1618   -2610.9915    19176.041    4.2470312 
    2380    954.81384   -8876.4109      -8769.9   -2835.1053      19183.3    4.2471699 
    2390    947.70381   -8874.3383   -8768.6205   -3037.9209    19187.815    4.2514372 
    2400    964.76916   -8874.9648   -8767.3433   -3528.4393    19189.439      4.25685 
    2410    998.36328   -8877.4169   -8766.0479   -3332.1788    19187.909    4.2606912 
    2420    1000.4734   -8876.3871   -8764.7828   -1932.3651    19183.537    4.2607127 
    2430    1021.9693   -8877.5652    -8763.563   -1474.3722    19177.449    4.2581295 
    2440    1035.4948   -8877.9101   -8762.3991   -1961.7814    19170.101    4.2572378 
    2450    1040.2591   -8877.3788   -8761.3363   -2283.2052    19161.178     4.260508 
    2460    1046.8054   -8877.1496   -8760.3769   -1787.1371    19150.465    4.2697813 
    2470    1050.5851   -8876.7228   -8759.5285   -779.53028    19138.428    4.2845008 
    2480    1052.6075   -8876.2096   -8758.7897   -184.47575     19125.92    4.2998513 
    2490     1044.199   -8874.6423   -8758.1603    298.93731    19113.505    4.3142593 
    2500     1030.977   -8872.6164   -8757.6094    535.84617    19101.587    4.3273798 
    2510    1036.3125   -8872.7015   -8757.0993    189.28691    19090.351    4.3392983 
    2520    1051.6755   -8873.9526   -8756.6366   -32.943786    19079.532     4.350839 
    2530    1052.1108   -8873.6253   -8756.2607    793.70586    19068.984     4.363267 
    2540    1023.5737   -8870.1398   -8755.9586    1761.0013    19059.364    4.3784941 
    2550    1045.5391   -8872.3349   -8755.7034    1279.8225    19051.391    4.3955429 
    2560    1082.9756   -8876.3333   -8755.5258    56.152724    19044.649    4.4132741 
    2570    1082.8436   -8876.2911   -8755.4983    229.49026    19038.211    4.4331052 
    2580    1096.1171   -8877.9325    -8755.659     555.9432      19032.1    4.4577178 
    2590    1106.6896   -8879.4933   -8756.0404     -149.054    19026.494    4.4851343 
    2600    1115.1492    -8881.072   -8756.6754   -701.21113    19020.866    4.5081548 
    2610    1107.3009   -8881.0898   -8757.5688   -794.49979     19014.74    4.5251112 
    2620    1075.5872   -8878.6302   -8758.6469   -588.49026    19008.015    4.5411489 
    2630    1059.9903   -8878.0569   -8759.8134   -31.985992    19000.894    4.5580176 
    2640     1063.304   -8879.6409   -8761.0277    594.48144    18993.843    4.5727467 
    2650    1075.9695   -8882.3304   -8762.3044    1012.3155    18987.401    4.5861053 
    2660    1063.7266   -8882.2922   -8763.6318    1351.8899    18981.957    4.6002326 
    2670    1062.2851   -8883.4743   -8764.9748    699.11216    18977.684    4.6117373 
    2680    1093.2284   -8888.3398   -8766.3885    477.54718    18974.128    4.6200875 
    2690    1074.4215   -8887.7189   -8767.8656    1723.2506    18971.171    4.6276764 
    2700    1067.0449   -8888.3614    -8769.331    2112.2367     18969.71    4.6354633 
    2710    1082.3957   -8891.5615   -8770.8186     1767.863    18970.089    4.6438923 
    2720    1032.3184   -8887.4174   -8772.2608    2672.1182    18972.156    4.6542053 
    2730    1017.0296   -8887.0267   -8773.5756    3300.1534    18976.555    4.6636091 
    2740    1040.9441   -8890.9337   -8774.8148    2520.7927    18983.706    4.6694903 
    2750    1024.3301   -8890.2631   -8775.9976    1899.2055    18993.047    4.6784597 
    2760    1011.1739   -8889.9008   -8777.1029    607.51271    19003.901     4.691537 
    2770    1019.4114   -8891.8575   -8778.1406   -1094.2314    19015.109    4.7060745 
    2780    1012.3328   -8892.0596   -8779.1324   -1794.9876    19025.281    4.7200065 
    2790    995.57175   -8891.1266   -8780.0691    -1830.007    19033.782    4.7316128 
    2800    998.67537   -8892.3622   -8780.9584   -2191.1649     19040.49    4.7414522 
    2810    1003.7372   -8893.7514   -8781.7831    -2585.252    19045.143    4.7499113 
    2820     1025.402   -8896.9534   -8782.5682   -3149.7523    19047.412    4.7610391 
    2830    1041.3616   -8899.5444    -8783.379    -3566.572     19046.84    4.7789902 
    2840    1024.8228   -8898.5591   -8784.2386   -3723.8671     19043.11    4.8045653 
    2850    1007.5314   -8897.4958   -8785.1042   -3691.3419    19036.151    4.8350489 
    2860    1008.0877   -8898.3964   -8785.9427   -3926.6171    19026.013    4.8702568 
    2870    992.87427    -8897.499   -8786.7424   -4542.9444    19012.537     4.910924 
    2880    961.89774    -8894.744   -8787.4428   -4714.2999    18995.355    4.9539125 
    2890    966.51244   -8895.8337   -8788.0178   -5006.7697    18974.321    4.9962168 
    2900    965.40156   -8896.1667   -8788.4747   -3893.9677    18949.441    5.0321193 
    2910    961.61373   -8896.0715   -8788.8021   -1664.8025    18921.791    5.0539387 
    2920    997.60843   -8900.2906   -8789.0059   -278.62796    18893.251    5.0651294 
    2930    1019.9511   -8902.9341   -8789.1571    1426.0234    18865.208    5.0708657 
    2940    991.41304   -8899.8638   -8789.2702    3312.8696     18839.13    5.0748189 
    2950    1002.6557   -8901.1949   -8789.3472    4212.1297    18816.547    5.0828243 
    2960     1027.952   -8904.0889   -8789.4193    4189.2942    18798.136    5.0956108 
    2970    1040.6947   -8905.6391   -8789.5481     4022.327    18783.808    5.1102861 
    2980    1052.8076    -8907.207   -8789.7648    3480.4185    18773.289    5.1271804 
    2990    1056.6193   -8907.9657   -8790.0982     2640.182    18766.021    5.1459697 
    3000    1039.9406   -8906.5525   -8790.5456    2339.8716    18761.235     5.166366 
    3010     1011.865   -8903.9219   -8791.0468    3070.1656    18758.681    5.1883709 
    3020    1008.5525   -8904.0519   -8791.5464    2888.7865    18758.767    5.2087727 
    3030    1057.3209    -8910.023   -8792.0773    995.25805     18761.21     5.224884 
    3040    1053.9732    -8910.278   -8792.7057   -135.65432    18764.551    5.2411456 
    3050    1013.0918   -8906.4025   -8793.3906   -533.36495    18767.779    5.2619467 
    3060    1014.9273   -8907.3001   -8794.0834   -1372.3874    18770.439    5.2877323 
    3070    1007.6608   -8907.1535   -8794.7474   -1786.6761    18771.901    5.3149537 
    3080    1037.2386   -8911.1074   -8795.4019   -2666.6734    18771.737    5.3385835 
    3090    1066.8274   -8915.1227   -8796.1165   -3596.9079    18769.257    5.3595439 
    3100    1060.3917   -8915.2401   -8796.9518   -3823.0682    18763.772    5.3859575 
    3110     1025.137   -8912.2124   -8797.8568   -3397.7322    18755.152    5.4221811 
    3120    1010.0683   -8911.4203   -8798.7456   -3378.6051     18743.75    5.4616784 
    3130    1040.3451   -8915.6777   -8799.6256    -3454.219    18729.653    5.4931484 
    3140    1029.0753   -8915.3135   -8800.5186   -2428.8226    18712.949    5.5134465 
    3150    1020.5932   -8915.2296   -8801.3809   -1658.0366    18694.498    5.5284113 
    3160    1043.8743   -8918.6815   -8802.2357   -1771.8651    18674.945    5.5458771 
    3170    1057.9656   -8921.1397   -8803.1221   -2052.0885    18654.254    5.5717588 
    3180    1074.1639   -8923.9188   -8804.0943    -2956.467     18632.21     5.605758 
    3190     1066.891   -8924.1878   -8805.1745   -4459.7955    18608.064    5.6443898 
    3200     1066.942   -8925.3706   -8806.3516   -6082.2409    18580.606    5.6846691 
    3210    1061.2759   -8925.9992   -8807.6123   -7183.4607    18548.625    5.7258851 
    3220    1041.9286    -8925.126   -8808.8973   -7045.5359    18511.366    5.7671926 
    3230    1031.1369   -8925.1429   -8810.1181   -4882.1521      18469.2    5.8056854 
    3240    1030.3401   -8926.1548   -8811.2188   -2464.1401    18424.005    5.8415826 
    3250    1042.7665   -8928.5605   -8812.2383   -1269.5423    18377.834    5.8778971 
    3260    1036.5169   -8928.8307   -8813.2057   -789.09779    18331.804    5.9135147 
    3270    1042.9857   -8930.4975   -8814.1509    149.25525    18286.453    5.9488806 
    3280    1038.5092   -8930.8864   -8815.0392    2371.2713    18242.663    5.9889842 
    3290    1050.0347   -8933.0095   -8815.8765    4642.9529     18202.14    6.0309103 
    3300    1068.7402   -8935.9412   -8816.7216     5648.258    18166.551      6.07098 
    3310    1064.5778   -8936.3778   -8817.6225    5248.5667    18136.521    6.1112361 
    3320    1086.7466   -8939.8448   -8818.6165    3948.1102    18111.573    6.1517472 
    3330    1093.6881     -8941.75   -8819.7475    2973.1322    18090.606    6.1919005 
    3340    1057.6892   -8938.9075   -8820.9207    2188.5068    18072.682     6.229301 
    3350     1087.286   -8943.3984     -8822.11    524.37547    18056.988    6.2589991 
    3360    1123.9362   -8948.7819   -8823.4051   -1221.8531     18042.16    6.2810781 
    3370    1120.1583   -8949.7734   -8824.8181   -1686.7247    18026.886    6.3056718 
    3380     1102.291   -8949.2397   -8826.2775   -1376.1852    18010.784    6.3391354 
    3390    1111.0748   -8951.6832   -8827.7411   -1909.1113    17994.002    6.3827965 
    3400     1122.767   -8954.4987   -8829.2524   -3278.5519    17976.153    6.4383493 
    3410    1117.4283   -8955.4642   -8830.8134   -4151.0146    17956.274    6.5003164 
    3420    1103.4452   -8955.4933   -8832.4023   -5259.2516    17933.663    6.5623297 
    3430    1089.7639   -8955.5338    -8833.969   -6481.0268    17907.561    6.6222759 
    3440    1123.0129   -8960.8415   -8835.5677   -6751.4948    17877.236     6.682881 
    3450    1124.5096   -8962.6467    -8837.206   -5655.6475    17842.691    6.7487221 
    3460     1134.823   -8965.4462    -8838.855   -4556.3208    17804.863    6.8176803 
    3470    1170.4545     -8971.18    -8840.614   -4143.3888    17764.692    6.8880884 
    3480    1168.4515   -8972.8169   -8842.4744   -1854.8674     17722.85    6.9617457 
    3490    1140.9064   -8971.5829   -8844.3131     1427.492    17681.107    7.0374989 
    3500    1108.4897   -8969.6693   -8846.0156    3710.1552    17641.888    7.1159754 
    3510    1111.4967   -8971.6028   -8847.6137    3907.5373    17606.783    7.1941742 
    3520     1118.037   -8973.9003   -8849.1816    3995.3321    17575.947    7.2685307 
    3530    1133.5567   -8977.2248   -8850.7749    3399.0998    17549.192    7.3376012 
    3540    1154.4599   -8981.2585   -8852.4768    2499.6255    17525.945    7.4010025 
    3550    1137.6539   -8981.1693   -8854.2622    3720.1464    17505.594    7.4609648 
    3560    1141.5305   -8983.4102   -8856.0707    5966.7272    17488.822    7.5210007 
    3570    1132.0215   -8984.1853   -8857.9066    6737.3602    17476.978    7.5827564 
    3580    1090.5679   -8981.3412   -8859.6867    6584.0033    17470.527    7.6399234 
    3590    1121.2164   -8986.5004   -8861.4271    5981.3211     17469.17    7.6866391 
    3600    1147.4606   -8991.2349   -8863.2339    6095.4796    17472.346    7.7266472 
    3610    1120.8378   -8990.1246   -8865.0934    6884.7631    17479.991    7.7619836 
    3620    1127.5754   -8992.7464   -8866.9636    6238.4633    17492.419    7.7933494 
    3630    1100.5163   -8991.5946   -8868.8304    4574.3387    17509.037    7.8232747 
    3640    1051.3318   -8987.8043   -8870.5267     2948.982    17528.591    7.8501987 
    3650    1096.1348   -8994.4021   -8872.1266    580.90063    17549.682    7.8672656 
    3660    1083.4522   -8994.5923   -8873.7316    235.07018    17570.685    7.8767402 
    3670    1074.1121   -8995.1109   -8875.2921    478.68221    17591.243    7.8859583 
    3680    1090.8501   -8998.5301   -8876.8441    429.29349    17611.523    7.8993431 
    3690    1048.5677   -8995.3027   -8878.3334    870.63931    17631.556    7.9165897 
    3700    1072.3638   -8999.3544   -8879.7306   -821.43091    17651.481    7.9317944 
    3710    1127.4519   -9006.9457   -8881.1768   -3325.5189    17670.114     7.943934 
    3720    1101.6482   -9005.6075    -8882.717   -3843.7374    17685.779    7.9535892 
    3730    1079.9306   -9004.7636   -8884.2958   -3670.4133    17698.048    7.9581746 
    3740    1039.5792   -9001.7848   -8885.8182   -2867.4316    17707.191      7.96195 
    3750    1037.1778   -9002.9309   -8887.2322   -3257.6314    17713.788     7.967108 
    3760    1039.9393   -9004.5732   -8888.5665    -4987.761    17717.611    7.9769732 
    3770    1057.1409   -9007.7913   -8889.8656   -6533.6874    17717.501    7.9887411 
    3780    1074.7865   -9011.1056   -8891.2116   -6787.8197    17712.451    7.9973756 
    3790    1065.8458   -9011.4905   -8892.5938   -5688.6815    17702.418    8.0028835 
    3800    1070.7873   -9013.4456   -8893.9976   -4466.8552    17688.309    8.0058157 
    3810    1094.4958   -9017.5441   -8895.4514   -4058.0557    17671.093    8.0070689 
    3820    1090.4559   -9018.6389   -8896.9969   -2763.1979    17651.305    8.0135255 
    3830    1046.4512   -9015.2438   -8898.5106   -440.15071    17629.996    8.0289393 
    3840    1016.1132   -9013.2341   -8899.8852    1507.4355    17608.884    8.0511723 
    3850    1009.9402   -9013.7612   -8901.1008    3288.2114    17589.475    8.0781943 
    3860    1039.3098   -9018.1673   -8902.2307    4001.5056    17572.971    8.1059309 
    3870    1046.8082    -9020.119    -8903.346    3980.4502    17559.862    8.1306868 
    3880    1054.2752    -9022.095    -8904.489     4313.189    17550.093    8.1508249 
    3890    1047.7809   -9022.5435   -8905.6619    6426.3707    17543.959    8.1656747 
    3900      1055.11   -9024.5629   -8906.8638    7479.0373     17542.74    8.1723035 
    3910     1069.183   -9027.4079   -8908.1389    6710.9659    17547.086    8.1713039 
    3920    1041.7822   -9025.6578   -8909.4455    4901.5784    17556.353    8.1639821 
    3930    1007.4899   -9023.0722   -8910.6852    2946.1179    17569.126    8.1510179 
    3940    985.62186   -9021.7338   -8911.7862    1118.5859    17583.859    8.1379639 
    3950    987.53382   -9022.8954   -8912.7345    -607.6659    17599.159    8.1288434 
    3960    1006.8385   -9025.8825   -8913.5681   -2873.1829    17613.649    8.1206557 
    3970    1031.0389   -9029.3602   -8914.3463   -5153.7482    17625.625    8.1132932 
    3980     1014.238   -9028.2863   -8915.1465   -5078.2648    17633.583    8.1076918 
    3990    962.80054   -9023.2991   -8915.8973   -3600.8862    17637.593    8.0991422 
    4000    978.38563   -9025.6804     -8916.54   -3496.0485    17638.681    8.0867807 
    4010    1029.0921   -9031.9151   -8917.1183   -5056.0409    17636.972    8.0759961 
    4020    1032.6452   -9032.9293   -8917.7361   -6094.6915    17631.484    8.0757293 
    4030    1012.8453   -9031.3809   -8918.3964   -5702.9928    17621.538    8.0896953 
    4040    1007.3888   -9031.4318   -8919.0561   -3971.8718    17607.537    8.1144618 
    4050    987.91909   -9029.8718   -8919.6679   -1612.4575    17590.856    8.1437137 
    4060    972.35181   -9028.6592   -8920.1919    -42.93067    17573.238    8.1777601 
    4070    994.65029   -9031.5993   -8920.6446    149.07881    17555.859    8.2221142 
    4080    1009.9247   -9033.7277   -8921.0691    210.66657    17538.944    8.2740162 
    4090    991.00017   -9032.0116   -8921.4641    1680.3991    17522.645    8.3271029 
    4100    978.68686   -9030.9827   -8921.8087    3068.9861    17507.925    8.3779484 
    4110    974.06039   -9030.7288   -8922.0709    3356.1228     17495.73     8.423732 
    4120    1026.3312   -9036.7876   -8922.2988     2476.687    17486.204    8.4654335 
    4130    1044.3377     -9039.06   -8922.5626    2785.3939    17478.816    8.5067954 
    4140    1037.9339     -9038.69   -8922.9069    2842.0269    17473.638     8.547695 
    4150    1030.9254   -9038.3231   -8923.3218    2573.7224    17470.663    8.5884919 
    4160    990.26693    -9034.214   -8923.7483    2506.4598    17469.705    8.6289331 
    4170    998.16293   -9035.5013   -8924.1547    1342.0855    17470.597    8.6645028 
    4180    1022.4507    -9038.592   -8924.5361   -69.672505    17472.471    8.6979957 
    4190     1019.444    -9038.643   -8924.9225    83.101646    17474.376    8.7345079 
    4200    1002.5915   -9037.1359   -8925.2953    1017.8226    17476.381    8.7736177 
    4210    1000.5889   -9037.2651   -8925.6479    409.83119    17478.972    8.8059485 
    4220    996.43596   -9037.1143   -8925.9604    160.86467    17481.865    8.8305033 
    4230    1022.9298   -9040.3485   -8926.2391   -366.69015    17484.781    8.8496055 
    4240    1015.6746   -9039.8001   -8926.5001   -547.28515     17487.39     8.868283 
    4250    1044.1167   -9043.2692   -8926.7964   -1121.5505    17489.503     8.888953 
    4260    1047.5123   -9044.0443   -8927.1928   -1326.4817     17490.77    8.9083358 
    4270    991.49093   -9038.2322   -8927.6298    -1086.266    17491.054    8.9210996 
    4280    1026.3284   -9042.5566   -8928.0681   -2053.9406    17490.418    8.9279925 
    4290    1051.8429   -9045.8884   -8928.5538   -2195.9419     17488.31    8.9314838 
    4300    1011.7312   -9041.9536   -8929.0935   -988.98212    17484.691    8.9381665 
    4310    1013.3382    -9042.689   -8929.6496   -1052.3403    17480.301    8.9529639 
    4320     1046.423   -9046.9727   -8930.2427    -1864.171    17475.165    8.9723093 
    4330    1055.8166   -9048.7205   -8930.9425   -2398.2515     17468.75    8.9938401 
    4340    1012.5001   -9044.6573   -8931.7114   -2113.7835    17460.708     9.018841 
    4350    1013.0455   -9045.4818   -8932.4751   -1298.8858    17451.264    9.0479215 
    4360    1034.7944   -9048.6475   -8933.2147   -659.03911    17441.006    9.0781585 
    4370    1031.5552   -9049.0334   -8933.9619    744.03634    17430.495    9.1062559 
    4380     1025.424   -9049.0955   -8934.7079    3221.7792    17420.772    9.1307389 
    4390    1015.7398   -9048.7333    -8935.426    5277.3577    17413.588    9.1474392 
    4400    1018.4786   -9049.7452   -8936.1323    4809.0571    17410.303    9.1534983 
    4410    1026.6308   -9051.3594   -8936.8372     3476.314    17410.611    9.1564416 
    4420    996.81269   -9048.6961   -8937.5002    3136.3773    17413.598    9.1676421 
    4430    1018.4793   -9051.7394   -8938.1265    843.17246    17418.711    9.1914399 
    4440    1038.5178   -9054.6212   -8938.7729   -1320.8158    17424.389    9.2250695 
    4450    1005.4772   -9051.5592   -8939.3967   -2023.2782    17429.111    9.2594427 
    4460    1043.0283   -9056.3834    -8940.032   -3151.0002    17432.195     9.284402 
    4470    1002.5328   -9052.5011    -8940.667   -2086.6613    17433.049    9.3018563 
    4480    990.58766   -9051.7605   -8941.2589   -1335.3256    17432.284    9.3159632 
    4490    1016.6117   -9055.2295   -8941.8249   -1796.8565    17430.438    9.3283882 
    4500    996.36615   -9053.5297   -8942.3835   -1919.3852    17427.312    9.3419166 
    4510    993.92553   -9053.7901   -8942.9162   -1993.1991    17422.803    9.3627015 
    4520    986.06585   -9053.3943   -8943.3972   -546.27689    17416.995    9.3914648 
    4530    974.62155   -9052.5172   -8943.7967    515.25652    17410.832    9.4228889 
    4540    1011.5297   -9056.9577     -8944.12    793.35037    17405.103    9.4523838 
    4550    1024.0088   -9058.6722   -8944.4424    1999.7716    17400.105    9.4779777 
    4560     987.5059   -9054.9325   -8944.7747    3752.0998    17396.707    9.4992537 
    4570    957.66962    -9051.889   -8945.0595    4764.0896    17396.122    9.5219237 
    4580    977.05651   -9054.2313   -8945.2392    4174.9719    17399.007    9.5402994 
    4590    1034.9699   -9060.8196   -8945.3671    3251.2459    17404.938    9.5529854 
    4600    1006.9799   -9057.8276   -8945.4974    3860.3282    17413.331    9.5658405 
    4610    1022.4601   -9059.7114   -8945.6544    3026.5483    17424.358    9.5755875 
    4620    1032.0544   -9060.9354   -8945.8082    1407.0084    17437.437    9.5765299 
    4630    1047.1524   -9062.8332   -8946.0218   -1041.4547    17451.292    9.5703408 
    4640    1056.9734   -9064.2082   -8946.3012   -3083.2055    17464.185    9.5629201 
    4650    1042.6875   -9063.0093   -8946.6959   -3238.5652    17474.672    9.5525897 
    4660    976.04681   -9056.0246   -8947.1451   -2476.3926    17482.608    9.5343147 
    4670    957.92447   -9054.3657   -8947.5078   -2837.0362    17488.488    9.5084424 
    4680    991.08361   -9058.3213   -8947.7644     -4305.07    17492.049    9.4824925 
    4690    988.77034   -9058.2474   -8947.9485   -5217.1602    17492.353    9.4652697 
    4700     1002.494   -9059.9542   -8948.1244   -5707.8422      17488.7    9.4580379 
    4710    979.48192   -9057.5331   -8948.2704   -3868.7478    17480.994    9.4587445 
    4720    964.87166   -9055.9935   -8948.3606   -1245.8373    17470.581    9.4643629 
    4730    977.75248   -9057.4279   -8948.3581    220.84149    17459.361    9.4730718 
    4740    1004.7819   -9060.3892   -8948.3043   -101.01953    17448.394    9.4849528 
    4750    990.56026   -9058.7148   -8948.2163   -279.60591     17437.59    9.5010478 
    4760    994.69956   -9059.0397   -8948.0794   -32.391462    17426.812    9.5188478 
    4770    1038.0312   -9063.7041   -8947.9101    -117.3655    17416.165    9.5359048 
    4780    1043.3787   -9064.1576   -8947.7671     645.5339    17405.703    9.5606084 
    4790    999.75097   -9059.1757    -8947.652    2056.2789    17395.947     9.593726 
    4800    1010.8425   -9060.2776   -8947.5166    2797.5515    17387.844    9.6266965 
    4810    1030.4517   -9062.3038   -8947.3553     3132.813    17381.934    9.6535034 
    4820    983.00587   -9056.8373   -8947.1815    3807.9598    17378.492    9.6743641 
    4830    983.12688   -9056.6405   -8946.9712    2436.2728    17377.796    9.6933558 
    4840    1006.8899   -9059.0092   -8946.6891    603.76051    17378.913    9.7082009 
    4850    1001.0132   -9058.0114   -8946.3468   -344.58555    17380.555    9.7213348 
    4860    1054.2575   -9063.5676   -8945.9636   -1111.3787    17381.921    9.7345013 
    4870    1080.9302   -9066.1771   -8945.5977   -564.22233    17382.533    9.7516503 
    4880    1088.8956   -9066.8482   -8945.3803   -43.381578    17382.704    9.7735339 
    4890    1038.8172   -9061.1837    -8945.302    529.52511    17382.866    9.7919017 
    4900     1022.522   -9059.3831   -8945.3192    666.68746    17383.394    9.8034236 
    4910    1035.9278   -9060.9371   -8945.3778    700.92419    17384.413    9.8169453 
    4920    1043.5578   -9061.9045    -8945.494    1067.0824    17385.956    9.8386282 
    4930    1015.7232   -9058.9758   -8945.6703    1727.1181    17388.282    9.8694366 
    4940    995.40101   -9056.8831   -8945.8446    1107.6723    17391.767    9.9056202 
    4950    1023.7023    -9060.199   -8946.0035   -321.43221    17395.992    9.9421303 
    4960    1027.8774   -9060.8683   -8946.2071   -224.33046    17400.018    9.9775161 
    4970    1020.4672   -9060.3126    -8946.478    615.78813    17403.901    10.012706 
    4980     1057.184   -9064.7738   -8946.8434    146.55683    17408.117     10.04435 
    4990    1059.9038   -9065.5864   -8947.3525    442.42691    17412.444    10.064384 
    5000    1032.9806   -9063.2407   -8948.0102    1126.8001     17417.06    10.080254 
Loop time of 2720.73 on 16 procs for 3000 steps with 864 atoms

Performance: 0.095 ns/day, 251.919 hours/ns, 1.103 timesteps/s
96.7% CPU use with 16 MPI tasks x 1 OpenMP threads

MPI task timing breakdown:
Section |  min time  |  avg time  |  max time  |%varavg| %total
---------------------------------------------------------------
Pair    | 746.41     | 1745.5     | 2609.5     |1483.0 | 64.15
Bond    | 0.00034356 | 0.0012603  | 0.0027773  |   2.0 |  0.00
Neigh   | 0.021466   | 0.053264   | 0.097308   |  11.0 |  0.00
Comm    | 47.02      | 765.94     | 1674.9     |1823.4 | 28.15
Output  | 0.21552    | 0.21924    | 0.27261    |   2.9 |  0.01
Modify  | 48.262     | 209.02     | 608.59     |1207.2 |  7.68
Other   |            | 0.01726    |            |       |  0.00

Nlocal:        54.0000 ave          85 max          20 min
Histogram: 1 3 2 0 1 1 2 0 4 2
Nghost:        546.562 ave         770 max         348 min
Histogram: 4 0 2 0 1 3 2 2 0 2
Neighs:         0.00000 ave           0 max           0 min
Histogram: 16 0 0 0 0 0 0 0 0 0
FullNghs:      3044.38 ave        6054 max         530 min
Histogram: 4 2 0 1 1 2 2 0 2 2

Total # of neighbors = 48710
Ave neighs/atom = 56.377315
Ave special neighs/atom = 0.0000000
Neighbor list builds = 300
Dangerous builds = 300
unfix   2

fix     3 all npt temp 1012.5 1012.5 $(100.0*dt) aniso 1.01325 1.01325 $(1000.0*dt)
fix     3 all npt temp 1012.5 1012.5 0.10000000000000000555 aniso 1.01325 1.01325 $(1000.0*dt)
fix     3 all npt temp 1012.5 1012.5 0.10000000000000000555 aniso 1.01325 1.01325 1
run     20000
Per MPI rank memory allocation (min/avg/max) = 8.895 | 8.912 | 8.921 Mbytes
Step Temp PotEng TotEng Press Volume c_msd[4] 
    5000    1032.9806   -9063.2407   -8948.0102    1126.8001     17417.06    10.080254 
    5010     1016.862   -9061.4643   -8948.0318    1181.9978    17417.558    10.092725 
    5020    1013.9673   -9061.1711   -8948.0615   -381.11871    17418.843    10.110151 
    5030    1039.0775     -9064.02   -8948.1093   -1376.0886    17419.875    10.132531 
    5040    1041.0247   -9064.3345   -8948.2066   -878.29115    17419.949       10.161 
    5050    1046.7771   -9065.1577   -8948.3882    1408.2883    17419.465    10.185441 
    5060    1042.5557   -9064.9567   -8948.6581    3611.9212    17420.008    10.200808 
    5070    1041.3806   -9065.2032   -8949.0356    4175.0214     17423.17    10.208596 
    5080    1013.0579   -9062.5079   -8949.4998    3320.1943    17429.404    10.215836 
    5090     990.8416   -9060.5268    -8949.997    1801.5288    17438.113    10.223059 
    5100    999.81756   -9061.9934   -8950.4622      -228.36    17448.204    10.226212 
    5110    1011.4619   -9063.7429   -8950.9129   -2744.0429    17458.117    10.231591 
    5120    1021.3621   -9065.3326   -8951.3981   -5235.0995    17465.966    10.243507 
    5130     1024.843   -9066.2739   -8951.9512   -6107.5699    17470.017    10.266782 
    5140    1009.6155   -9065.1983   -8952.5742   -5709.2868    17469.528    10.297608 
    5150    1001.0778   -9064.9228   -8953.2511   -3899.5927     17464.83    10.328273 
    5160    1029.9753    -9068.898   -8954.0027   -2429.2668    17457.133    10.358669 
    5170    1066.3922   -9073.8517   -8954.8941   -2212.1617    17447.487    10.382514 
    5180    1011.1462   -9068.7164   -8955.9215   -1244.6703    17436.218    10.398856 
    5190    954.58814   -9063.3671   -8956.8814   -462.82709    17423.971    10.416413 
    5200     987.1097   -9067.8339   -8957.7203   -392.07679    17411.326    10.438276 
    5210    1022.9662   -9072.6153   -8958.5018   -168.98454    17398.362    10.456886 
    5220    1014.5134    -9072.381   -8959.2105    322.64976    17385.263    10.469848 
    5230    995.52215   -9070.8756   -8959.8236    956.79613    17372.397    10.478564 
    5240    1001.2556   -9072.0144   -8960.3229    716.91296    17360.129     10.48514 
    5250    1008.7432   -9073.2508    -8960.724    872.69993    17348.425    10.493204 
    5260    1002.4002   -9072.8634   -8961.0441    1736.2685    17337.392    10.500474 
    5270    996.38635   -9072.4238   -8961.2754     3122.555    17327.672    10.503396 
    5280    995.89809   -9072.5136   -8961.4197    3588.4366    17320.183    10.502491 
    5290    999.57197   -9073.0018    -8961.498    3034.8771     17315.28    10.501388 
    5300    1014.3143   -9074.6901   -8961.5418    1622.6657    17312.575    10.505361 
    5310    1019.3047   -9075.2962   -8961.5912    244.48655    17311.083     10.51264 
    5320    991.96584   -9072.3035   -8961.6482    232.22448    17309.873    10.523498 
    5330    996.02812   -9072.7962   -8961.6878    446.60845    17308.845    10.545616 
    5340    998.19146   -9073.0523   -8961.7025    895.06792    17308.155    10.581143 
    5350    1002.8361   -9073.5637   -8961.6958     1403.254    17308.149    10.619203 
    5360    1048.3317   -9078.6302   -8961.6872    1185.1513    17309.145    10.656917 
    5370    1061.1461   -9080.1285   -8961.7561    1187.1141    17311.033    10.700224 
    5380    1010.6903   -9074.6189   -8961.8748    1573.4353    17313.874    10.747048 
    5390    1001.3505   -9073.7066   -8962.0045    463.20894    17317.772    10.790974 
    5400    948.93913   -9067.9008   -8962.0452    503.33642     17322.15    10.833755 
    5410    981.29143   -9071.4574   -8961.9929    -458.1289    17326.844    10.870495 
    5420    1025.7515   -9076.2931    -8961.869   -1552.4814     17331.22    10.898092 
    5430    1038.7341   -9077.6311   -8961.7588    -1657.823    17334.525    10.924748 
    5440    1032.3812   -9076.8594   -8961.6957   -1826.0305     17336.59    10.956683 
    5450    1019.6264   -9075.4115   -8961.6706   -2109.0337    17337.289    10.990213 
    5460    1012.8743   -9074.6535   -8961.6659   -2240.6183    17336.422    11.019554 
    5470     993.3006   -9072.4606   -8961.6565   -1954.7086    17333.916    11.045107 
    5480     1047.044   -9078.4472   -8961.6478   -2470.7637    17329.865    11.066357 
    5490    1060.5423   -9080.0136   -8961.7085   -1527.4001    17324.048     11.08929 
    5500    1009.3312   -9074.4431   -8961.8506    459.13169    17317.144    11.118522 
    5510    1028.6108   -9076.7897   -8962.0466   -155.72825    17310.375    11.148366 
    5520    1018.1103   -9075.8552   -8962.2834   -1256.7828    17303.447    11.174079 
    5530    1035.0569   -9078.0636   -8962.6015   -1833.8043    17295.584    11.189993 
    5540    1017.5739    -9076.508   -8962.9961   -1281.5824    17286.379    11.197306 
    5550    1005.0087   -9075.5662    -8963.456    273.53351    17276.227    11.204876 
    5560    1028.2855    -9078.683   -8963.9762    1008.4146    17266.169    11.220144 
    5570    1042.6597    -9080.941   -8964.6307    2029.1042    17256.852    11.243232 
    5580    1013.0432   -9078.4224   -8965.4159    3689.7343    17249.039     11.25932 
    5590     1009.257    -9078.892   -8966.3079     4241.656    17243.843    11.255544 
    5600    1009.3283   -9079.8656   -8967.2735    4604.5493    17241.753    11.234341 
    5610    1014.4401   -9081.4604    -8968.298    4875.5578    17243.035    11.207858 
    5620    978.84788   -9078.5065   -8969.3146    4890.2776    17247.938    11.187086 
    5630    960.48728   -9077.3472   -8970.2034     2996.028    17256.355    11.169674 
    5640    991.30795   -9081.5295   -8970.9476    427.01692    17267.017    11.150833 
    5650    992.76473   -9082.3059   -8971.5615   -1150.1783    17278.175    11.135203 
    5660    1005.7588    -9084.271   -8972.0771   -2519.6442    17288.593    11.127502 
    5670    1012.8228   -9085.5058   -8972.5239   -2775.5907    17297.303    11.126137 
    5680    997.98805   -9084.2391    -8972.912   -1517.2001    17304.138    11.130791 
    5690    996.87382   -9084.4348    -8973.232   -546.87339    17309.887    11.137319 
    5700    981.12207    -9082.929   -8973.4834   -190.22644    17315.241    11.144252 
    5710     958.2155   -9080.5163   -8973.6259   -175.05938    17320.499    11.152569 
    5720    1003.5107   -9085.6219   -8973.6788   -985.87908    17325.629     11.16384 
    5730    1000.1043   -9085.2435   -8973.6804   -1271.9003    17330.116    11.176149 
    5740    993.35997   -9084.4641   -8973.6533   -1247.7162    17333.758    11.182649 
    5750    1033.7072   -9088.9326    -8973.621   -2018.4457    17336.438    11.181356 
    5760    999.76408   -9085.1167   -8973.5915   -592.30866    17337.811    11.180959 
    5770    997.27438   -9084.8058   -8973.5583    573.66098    17338.729     11.18242 
    5780    1021.6217   -9087.4728   -8973.5094    1814.9861    17340.097    11.182484 
    5790    1007.7822   -9085.8857    -8973.466    3563.6284    17342.897    11.185041 
    5800    1035.7687   -9089.0026    -8973.461     3651.375     17348.31    11.182789 
    5810    1004.6243   -9085.5576   -8973.4902    3498.9883    17356.535    11.165801 
    5820     969.9265   -9081.7149   -8973.5182    3208.5415    17367.503    11.142692 
    5830     988.8152   -9083.7752   -8973.4713    1991.0717    17380.992    11.124623 
    5840    1000.1545   -9084.9209   -8973.3522    257.51076    17396.155     11.10847 
    5850    1000.9224   -9084.8351   -8973.1807   -1758.2624     17411.73    11.090721 
    5860    1040.5963   -9089.0592   -8972.9792   -3495.3267     17426.21    11.075506 
    5870     1038.419   -9088.6296   -8972.7924    -3544.916     17438.35    11.062854 
    5880     1012.567   -9085.6181   -8972.6647   -1773.6079    17448.101    11.046381 
    5890    991.30481   -9083.1007   -8972.5191   -540.26467    17456.592    11.023437 
    5900    1045.3791   -9088.9647   -8972.3511   -1945.5238    17464.568    11.002895 
    5910    1044.5995   -9088.7261   -8972.1995   -2714.5044    17471.243    10.992477 
    5920    1037.2996    -9087.863   -8972.1507   -3358.7426    17475.916    10.998094 
    5930    1014.6442   -9085.3413   -8972.1562   -4369.1596    17478.054    11.021445 
    5940    1028.4488   -9086.9291   -8972.2041   -4885.5279    17476.933    11.055079 
    5950    1051.9129   -9089.6635    -8972.321   -4381.3546    17472.117    11.083059 
    5960    1027.8402    -9087.198   -8972.5409   -1371.4937    17464.089    11.103078 
    5970    1019.1581   -9086.5363   -8972.8476    1393.8774    17454.884    11.116599 
    5980    1025.3389   -9087.6327   -8973.2546    3551.8186    17446.582     11.12304 
    5990     995.9234   -9084.8771   -8973.7804    5588.7688    17440.879    11.121007 
    6000    1009.5428   -9087.0424   -8974.4263    6483.0207    17439.295    11.112286 
    6010    1052.6645   -9092.7096   -8975.2833    6996.0475      17442.6    11.101615 
    6020    1007.5452   -9088.7147   -8976.3215    7289.8796    17451.241    11.092828 
    6030    1005.8657   -9089.6334   -8977.4276    5552.2494    17465.409     11.08725 
    6040    1033.8911   -9093.9021     -8978.57    3207.0518    17483.982    11.073499 
    6050    1025.5215   -9094.1079   -8979.7095     1563.252    17505.306    11.045371 
    6060    1009.5876   -9093.4094   -8980.7884    398.37414    17528.133    11.006964 
    6070    985.84742   -9091.7026   -8981.7299    141.88755    17551.629    10.968913 
    6080    958.20555   -9089.3585   -8982.4692   -934.73424     17575.45      10.9354 
    6090    969.76355   -9091.1606    -8982.982    -3105.664     17598.76    10.900797 
    6100    984.82267   -9093.1965    -8983.338   -5148.9343    17619.903    10.865902 
    6110    954.82373   -9090.0987   -8983.5867   -6088.1823    17637.321    10.836789 
    6120    944.47056   -9089.0761    -8983.719   -6720.7412    17650.208    10.817425 
    6130    981.18252   -9093.1935   -8983.7411   -7999.2054    17657.941    10.808023 
    6140    998.18463   -9095.0569   -8983.7079   -7530.2948     17659.64    10.807898 
    6150     973.8809   -9092.2718   -8983.6339   -5861.3547    17655.565    10.809167 
    6160    930.02749   -9087.1892   -8983.4433   -4442.2188    17646.914    10.807683 
    6170    969.61044   -9091.2638   -8983.1023   -4107.5384      17634.7    10.808625 
    6180     1040.165   -9098.6967   -8982.6647   -3031.2975    17619.318    10.819553 
    6190    1006.5739     -9094.51   -8982.2252     922.7535    17601.752    10.843279 
    6200    992.90956   -9092.5352   -8981.7746    4089.9067    17584.771    10.872854 
    6210    1045.1159   -9097.8856   -8981.3013    3952.5941    17570.634    10.906008 
    6220    1031.0545   -9095.9019   -8980.8863     4541.429    17559.534    10.947728 
    6230    950.41293    -9086.519    -8980.499    7800.0835     17552.08    10.996401 
    6240    998.88849   -9091.4951   -8980.0676    8108.9495    17550.317    11.042028 
    6250    1061.2323   -9097.9762   -8979.5942    7353.9164     17554.71    11.073193 
    6260    1036.7483   -9094.8659    -8979.215    7504.2521    17564.863    11.088105 
    6270     1025.278   -9093.3171   -8978.9458    6593.0005    17580.759     11.09711 
    6280    1031.9576    -9093.826   -8978.7096    5012.8152    17601.853    11.104331 
    6290    1060.7852   -9096.8414   -8978.5092    1878.8189    17626.845    11.103014 
    6300    1013.6622   -9091.4082   -8978.3326   -377.85527    17653.568    11.088417 
    6310    1002.3626   -9089.9581    -8978.143   -2185.1002    17680.224    11.060594 
    6320    1024.3517   -9092.1817   -8977.9138   -3707.9333    17705.396    11.021925 
    6330    1039.9039   -9093.6809   -8977.6781   -6512.1011     17727.71    10.980616 
    6340    1001.3355   -9089.1508   -8977.4503   -7886.9757    17745.201      10.9493 
    6350    1031.9551   -9092.3612   -8977.2451   -9445.9884    17756.556    10.929116 
    6360    1038.0786   -9092.8597   -8977.0605   -9522.2018     17760.67    10.917919 
    6370    1024.9529   -9091.2935   -8976.9585   -7876.5622    17757.449     10.91532 
    6380    1018.5065   -9090.5138   -8976.8979   -5436.4585    17748.118    10.917355 
    6390    1049.9183     -9093.98     -8976.86   -3737.0558    17734.434    10.915819 
    6400    1060.7054    -9095.195   -8976.8717   -2021.9003    17717.776     10.90967 
    6410    1033.7675   -9092.2687   -8976.9504    -37.06552    17699.523    10.904638 
    6420    1030.2107   -9092.0185    -8977.097    1048.7946    17681.125    10.902521 
    6430    1011.2892   -9090.1153   -8977.3045    2364.1208    17663.544    10.905334 
    6440    983.19118    -9087.213   -8977.5365    3696.1365    17647.765    10.910612 
    6450    1019.8228   -9091.5635   -8977.8008     4135.559    17634.741    10.910574 
    6460    1035.5886   -9093.6616   -8978.1401    5539.8359    17624.959    10.907181 
    6470    1023.3902   -9092.7558   -8978.5951    7274.0703    17619.456    10.903303 
    6480    1028.8283   -9093.9446   -8979.1773    7544.4116    17619.448     10.89833 
    6490    1058.8254   -9098.0395   -8979.9259    6171.9136    17625.156    10.896377 
    6500    1050.0532   -9098.0025   -8980.8675    4268.1557    17635.636    10.901054 
    6510    1010.2825   -9094.5911   -8981.8926    1180.1782    17649.387    10.910356 
    6520     1018.195   -9096.4766   -8982.8955   -2974.5284     17664.08    10.925637 
    6530     1020.503   -9097.6858   -8983.8471   -5516.6249    17676.701    10.948741 
    6540    1009.5418   -9097.3572   -8984.7413   -6238.2704    17685.245    10.972591 
    6550    1008.7959   -9098.0945   -8985.5617   -5187.7793    17689.141    10.992676 
    6560    1022.2981   -9100.3616   -8986.3227   -4365.2745    17688.996    11.017294 
    6570    1007.6501   -9099.4145   -8987.0096     -3663.37    17685.461     11.05546 
    6580    1027.1587   -9102.2289   -8987.6478   -3783.9588    17678.988     11.10461 
    6590    1021.8328   -9102.2483   -8988.2613   -3645.1875    17669.543    11.158436 
    6600    968.76507   -9096.8538   -8988.7866    -2478.945    17657.312    11.206509 
    6610    987.78677   -9099.3868   -8989.1977    -1828.246    17643.062     11.24177 
    6620    1010.6183    -9102.252    -8989.516   -708.29331    17627.384    11.267184 
    6630     988.7389   -9100.0747   -8989.7794    552.24977    17611.068    11.289634 
    6640      969.732   -9098.1282   -8989.9531    1791.3677    17595.094    11.316163 
    6650    998.77886   -9101.4669   -8990.0516    2118.7202    17580.349    11.346926 
    6660    981.06097   -9099.5343   -8990.0954    2652.1988    17567.173    11.374693 
    6670    952.20969    -9096.288   -8990.0675    3054.5615    17555.963     11.39507 
    6680    968.93622    -9098.017   -8989.9307    2573.7116    17546.979    11.408432 
    6690     1011.786   -9102.5735   -8989.7072    2254.2331    17539.939    11.414009 
    6700    1003.9377   -9101.4507   -8989.4599    2409.7633    17534.635    11.406888 
    6710    1004.3115   -9101.2415    -8989.209    828.73733    17531.016    11.385343 
    6720    1049.5399    -9106.042   -8988.9643   -2013.3705    17527.907    11.359845 
    6730    1028.7103   -9103.5194   -8988.7652   -1682.7659    17523.475    11.340498 
    6740    1028.6137   -9103.3597   -8988.6163   -728.23433    17517.734      11.3293 
    6750     1020.043   -9102.2792   -8988.4918    424.80791    17511.397    11.327927 
    6760    976.82595   -9097.3209   -8988.3545    2004.4207    17505.378    11.334154 
    6770    1007.3403   -9100.5458   -8988.1755    1019.3872    17500.653    11.342513 
    6780    1004.6149   -9100.0131   -8987.9468   -809.90427    17496.621    11.353508 
    6790    980.11148   -9097.0027   -8987.6698   -2378.2936    17491.951    11.365388 
    6800    1000.9411   -9098.9793   -8987.3228     -4183.25    17485.418     11.37862 
    6810    1017.2121    -9100.389   -8986.9174   -5039.1227    17475.705    11.399534 
    6820     990.0569   -9096.9262   -8986.4838   -3914.5859    17462.174    11.426382 
    6830    983.49234   -9095.6608   -8985.9507   -2599.2774    17445.551    11.453779 
    6840    1041.3651   -9101.4778   -8985.3119   -2100.5833    17426.739    11.475996 
    6850    1041.8237   -9100.8203   -8984.6033   -598.71146    17406.265    11.496962 
    6860    1028.3946   -9098.6228   -8983.9038    241.49753    17385.125    11.521683 
    6870    1067.6452   -9102.3167   -8983.2193   -400.35709    17363.897    11.554648 
    6880    1054.6134   -9100.2438   -8982.6001    768.37936    17342.346    11.600684 
    6890    995.32415   -9093.0623   -8982.0324    3570.0709    17321.321    11.655417 
    6900    1034.9826   -9096.8968   -8981.4429    5074.1196    17302.733    11.710901 
    6910    1072.9132   -9100.5394   -8980.8543    6728.4977    17287.824    11.762852 
    6920    1036.1868   -9095.9648   -8980.3766    8761.6891    17277.835    11.806579 
    6930    1036.9828   -9095.6807   -8980.0037    9493.0037    17274.212    11.839742 
    6940    1050.8166   -9096.8968   -8979.6766    8239.2245    17277.487     11.87064 
    6950    1052.3468   -9096.7842   -8979.3933    6154.1374    17286.865    11.908369 
    6960    1046.9676   -9095.9498   -8979.1589    3649.2401     17300.86    11.949835 
    6970    1060.4367   -9097.2508   -8978.9575    761.43745    17317.653    11.988213 
    6980    1079.2204   -9099.2235   -8978.8348   -2159.7881    17335.083    12.020257 
    6990    1015.0781   -9092.0665    -8978.833   -2490.1877    17351.211    12.046815 
    7000    986.84054   -9088.9883   -8978.9048    -2022.633    17365.608    12.070671 
    7010    1004.0053   -9090.9439   -8978.9456   -1356.5528    17378.627    12.092064 
    7020     1092.165   -9100.8537    -8979.021   -3110.5873    17390.512     12.10624 
    7030    1106.6736   -9102.7494   -8979.2983   -3856.8925    17400.213    12.114657 
    7040     1031.213   -9094.9032   -8979.8698   -2169.2068    17407.256    12.120039 
    7050    1013.7296   -9093.7144   -8980.6313   -1955.9584    17412.596    12.123286 
    7060    1055.7315   -9099.3633   -8981.5949   -3403.2476    17416.375    12.124399 
    7070     1039.086   -9098.6991   -8982.7875   -3084.5368    17417.758     12.12854 
    7080    1006.5994   -9096.3644   -8984.0767   -3300.9156    17416.774    12.137922 
    7090    1035.4543   -9100.8691   -8985.3626   -5110.4384    17413.173     12.14557 
    7100    1065.1984   -9105.5107   -8986.6862    -5327.556    17405.812    12.152634 
    7110    1008.2482   -9100.3981   -8987.9265    -3409.343    17394.512    12.163443 
    7120    985.40637   -9098.8444   -8988.9208   -1481.5056    17380.567    12.173304 
    7130    1012.8238   -9102.6994   -8989.7174   -505.52905    17365.343    12.178682 
    7140    1000.2265   -9101.9243   -8990.3476    703.03867    17349.668    12.183766 
    7150    1024.1567   -9105.1021   -8990.8559    1079.3611    17334.374    12.188321 
    7160     1059.135   -9109.4931    -8991.345    853.55591    17319.749    12.188797 
    7170     1022.179   -9105.8464   -8991.8208    1725.2783    17305.779    12.189511 
    7180      1001.96   -9104.0287   -8992.2585    3149.7575    17293.043    12.191472 
    7190    1002.1594   -9104.3965   -8992.6041    4591.1899    17282.615    12.189815 
    7200    1051.1153   -9110.1744   -8992.9209    4102.4177    17275.399    12.188703 
    7210    1072.7674   -9113.0083   -8993.3395    3611.7523    17271.181    12.200019 
    7220    1042.6005   -9110.1895   -8993.8859    3915.8787     17269.67    12.221307 
    7230    997.45472   -9105.7374   -8994.4698    4089.5004     17271.05    12.245772 
    7240    992.43225   -9105.7245   -8995.0171     3514.357    17275.445    12.267474 
    7250    1007.2698   -9107.8521   -8995.4896     1907.612     17282.45    12.284677 
    7260    1050.6246   -9113.1747    -8995.976   -105.21937    17290.907    12.299916 
    7270    1014.5689   -9109.6475   -8996.4708   -593.34513    17299.465    12.324474 
    7280    1021.7972   -9110.9627   -8996.9797   -1601.6146    17307.616    12.354247 
    7290    1024.2521   -9111.7391   -8997.4822   -3969.3797    17314.551    12.373013 
    7300    997.47165   -9109.2422   -8997.9728   -5065.8587    17318.705    12.382337 
    7310    1017.6556   -9111.9726   -8998.4516   -5783.5063    17319.148    12.393789 
    7320    1029.5656   -9113.8114   -8998.9618   -5643.6997    17315.314    12.411868 
    7330    997.62944   -9110.7493   -8999.4623   -3628.6933    17307.353    12.437676 
    7340    1028.8221    -9114.716   -8999.9494   -2658.7317    17296.494    12.467001 
    7350    1000.0186   -9111.9791   -9000.4255   -407.39908     17283.62    12.499152 
    7360    949.79196   -9106.7514   -9000.8007    2655.9334    17270.373    12.530188 
    7370    1017.6859    -9114.613   -9001.0886    1668.9689    17258.656    12.556969 
    7380    1043.2753   -9117.7591   -9001.3802    793.38127    17248.094    12.586202 
    7390    1013.6655   -9114.7819    -9001.706    2740.3023    17238.216    12.621948 
    7400    1045.5894   -9118.6937   -9002.0566    3230.7663     17230.12     12.65671 
    7410    1052.7151   -9119.9329    -9002.501    2932.5601    17224.291    12.679494 
    7420    999.08684   -9114.4548   -9003.0051    2818.3299    17220.574    12.686645 
    7430    997.24917   -9114.7457   -9003.5011    1869.9882    17218.808    12.680471 
    7440     987.2758    -9114.079   -9003.9469    2003.5609     17218.48    12.664518 
    7450    983.10662   -9114.0064   -9004.3394     2645.086     17219.67    12.647865 
    7460    998.29076   -9116.0405   -9004.6797    1947.3845    17222.764    12.646516 
    7470    1005.8399   -9117.1979    -9004.995     816.3221    17227.321    12.661463 
    7480    985.61991   -9115.2226   -9005.2752    417.07023    17232.635    12.680758 
    7490    975.70503   -9114.3175   -9005.4762   -685.94613    17238.314    12.695504 
    7500    1005.9399   -9117.8298   -9005.6157   -1109.5199    17243.624    12.699998 
    7510    977.14147   -9114.7117   -9005.7101    896.82665    17248.355    12.699931 
    7520    956.77689   -9112.4541   -9005.7242    2494.3478    17253.836    12.699706 
    7530    1041.7278   -9121.8827   -9005.6764    519.12781    17261.038    12.700051 
    7540    1020.8441   -9119.5229   -9005.6462   -875.92865    17268.836     12.70538 
    7550    964.99452   -9113.2784   -9005.6318    -325.4993    17276.256    12.714564 
    7560    990.40846   -9116.0317   -9005.5502    822.00445    17283.602    12.726964 
    7570    1009.3611   -9117.9875   -9005.3918    2071.9056    17291.698    12.738851 
    7580    1014.1904   -9118.3112   -9005.1768     2166.486    17301.423      12.7448 
    7590    1042.0982   -9121.1655   -9004.9179    740.18082    17312.838    12.740158 
    7600    985.72049   -9114.5754   -9004.6168     777.3693    17325.135    12.724282 
    7610    969.53715   -9112.3793    -9004.226    798.32201    17338.263    12.701511 
    7620    976.39318   -9112.5659   -9003.6478    491.67086    17352.221    12.680589 
    7630    968.35427   -9110.8773   -9002.8559    755.34427    17366.882    12.674259 
    7640    1033.3822   -9117.1251   -9001.8497    220.22272    17382.349     12.68593 
    7650    1043.5028   -9117.1037   -9000.6994    -258.6006     17398.31     12.70554 
    7660    1022.3733   -9113.6211   -8999.5739   -1792.3116    17414.323    12.724541 
    7670    1045.0573   -9115.0677     -8998.49   -4456.4562     17429.22    12.743014 
    7680    1047.3813   -9114.3351   -8997.4981   -5714.1892    17441.175    12.763545 
    7690    1019.2336   -9110.3674   -8996.6704   -6559.9057    17449.058     12.78869 
    7700    1024.3375    -9110.236   -8995.9696    -6823.045    17452.138    12.818329 
    7710    1024.6178   -9109.6622   -8995.3645   -5136.1901    17450.226    12.852056 
    7720    1015.3953   -9108.1097   -8994.8408   -3139.4532    17444.396     12.88588 
    7730    1037.8646   -9110.1459   -8994.3706   -2385.2295    17435.973    12.915946 
    7740    1027.0851   -9108.5407   -8993.9678   -1116.1461    17425.629    12.938721 
    7750    1028.0583   -9108.3053   -8993.6239   -570.95805    17414.185    12.957737 
    7760     1072.442    -9112.981   -8993.3485   -923.81249    17402.028    12.982774 
    7770      1066.36   -9112.1641     -8993.21    371.87618    17389.065    13.014194 
    7780    1014.8142   -9106.3692   -8993.1652     2413.924    17376.199    13.041373 
    7790    1040.4886   -9109.2323   -8993.1643    2774.0995    17364.795    13.062099 
    7800    1075.7129   -9113.2325   -8993.2352     3048.494    17355.278     13.08362 
    7810    1069.3188   -9112.7182    -8993.434     4472.151    17347.963    13.110693 
    7820    1062.9851   -9112.3465   -8993.7689    5491.7297    17343.835    13.146265 
    7830    1075.2236   -9114.1848   -8994.2419    5567.4301    17343.691    13.190422 
    7840    1070.5358   -9114.3019    -8994.882    6223.2899    17347.804    13.235033 
    7850    1038.3696   -9111.4701   -8995.6384    6735.0528    17356.707    13.271826 
    7860     1048.991   -9113.4852   -8996.4687    5347.4914    17370.758    13.296175 
    7870    1044.6532   -9113.8744   -8997.3417    3242.8611    17389.171    13.304154 
    7880    1028.1399   -9112.8669   -8998.1763     222.4378    17410.383    13.301924 
    7890    1046.1922    -9115.661   -8998.9567   -2231.2083    17432.295     13.30192 
    7900    1044.1243   -9116.1658   -8999.6922   -3757.7975    17453.071      13.3134 
    7910    1034.2909   -9115.7576   -9000.3809    -5300.944    17471.444    13.336298 
    7920    1022.3449   -9115.0481    -9001.004   -6596.6126    17486.202    13.368641 
    7930    1007.6482     -9113.95   -9001.5453     -6383.87    17496.345    13.404144 
    7940    1013.4279   -9115.0721   -9002.0226   -5845.5961    17501.824    13.432558 
    7950    1010.8467    -9115.195   -9002.4335   -5659.7216    17502.899    13.447605 
    7960    1032.0843   -9117.9267   -9002.7962   -5518.9778    17499.643    13.445191 
    7970    1026.6962   -9117.6864   -9003.1569   -3939.3345    17492.174    13.429091 
    7980    981.51662    -9112.933   -9003.4433   -1022.1497    17481.657     13.41544 
    7990    1021.8709   -9117.6574   -9003.6662   -349.45314    17469.968    13.415773 
    8000     1015.485    -9117.144   -9003.8651    1448.8357    17457.885    13.431128 
    8010     1015.937   -9117.3863    -9004.057    3133.4289    17446.656    13.453863 
    8020    1029.8501   -9119.1529   -9004.2715    3914.6816    17437.522    13.468812 
    8030    998.29198   -9115.8553   -9004.4943    4816.6358    17431.228    13.459669 
    8040    1021.0383   -9118.6098   -9004.7115     4114.906    17428.352    13.429598 
    8050    1022.9355   -9119.0169   -9004.9069    3314.8564    17428.536    13.394777 
    8060    1004.2433   -9117.1279    -9005.103    3169.3855    17431.313    13.363347 
    8070    995.43136   -9116.3052   -9005.2633     2815.714     17436.56    13.339761 
    8080    1032.9684   -9120.6537   -9005.4245    2144.9169    17444.023    13.323688 
    8090    1022.9813   -9119.7188   -9005.6036    2743.7962    17453.368    13.310911 
    8100    1030.0451    -9120.739   -9005.8359    3278.3361    17464.994    13.296443 
    8110    1014.1356   -9119.2396   -9006.1113    2852.6121    17479.287    13.277822 
    8120    1014.3768   -9119.5576   -9006.4023    1729.3563    17496.003    13.253745 
    8130    1047.6789   -9123.5814   -9006.7113   -26.673962    17514.327    13.233664 
    8140    1049.8449   -9124.2141   -9007.1023   -980.60874    17533.031    13.227339 
    8150    1004.7258   -9119.6498   -9007.5711    -1473.001    17551.406    13.230963 
    8160     989.7288   -9118.4246   -9008.0189    -3986.306     17568.86    13.232217 
    8170    1028.2988   -9123.1541   -9008.4459   -6499.5212     17583.56    13.226294 
    8180    1031.5238   -9124.0006   -9008.9325   -6435.3095    17593.694     13.22811 
    8190    989.31164   -9119.8348   -9009.4756   -4769.2929    17599.149    13.247445 
    8200    980.05141    -9119.325   -9009.9988   -3131.1488    17601.024    13.279023 
    8210    1005.0646   -9122.6119   -9010.4955   -1873.4358    17600.476    13.312698 
    8220    990.00867   -9121.4108   -9010.9738    -664.7842    17598.467    13.340202 
    8230    990.28902    -9121.896   -9011.4278   -1110.0578    17595.783    13.360484 
    8240    1006.0018    -9124.082    -9011.861   -1078.6764    17592.238    13.380142 
    8250    999.91701   -9123.8366   -9012.2944    567.39738    17587.871    13.400024 
    8260    1010.2921   -9125.4199   -9012.7203    3181.7153    17583.943    13.417762 
    8270    1048.2396   -9130.1297   -9013.1969    4753.5251    17582.327    13.435336 
    8280    1012.8448   -9126.7657   -9013.7814    5286.5167     17584.29    13.449258 
    8290    1051.8527   -9131.8044   -9014.4686    5021.3984      17590.3    13.467443 
    8300    977.44328   -9124.1622   -9015.1269    3667.1956    17600.174    13.491659 
    8310    1081.1841   -9136.4673   -9015.8596    1462.3378    17612.958    13.510885 
    8320     998.5783   -9127.9871   -9016.5941    1337.0088    17627.244    13.524727 
    8330    1011.9568   -9130.2967   -9017.4114    591.14819    17642.745      13.5324 
    8340     1005.119   -9130.3886    -9018.266   -726.57134    17659.023    13.538334 
    8350    963.55202   -9126.5823   -9019.0966   -1881.4468    17675.091    13.548059 
    8360     1058.227   -9137.9755   -9019.9286   -3943.0768     17689.87    13.567926 
    8370    996.55421   -9131.7718   -9020.6047   -4783.3638    17701.814    13.599889 
    8380      927.583   -9124.7002    -9021.227   -3031.1546    17710.377    13.628899 
    8390    1020.1933   -9135.5372   -9021.7331    -2721.665    17716.584    13.649243 
    8400    1008.5063    -9134.595   -9022.0946   -2957.3133     17720.68    13.674958 
    8410    1010.0807   -9135.1159   -9022.4399   -2228.3527    17722.584    13.707813 
    8420    952.53765   -9128.8554   -9022.5984    -2782.407    17722.635    13.729051 
    8430     1011.078   -9135.4815   -9022.6942   -2077.0405     17720.57    13.728855 
    8440    976.74824    -9131.568   -9022.6102    -1460.194    17716.766    13.713622 
    8450    1022.3823   -9136.5891   -9022.5409   -1657.8871    17711.707    13.686145 
    8460    994.88394   -9133.4705   -9022.4897    -1512.577    17705.362    13.653996 
    8470    961.24075   -9129.6471   -9022.4193   -295.11967    17697.898    13.621267 
[...]
   22890    986.01123   -9171.6902   -9061.6992    321.41454    17816.031    26.724431 
   22900    1037.1587   -9177.0404   -9061.3438    -421.0678    17823.601    26.770767 
   22910    974.44487   -9169.5454   -9060.8446    99.565254    17830.934    26.826495 
   22920    1021.2759   -9174.4648   -9060.5399    1107.6798    17838.437    26.890419 
   22930    990.36185   -9170.6186   -9060.1423    1319.6678    17846.785    26.950834 
   22940    1029.2929   -9174.7045   -9059.8853    880.30611    17856.181    26.996033 
   22950    1000.0161   -9171.1259   -9059.5726   -535.67312    17866.244    27.027495 
   22960    992.64348   -9170.0736   -9059.3427    -848.7788    17876.061    27.047284 
   22970    935.34942   -9163.3567   -9059.0171    -1014.423    17885.321    27.064188 
   22980    993.32173   -9169.4516    -9058.645   -2335.1893    17893.749     27.07729 
   22990    938.30772   -9162.7926    -9058.123   -2938.9283    17900.429    27.087749 
   23000     984.2252   -9167.3957   -9057.6039    -2975.091    17904.861    27.092146 
   23010    968.47272   -9165.0665   -9057.0319   -3203.2597    17906.973    27.089923 
   23020    989.45658   -9166.8142   -9056.4388    -3951.855    17906.547    27.077492 
   23030    1003.9817   -9167.8895   -9055.8938    -3717.054    17903.081    27.060992 
   23040     991.1987   -9165.9442   -9055.3744   -2958.2351    17896.656    27.047397 
   23050    977.84608   -9163.9814   -9054.9012   -1547.7992    17887.903    27.028777 
   23060    971.96355   -9162.8121   -9054.3881   -134.01991    17877.864    26.999138 
   23070     1010.616    -9166.631   -9053.8952    557.48496    17867.559    26.967348 
   23080    1032.8755   -9168.6378    -9053.419    1229.9175    17857.612    26.942941 
   23090    1016.7858   -9166.4066   -9052.9826    1435.7742    17848.535    26.928554 
   23100    1041.7993   -9168.8304   -9052.6161    993.57975    17840.474    26.928513 
   23110    1033.2728    -9167.578   -9052.3149    842.32613    17833.181    26.947708 
   23120    1017.1885    -9165.506   -9052.0371    42.888693    17826.473    26.967342 
   23130     1042.629   -9168.1656   -9051.8588    -698.3274     17819.78    26.973554 
   23140    994.17994   -9162.6209   -9051.7186   -523.86349    17812.573    26.976702 
   23150    1038.2904   -9167.4535   -9051.6306   -577.52398    17804.859    26.980234 
   23160    1009.8999   -9164.1964   -9051.5405   -17.093901     17796.68     26.98767 
   23170    992.28773   -9162.1533   -9051.4621    1595.1302    17788.513    27.010091 
   23180    1023.4005   -9165.5086   -9051.3467    3146.6344    17781.588    27.053187 
   23190    983.99022   -9161.0236    -9051.258    3844.5022    17777.067    27.105639 
   23200    1018.2415   -9164.7588   -9051.1724       2246.4    17775.384    27.159231 
   23210    1030.2833   -9165.9944   -9051.0647     742.9374    17775.504    27.223199 
   23220    1028.5109   -9165.7309   -9050.9989    1621.8844    17776.377    27.297142 
   23230    992.03908   -9161.5944   -9050.9309    2617.7863    17778.526    27.361668 
   23240    1064.3614   -9169.5935   -9050.8624    2206.1403    17782.649    27.402593 
   23250    1034.2852   -9166.1595   -9050.7834    1780.0872     17788.55     27.42517 
   23260    1063.2444   -9169.4359   -9050.8294    739.77278    17795.797    27.430061 
   23270    1035.7979   -9166.5167   -9050.9719     149.7148    17803.716    27.436318 
   23280    1039.7557   -9167.2267   -9051.2404   -578.87447     17811.77    27.466694 
   23290    1046.2339   -9168.3503   -9051.6413   -1299.5023    17819.407    27.506715 
   23300    1042.9339   -9168.5201   -9052.1793   -664.28028    17826.152    27.537722 
   23310    963.83636    -9160.303   -9052.7857   -139.92835    17832.342    27.560669 
   23320    1028.9748    -9168.276   -9053.4923   -1374.2096    17838.289    27.579431 
   23330    999.53427   -9165.7109   -9054.2113    -2409.678    17843.184    27.587672 
   23340    1051.6358   -9172.3844   -9055.0729   -2676.4713    17846.219    27.576834 
   23350    985.54558   -9165.8324   -9055.8933   -3488.4598    17847.033    27.562137 
   23360    1007.6493   -9169.2062   -9056.8014   -4146.9184    17845.095    27.550622 
   23370    958.88382   -9164.5964   -9057.6315   -5063.7221    17839.881    27.534834 
   23380    1012.0231   -9171.3515   -9058.4588   -6079.1597    17830.628    27.523509 
   23390    974.09427    -9167.924   -9059.2623   -4676.7722    17816.789    27.534636 
   23400    985.11982   -9169.8688   -9059.9772   -2376.5113    17799.373    27.557501 
   23410    963.02174   -9167.9605    -9060.534   -1664.0182    17780.012    27.576096 
   23420     997.9877   -9172.2522   -9060.9252   -815.03746    17759.417     27.58357 
   23430    981.64927     -9170.79   -9061.2855    1236.6587    17738.355    27.583896 
   23440    1005.4988    -9173.685   -9061.5201    3074.9373     17718.29    27.583374 
   23450    957.72377   -9168.5289   -9061.6934    4475.5137    17700.676    27.592768 
   23460    1023.2107   -9175.9517    -9061.811    5150.1702    17686.525    27.611693 
   23470     938.2992    -9166.424   -9061.7553    6649.5061    17676.432    27.635151 
   23480    1012.5766   -9174.7354    -9061.781    7808.4696    17671.462    27.657041 
   23490    1009.2398   -9174.1483   -9061.5661    5823.2657    17672.204    27.687969 
   23500    1012.4212   -9174.4864   -9061.5493    5165.0439    17677.532    27.725629 
   23510    952.46673   -9167.5829   -9061.3338    4046.0238    17686.733    27.760407 
   23520    1079.6067   -9181.7804   -9061.3487     3003.057     17699.01    27.783399 
   23530    983.11603   -9170.6684   -9061.0003    2227.8475    17713.541    27.803617 
   23540    1031.5298   -9175.9093   -9060.8406   -549.32059      17729.6    27.822867 
   23550    1011.5973   -9173.5286   -9060.6834   -3508.6284    17745.152    27.837551 
   23560    1034.8831   -9175.9694   -9060.5266   -4400.0087    17758.066    27.837906 
   23570    988.01909   -9170.5087   -9060.2936   -5246.9469    17767.476     27.82785 
   23580    1016.3973   -9173.5245   -9060.1438   -5601.9381     17772.75    27.811915 
   23590    951.70647   -9166.1221   -9059.9578   -4758.1872    17773.702    27.793006 
   23600    1008.9411   -9172.2717   -9059.7228    -5212.354    17770.794    27.766906 
   23610    998.27548   -9170.7547   -9059.3956   -4372.1171    17763.978    27.737131 
   23620    974.45383   -9167.8652   -9059.1634   -2050.5131    17753.893    27.715798 
   23630     999.0861   -9170.3341   -9058.8845   -758.11349    17742.202     27.70742 
   23640    1029.2322   -9173.4345   -9058.6221   -951.21554      17729.9    27.696881 
   23650    994.96467    -9169.368   -9058.3782    -1147.188    17716.957    27.677661 
   23660    1017.7735   -9171.7448   -9058.2106   -761.14981    17703.234    27.659984 
   23670     986.8527    -9168.124   -9058.0391    1007.9272      17689.1    27.648934 
   23680    975.93225   -9166.6862   -9057.8195    3036.2481    17675.842    27.627787 
   23690    1008.2264   -9169.9627   -9057.4935    4234.5565    17664.962    27.593407 
   23700    1000.4931   -9168.7949   -9057.1884    4230.3491    17657.332    27.559123 
   23710    1031.5359   -9171.9444    -9056.875    3770.6679    17652.965    27.532631 
   23720    982.38111   -9166.1937   -9056.6077    2746.9136    17651.479    27.512753 
   23730    1082.3974   -9177.0891   -9056.3461    724.88966    17652.017    27.490963 
   23740    1006.5078   -9168.5157   -9056.2382    304.24318    17653.227    27.476389 
   23750    1010.7142   -9168.9025   -9056.1558   -264.75717    17654.618    27.470548 
   23760    974.90208   -9164.8367   -9056.0849   -1102.7022    17655.753    27.464841 
   23770     998.6566   -9167.3584   -9055.9568   -1387.2462    17656.054    27.452201 
   23780    980.42652   -9165.2172   -9055.8492   -1361.7515    17655.349    27.436661 
   23790    992.22288   -9166.4161   -9055.7322   -1578.6962     17653.64    27.427759 
   23800    1032.1113   -9170.7152   -9055.5816   -1014.3936    17650.811    27.432383 
   23810    1011.5919   -9168.3501   -9055.5055    57.735348    17647.247    27.452091 
   23820    1089.9596   -9177.0902   -9055.5035    75.016688     17643.63    27.485014 
   23830    1015.0181   -9168.7111   -9055.4843    869.01215    17640.118    27.531144 
   23840    1008.3006   -9167.9936   -9055.5162    823.97393    17637.202    27.585136 
   23850    994.48054   -9166.4662   -9055.5304     563.6213    17635.007    27.635564 
   23860    1007.8456   -9167.9173   -9055.4906   -22.226348    17633.283     27.67668 
   23870    999.70492   -9166.9649   -9055.4463    33.500617    17631.678     27.71485 
   23880    944.54552   -9160.7563   -9055.3908     1570.331    17630.308    27.752137 
   23890    1017.7196   -9168.6659   -9055.1378    1576.2996    17630.057    27.790967 
   23900    1006.9006   -9167.3436   -9055.0223    1827.2461    17631.084    27.837067 
   23910     1033.442    -9170.201    -9054.919    1817.7459    17633.455    27.888703 
   23920    977.66098   -9163.8194   -9054.7599    762.73776    17637.064    27.931813 
   23930    1048.5039   -9171.6766   -9054.7144    623.90304    17641.248    27.948032 
   23940    952.69426   -9160.7593   -9054.4848    903.66621    17645.832    27.944355 
   23950    981.62112     -9163.79   -9054.2887    6.9568416    17650.973    27.927182 
   23960    1017.7644   -9167.5577   -9054.0246   -1064.8457    17656.141    27.901037 
   23970    1047.9766   -9170.7196   -9053.8163   -3064.7579    17660.406    27.863361 
   23980    1090.6426   -9175.3751   -9053.7123   -3111.8424    17662.434    27.818365 
   23990    992.37182   -9164.3321   -9053.6316   -2830.9593    17662.014    27.776535 
   24000    1011.4888   -9166.4229   -9053.5898   -3706.4982    17659.316     27.74184 
   24010    1034.9335   -9169.3065   -9053.8581    -3536.057    17653.922    27.709647 
   24020    1008.4895   -9166.3674   -9053.8689   -2186.4521     17645.98    27.665542 
   24030    1028.9027   -9168.6962   -9053.9206   -457.95102    17636.446    27.604013 
   24040    982.99222   -9163.5527   -9053.8985    266.06341    17626.533    27.536031 
   24050    1030.6721   -9168.8493   -9053.8762    132.65371    17616.797    27.474519 
   24060    1008.9872   -9166.3423   -9053.7882   -285.57424     17607.13    27.440118 
   24070    1052.9617   -9171.2414    -9053.782    213.38433    17597.344    27.436147 
   24080    1007.9784   -9166.2957   -9053.8542    2340.1917    17587.974     27.45606 
   24090     1009.476   -9166.5733   -9053.9647    2697.0371    17580.362    27.497336 
   24100    1072.1061   -9173.9658   -9054.3708     2480.333    17574.814     27.55424 
   24110    989.39002   -9165.0361   -9054.6682    4342.1297    17571.406    27.612592 
   24120    1015.6053   -9168.4222   -9055.1299     3936.471    17571.199    27.657648 
   24130    1021.4518   -9169.5856   -9055.6411    3347.0081    17574.074    27.698312 
   24140    1001.8745   -9168.0509   -9056.2903    3266.9717     17579.59     27.73809 
   24150    997.27917    -9168.289    -9057.041    1596.2551    17587.538    27.775435 
   24160    1028.4467   -9172.6142   -9057.8894   -245.03609    17596.716    27.819588 
   24170    994.57331   -9169.7525   -9058.8063   -666.07019    17605.812    27.880027 
   24180    1009.5124   -9172.4042   -9059.7915   -790.41597     17614.37    27.941296 
   24190    958.13802   -9167.6458   -9060.7641   -1005.1999    17622.277    27.987757 
   24200    972.87208   -9170.1803   -9061.6549   -829.39646    17629.403    28.014952 
   24210    934.12419   -9166.5548   -9062.3518   -1043.8832     17635.82    28.027776 
   24220    995.11626    -9173.924   -9062.9172   -1242.5297    17641.373    28.030037 
   24230    928.02953   -9166.8777   -9063.3546    -499.5858     17646.01     28.02738 
   24240     979.4528   -9172.8746   -9063.6152   -594.00973    17650.188    28.020986 
   24250    973.04632   -9172.3533   -9063.8085   -1928.0618    17653.829    28.014627 
   24260     1023.818    -9178.126   -9063.9176   -3440.8074    17655.984    28.002905 
   24270     975.3924   -9172.8405    -9064.034   -4306.3817    17655.551    27.987234 
   24280    989.70304   -9174.5188   -9064.1159   -4000.7762    17651.879    27.968904 
   24290    956.65063   -9170.8252   -9064.1094   -3435.4851    17645.135    27.950447 
   24300    1003.9476   -9175.9931   -9064.0012   -2278.7936    17635.791    27.937534 
   24310    949.19001   -9169.7144   -9063.8309    21.791053    17624.859    27.932921 
   24320    1012.6636   -9176.4797   -9063.5155    1155.0681    17613.885    27.930708 
   24330    967.91526    -9171.164   -9063.1916    3273.7081     17603.93    27.929422 
   24340    1009.3145   -9175.4561   -9062.8655    5834.9692    17596.553    27.929802 
   24350    999.20407   -9173.8186   -9062.3559    6257.1724     17593.46    27.932259 
   24360     1014.536   -9175.1021   -9061.9291    6888.2293    17595.168    27.931564 
   24370    943.17251   -9166.6153   -9061.4029    6518.6415    17602.065    27.945336 
   24380    1042.3099   -9177.0969   -9060.8257     4057.415    17613.802    27.986558 
   24390    1023.9501   -9174.4238   -9060.2006    2853.0291     17628.79    28.045029 
   24400    1038.3195   -9175.4826   -9059.6565     2720.852    17646.098    28.088955 
   24410    1036.7443   -9174.8007   -9059.1503    2040.5381    17665.514    28.102107 
   24420    1032.6482   -9173.9106   -9058.7171    1202.8801    17686.539    28.093356 
   24430    1034.0825   -9173.6622   -9058.3087   -221.47793    17708.483    28.079294 
   24440    984.44286   -9167.7915   -9057.9755   -1379.4986    17730.285    28.075669 
   24450    1001.6465   -9169.2882    -9057.553   -2112.8898    17751.027    28.094545 
   24460    1007.2252   -9169.5077   -9057.1503   -3345.9219    17770.068    28.124548 
   24470    1032.4614   -9171.9272   -9056.7546   -3959.4683    17786.484    28.139529 
   24480    977.61091    -9165.397   -9056.3431   -3767.3649    17799.843    28.140936 
   24490    1075.0864   -9175.8372   -9055.9097   -4663.4559    17810.115    28.149479 
   24500    1025.8878   -9169.9866   -9055.5473   -3640.4782    17816.839     28.17359 
   24510    1015.7835   -9168.6032    -9055.291   -1713.5559    17820.728    28.197802 
   24520     991.5231   -9165.6125   -9055.0066   -1652.8447    17823.108    28.212111 
   24530    1014.1565   -9167.8166   -9054.6859    -1377.296    17824.194    28.212122 
   24540    972.54497   -9162.7627   -9054.2738   -1147.0394    17824.169    28.195095 
   24550    1056.1745   -9171.6317   -9053.8138   -1245.1862    17823.207    28.170565 
   24560    1031.3929   -9168.2997   -9053.2462   -198.28476    17821.327    28.167128 
   24570    1054.9489   -9170.4006   -9052.7195    700.71247    17819.263     28.18261 
   24580    1030.2712   -9167.0361   -9052.1078    1055.7962    17817.708    28.205973 
   24590    1072.9712    -9171.231   -9051.5395    2089.6456     17816.99    28.230765 
   24600     997.8074   -9162.1236   -9050.8167    3956.5372    17817.966    28.249373 
   24610    1039.4614   -9165.9576   -9050.0041    3418.0265    17821.864    28.247578 
   24620    1050.8448   -9166.1285   -9048.9052    1530.9916    17828.361     28.23086 
   24630    1060.4064   -9165.9896   -9047.6996    2.1359922    17836.076    28.219472 
   24640    1047.3704   -9163.1992   -9046.3634   -1135.5308    17843.817    28.217031 
   24650    1052.8062   -9162.4864   -9045.0443   -1605.1362    17850.707    28.209646 
   24660    1071.1238   -9163.2829   -9043.7975   -1486.1922    17856.391    28.203452 
   24670    1084.2947   -9163.6584   -9042.7037   -1092.9002    17860.911    28.204021 
   24680    1094.3358   -9163.9441   -9041.8693    759.77992    17864.665    28.204531 
   24690     1041.827   -9157.4322   -9041.2148    2050.6163    17868.981     28.20434 
   24700    1075.6223   -9160.7876   -9040.8003    1606.7516    17874.788    28.210433 
   24710    1043.8294   -9156.9199   -9040.4792    1246.3693     17881.91    28.215511 
   24720    1108.2427     -9163.97   -9040.3439   -374.50966    17889.924    28.207246 
   24730    1110.0053   -9164.2005   -9040.3778   -1682.1805    17897.684    28.198003 
   24740    1100.4891   -9163.4081   -9040.6469   -3082.7566    17904.109    28.208989 
   24750     1153.993   -9169.8679   -9041.1382   -3761.5692    17908.141    28.241765 
   24760    1088.3249   -9163.2424   -9041.8381   -2802.2164    17909.261    28.287623 
   24770    1083.9751   -9163.6411   -9042.7221   -1568.8748    17908.141    28.336508 
   24780    1031.9371   -9158.6774   -9043.5633   -324.15333    17905.774    28.376664 
   24790    1099.2261   -9167.0486   -9044.4283   -34.575428    17903.048    28.398397 
   24800    1061.9877    -9163.779   -9045.3127    1271.3801    17900.368    28.414921 
   24810    1031.6352   -9161.2281   -9046.1477    3277.2953    17898.739     28.43536 
   24820    1077.3361   -9167.1431   -9046.9646    3449.3524    17899.651    28.466825 
   24830    1055.5533   -9165.5107   -9047.7622    2909.5457    17903.324    28.508958 
   24840    1065.8533   -9167.3499   -9048.4524    2230.5734    17909.342    28.559409 
   24850    1061.7195   -9167.6058   -9049.1693    -477.7089    17916.969    28.620806 
   24860    1059.3603   -9168.0281   -9049.8548   -2211.3327    17924.309    28.681159 
   24870    999.92473   -9161.8151    -9050.272    -3012.201    17930.005    28.728312 
   24880    1031.7539   -9165.9729   -9050.8792   -3839.4747    17933.353    28.760177 
   24890    1040.7976   -9167.5139   -9051.4113   -3813.1378    17933.711    28.784095 
   24900    1002.9916   -9163.8034   -9051.9182   -2370.2075     17931.16    28.807473 
   24910    1038.9059   -9168.3368   -9052.4453   -1614.8665     17926.67    28.831268 
   24920    1045.6473   -9169.6603   -9053.0167   -981.55496    17920.908    28.847145 
   24930    1014.9736   -9166.8422   -9053.6204   -423.18734    17914.378    28.849175 
   24940    1053.6021   -9171.7745   -9054.2436   -782.53454     17907.44    28.850209 
   24950    1029.3158   -9169.6362   -9054.8145   -696.51915    17899.873    28.863897 
   24960    1080.3758   -9176.0861   -9055.5685   -120.38375    17891.691     28.88185 
   24970    991.66901   -9166.7493   -9056.1271    204.32509    17883.282    28.894895 
   24980    1031.7591   -9171.8196   -9056.7254    163.37667     17874.92      28.8956 
   24990    1023.4439   -9171.4988   -9057.3321    1097.3573    17866.808    28.888765 
   25000    1036.3913   -9173.5867   -9057.9757    1301.3933     17859.52    28.884255 
Loop time of 15361.2 on 16 procs for 20000 steps with 864 atoms

Performance: 0.112 ns/day, 213.351 hours/ns, 1.302 timesteps/s
96.8% CPU use with 16 MPI tasks x 1 OpenMP threads

MPI task timing breakdown:
Section |  min time  |  avg time  |  max time  |%varavg| %total
---------------------------------------------------------------
Pair    | 1987.6     | 8894.4     | 14810      |4719.0 | 57.90
Bond    | 0.0022979  | 0.0066049  | 0.01359    |   4.0 |  0.00
Neigh   | 0.10433    | 0.35188    | 0.62408    |  33.2 |  0.00
Comm    | 439.8      | 5197.9     | 11467      |5282.6 | 33.84
Output  | 2.1706     | 2.1971     | 2.583      |   6.7 |  0.01
Modify  | 14.414     | 1266.3     | 3581.5     |3244.3 |  8.24
Other   |            | 0.09986    |            |       |  0.00

Nlocal:        54.0000 ave          88 max          15 min
Histogram: 1 3 3 1 0 0 1 1 2 4
Nghost:        544.875 ave         775 max         330 min
Histogram: 4 0 1 1 2 1 3 0 2 2
Neighs:         0.00000 ave           0 max           0 min
Histogram: 16 0 0 0 0 0 0 0 0 0
FullNghs:      3083.50 ave        6115 max         351 min
Histogram: 4 2 1 1 0 1 1 2 0 4

Total # of neighbors = 49336
Ave neighs/atom = 57.101852
Ave special neighs/atom = 0.0000000
Neighbor list builds = 2000
Dangerous builds = 2000
unfix   3
                
Total wall time: 5:33:21
