LAMMPS (29 Sep 2021 - Update 3)
OMP_NUM_THREADS environment is not set. Defaulting to 1 thread. (src/comm.cpp:98)
  using 1 OpenMP thread(s) per MPI task
units	metal
atom_style	full

read_data	mixed.data
Reading data file ...
  orthogonal box = (0.0000000 0.0000000 0.0000000) to (16.534670 17.767358 74.594796)
  1 by 2 by 8 MPI processor grid
  reading atoms ...
  864 atoms
Finding 1-2 1-3 1-4 neighbors ...
  special bond factors lj:    0        0        0       
  special bond factors coul:  0        0        0       
     0 = max # of 1-2 neighbors
     0 = max # of 1-3 neighbors
     0 = max # of 1-4 neighbors
     1 = max # of special neighbors
  special bonds CPU = 0.001 seconds
  read_data CPU = 0.033 seconds

pair_style	quip
pair_coeff	* * /ocean/projects/cts180021p/wuziqi/clease/mint-PD/PhaseDiagram-Clease/Liquid/GAP_potential/gap_LiKCl.xml "Potential xml_label=GAP_2021_9_27_0_1_17_37_618" 17 19 3

neighbor	0.3 bin
neigh_modify	delay 10

timestep	0.001
compute	msd all msd
thermo_style	custom step temp pe etotal press vol c_msd[4]
thermo	10
dump	1 all custom 10 xyz-mix.dump type id x y z
dump	2 all custom 10 force-mix.dump type id fx fy fz

fix     1 all nve
run     2000
Neighbor list info ...
  update every 1 steps, delay 10 steps, check yes
  max neighbors/atom: 2000, page size: 100000
  master list distance cutoff = 6.22
  ghost atom cutoff = 6.22
  binsize = 3.11, bins = 6 6 24
  1 neighbor lists, perpetual/occasional/extra = 1 0 0
  (1) pair quip, perpetual
      attributes: full, newton on
      pair build: full/bin
      stencil: full/bin/3d
      bin: standard
Per MPI rank memory allocation (min/avg/max) = 8.894 | 8.906 | 8.915 Mbytes
Step Temp PotEng TotEng Press Volume c_msd[4] 
       0            0   -8413.4292   -8413.4292   -12531.916    21914.265            0 
      10    63.367096   -8420.5059   -8413.4372   -13062.757    21914.265 0.00028900792 
      20    162.23389   -8431.5423   -8413.4448   -13580.932    21914.265 0.0035442006 
      30    203.76318   -8436.1707   -8413.4406   -13263.999    21914.265  0.011998633 
      40     225.5427      -8438.6   -8413.4404   -13091.981    21914.265  0.023619499 
      50    238.39464   -8440.0352   -8413.4419   -13192.953    21914.265  0.036411648 
      60    237.91747   -8439.9798   -8413.4397    -13151.82    21914.265  0.049420327 
      70    242.25882   -8440.4649   -8413.4405   -12986.142    21914.265  0.062561747 
      80    243.33226   -8440.5825   -8413.4384   -12841.846    21914.265  0.075987004 
      90     256.1439    -8442.014   -8413.4408   -12985.089    21914.265  0.088683986 
     100    260.92723   -8442.5467   -8413.4399   -13129.532    21914.265   0.10092572 
     110    263.36735   -8442.8185   -8413.4395   -13314.209    21914.265   0.11296329 
     120    267.45703   -8443.2754   -8413.4402   -13403.997    21914.265   0.12509928 
     130    267.20277   -8443.2463   -8413.4395   -13198.457    21914.265   0.13819283 
     140    269.21359   -8443.4705   -8413.4393   -12839.711    21914.265   0.15259322 
     150     276.3754   -8444.2699   -8413.4398   -12564.061    21914.265   0.16775295 
     160    282.09052   -8444.9077   -8413.4401   -12400.914    21914.265   0.18315323 
     170    283.74907   -8445.0928   -8413.4402     -12430.3    21914.265    0.1989762 
     180    279.57367   -8444.6271   -8413.4402   -12727.353    21914.265   0.21536827 
     190    272.01519   -8443.7829   -8413.4391   -12943.608    21914.265   0.23180139 
     200    272.98877   -8443.8921   -8413.4397   -13066.814    21914.265    0.2476891 
     210    278.28656   -8444.4833     -8413.44   -13119.162    21914.265   0.26290373 
     220    281.61115   -8444.8543   -8413.4402    -13052.65    21914.265   0.27743582 
     230    283.45537   -8445.0589    -8413.439   -12948.839    21914.265   0.29133107 
     240    292.81696   -8446.1046   -8413.4404   -13016.029    21914.265    0.3048675 
     250    295.20203   -8446.3705   -8413.4402   -13077.887    21914.265   0.31931215 
     260    290.46684   -8445.8415   -8413.4394   -13040.528    21914.265   0.33532684 
     270    290.61991    -8445.858   -8413.4389   -13235.455    21914.265   0.35239777 
     280    301.25443   -8447.0456   -8413.4402   -13515.282    21914.265   0.36952956 
     290    308.28623   -8447.8304   -8413.4406   -13611.572    21914.265   0.38667041 
     300    309.20907   -8447.9319   -8413.4392   -13455.868    21914.265    0.4041006 
     310     314.5316   -8448.5273   -8413.4408   -13198.597    21914.265   0.42152557 
     320    312.09261   -8448.2546   -8413.4402   -12968.083    21914.265   0.43866959 
     330    305.84421   -8447.5573   -8413.4399   -12657.381    21914.265   0.45536472 
     340    303.20988   -8447.2632   -8413.4397   -12498.026    21914.265   0.47172581 
     350    307.13857   -8447.7018     -8413.44   -12492.368    21914.265   0.48754232 
     360    312.15901   -8448.2619   -8413.4401   -12369.505    21914.265   0.50223919 
     370     318.6847   -8448.9898     -8413.44   -12195.898    21914.265   0.51545083 
     380    326.66636   -8449.8808   -8413.4407   -12030.164    21914.265   0.52751087 
     390    328.67292   -8450.1043   -8413.4403   -11786.931    21914.265   0.53983918 
     400    329.42172   -8450.1875     -8413.44   -11529.418    21914.265   0.55338123 
     410    329.12824   -8450.1558   -8413.4411   -11363.621    21914.265   0.56856317 
     420    321.17839   -8449.2675   -8413.4396   -11329.503    21914.265   0.58578319 
     430    319.73313   -8449.1067     -8413.44   -11645.546    21914.265   0.60460993 
     440    321.87014   -8449.3455   -8413.4404   -12168.872    21914.265   0.62482739 
     450    321.69175   -8449.3257   -8413.4405   -12517.526    21914.265   0.64605131 
     460    321.58625   -8449.3131   -8413.4397   -12738.117    21914.265   0.66602281 
     470    327.73765   -8450.0009   -8413.4413    -13118.13    21914.265   0.68222539 
     480    325.78012   -8449.7811   -8413.4399   -13518.975    21914.265   0.69547134 
     490    325.26696   -8449.7242   -8413.4402   -13912.333    21914.265   0.70709849 
     500    326.02809   -8449.8096   -8413.4407    -14245.82    21914.265    0.7181905 
     510     321.8067   -8449.3384   -8413.4404   -14358.421    21914.265   0.73031831 
     520    314.82643   -8448.5595   -8413.4401   -14393.561    21914.265   0.74493886 
     530    311.55922   -8448.1945   -8413.4396    -14504.26    21914.265   0.76206346 
     540    316.52181   -8448.7487   -8413.4402   -14692.451    21914.265   0.78048733 
     550    323.45997   -8449.5224     -8413.44   -14675.954    21914.265   0.79880458 
     560    332.20295   -8450.4987   -8413.4409    -14432.97    21914.265   0.81596428 
     570    332.37528   -8450.5179   -8413.4409   -14008.452    21914.265   0.83234674 
     580    324.44532    -8449.632   -8413.4397   -13682.622    21914.265   0.84880328 
     590    322.54654   -8449.4211   -8413.4405   -13611.186    21914.265   0.86493346 
     600    320.03229     -8449.14   -8413.4399   -13618.158    21914.265   0.88136827 
     610     322.0694   -8449.3667   -8413.4393   -13770.866    21914.265   0.89972436 
     620    332.97088   -8450.5844    -8413.441   -14040.679    21914.265   0.91979176 
     630    336.52886   -8450.9806   -8413.4403   -14106.634    21914.265    0.9400978 
     640    340.63169   -8451.4378   -8413.4399   -14084.373    21914.265   0.95883362 
     650     349.6267   -8452.4431   -8413.4417   -14126.089    21914.265   0.97518253 
     660     345.3101   -8451.9607   -8413.4408    -13925.09    21914.265   0.98949595 
     670    335.30236   -8450.8431   -8413.4396   -13541.064    21914.265    1.0025057 
     680    335.35657   -8450.8495     -8413.44   -13120.509    21914.265    1.0157598 
     690    342.86707   -8451.6878   -8413.4405   -12807.122    21914.265    1.0306556 
     700    350.61517   -8452.5527    -8413.441   -12613.893    21914.265    1.0481195 
     710    351.61871   -8452.6647   -8413.4411    -12558.63    21914.265     1.067876 
     720    346.37378   -8452.0785     -8413.44   -12478.274    21914.265    1.0873947 
     730    347.79156   -8452.2373   -8413.4406   -12593.955    21914.265    1.1041491 
     740    351.02442    -8452.599   -8413.4417   -12781.856    21914.265    1.1188548 
     750    344.89782   -8451.9145   -8413.4406   -12888.282    21914.265     1.133643 
     760      340.342   -8451.4064   -8413.4407   -13050.736    21914.265    1.1491825 
     770    340.04955   -8451.3737   -8413.4407   -13326.749    21914.265    1.1643304 
     780      345.357   -8451.9656   -8413.4405   -13558.373    21914.265    1.1777023 
     790    357.12317   -8453.2788   -8413.4411   -13831.043    21914.265    1.1886997 
     800    366.64045   -8454.3407   -8413.4414   -14129.874    21914.265    1.1976392 
     810    368.68447   -8454.5688   -8413.4415   -14063.484    21914.265    1.2056605 
     820    366.60174   -8454.3361   -8413.4411   -13908.726    21914.265    1.2141717 
     830    365.85586   -8454.2531   -8413.4413   -13853.131    21914.265    1.2243585 
     840     368.4524   -8454.5423   -8413.4409   -13972.673    21914.265    1.2365636 
     850    371.87492   -8454.9262    -8413.443    -14131.16    21914.265    1.2503596 
     860     358.1746   -8453.3954   -8413.4405     -13818.7    21914.265    1.2649975 
     870    354.45705   -8452.9806   -8413.4404   -13465.958    21914.265     1.278191 
     880    366.65296   -8454.3425   -8413.4418   -13399.092    21914.265    1.2880847 
     890    376.93995   -8455.4909   -8413.4426    -13274.53    21914.265    1.2959326 
     900    375.96913   -8455.3817   -8413.4418   -13062.805    21914.265    1.3041818 
     910    374.01489   -8455.1632   -8413.4413   -12824.206    21914.265    1.3130528 
     920    378.94842   -8455.7136   -8413.4414   -12747.174    21914.265    1.3222121 
     930    388.54983   -8456.7859   -8413.4426   -12880.601    21914.265    1.3329508 
     940    389.80019   -8456.9258    -8413.443   -12981.003    21914.265    1.3457299 
     950    382.52604   -8456.1127   -8413.4413   -12918.004    21914.265    1.3587946 
     960    381.75271   -8456.0275   -8413.4424   -13120.356    21914.265    1.3710856 
     970    380.20365    -8455.854   -8413.4417   -13297.868    21914.265    1.3835601 
     980    384.06597   -8456.2848   -8413.4416    -13360.21    21914.265    1.3967998 
     990    391.39252    -8457.104   -8413.4436    -13319.56    21914.265    1.4114384 
    1000    385.55287   -8456.4508   -8413.4418   -13032.957    21914.265    1.4285977 
    1010    381.98963   -8456.0536   -8413.4421   -12900.345    21914.265    1.4480597 
    1020    382.08452   -8456.0644   -8413.4423   -12891.786    21914.265    1.4678099 
    1030    380.66666   -8455.9065   -8413.4425   -12820.478    21914.265    1.4859085 
    1040    378.02017   -8455.6107    -8413.442   -12814.774    21914.265    1.5012686 
    1050    381.70997   -8456.0224   -8413.4421   -12925.622    21914.265    1.5119118 
    1060    391.42566   -8457.1073   -8413.4432    -13146.33    21914.265    1.5173209 
    1070    396.24192   -8457.6441   -8413.4428   -13102.084    21914.265    1.5196151 
    1080    397.63032   -8457.7993    -8413.443   -12889.784    21914.265    1.5211703 
    1090    396.12759   -8457.6308   -8413.4422   -12537.537    21914.265    1.5231683 
    1100    400.33119   -8458.1002   -8413.4426   -12299.668    21914.265    1.5256834 
    1110    407.17314   -8458.8635   -8413.4428   -12099.612    21914.265    1.5296348 
    1120    413.19804   -8459.5369    -8413.444   -11926.861    21914.265    1.5369315 
    1130    409.94165   -8459.1721   -8413.4425   -11927.354    21914.265    1.5487344 
    1140    411.69689   -8459.3679   -8413.4425   -12274.932    21914.265    1.5644715 
    1150    417.92932   -8460.0654   -8413.4448   -12599.199    21914.265    1.5822789 
    1160    409.45399   -8459.1175   -8413.4423   -12608.558    21914.265    1.6004412 
    1170    405.75202   -8458.7057   -8413.4435   -12496.116    21914.265    1.6169469 
    1180    399.97271   -8458.0606    -8413.443   -12466.412    21914.265    1.6317671 
    1190    393.04741   -8457.2883   -8413.4433   -12618.331    21914.265    1.6460138 
    1200    381.93867   -8456.0489   -8413.4431   -12576.103    21914.265    1.6602667 
    1210    376.72969   -8455.4667   -8413.4419   -12745.258    21914.265    1.6726433 
    1220     387.4652   -8456.6661   -8413.4437   -13270.317    21914.265    1.6819979 
    1230    392.11995   -8457.1848   -8413.4433   -13698.725    21914.265    1.6894908 
    1240    392.35374   -8457.2109   -8413.4432   -14054.078    21914.265    1.6958816 
    1250    387.63167   -8456.6848   -8413.4439   -14383.659    21914.265    1.7022745 
    1260    377.01437   -8455.4984   -8413.4419   -14780.957    21914.265    1.7098627 
    1270    380.16106   -8455.8505   -8413.4429    -15291.91    21914.265    1.7186286 
    1280    386.65141    -8456.575   -8413.4435   -15684.863    21914.265    1.7280931 
    1290    386.45138   -8456.5524   -8413.4431   -15669.118    21914.265    1.7377267 
    1300    384.49318   -8456.3333   -8413.4425   -15192.167    21914.265    1.7465203 
    1310    389.16883   -8456.8559   -8413.4435   -14748.802    21914.265    1.7543822 
    1320    395.91985   -8457.6092   -8413.4437   -14540.669    21914.265    1.7626209 
    1330    402.24128   -8458.3144   -8413.4438   -14482.176    21914.265    1.7719127 
    1340    406.72312   -8458.8138   -8413.4433   -14593.779    21914.265    1.7822942 
    1350    413.88937   -8459.6138   -8413.4438   -14633.206    21914.265    1.7929881 
    1360    418.26368   -8460.1021   -8413.4441   -14272.723    21914.265    1.8043383 
    1370    412.53709   -8459.4628   -8413.4437   -13640.472    21914.265    1.8173742 
    1380    404.03017    -8458.513   -8413.4428   -13053.663    21914.265    1.8314414 
    1390    402.11865   -8458.3013   -8413.4444   -12796.252    21914.265    1.8446224 
    1400    396.75786   -8457.7017   -8413.4428   -12890.081    21914.265    1.8555613 
    1410     401.1626   -8458.1945   -8413.4442   -13251.623    21914.265    1.8625402 
    1420    405.53922    -8458.683   -8413.4445   -13540.901    21914.265    1.8651673 
    1430    404.12534   -8458.5245   -8413.4437   -13662.885    21914.265    1.8648977 
    1440    405.72045   -8458.7027    -8413.444   -13771.634    21914.265    1.8643414 
    1450    406.67484   -8458.8092    -8413.444   -13873.149    21914.265    1.8661066 
    1460    406.94702   -8458.8395   -8413.4439   -13898.845    21914.265    1.8707341 
    1470    405.99802   -8458.7335   -8413.4438    -13583.81    21914.265    1.8783175 
    1480    405.25435   -8458.6503   -8413.4436   -13097.342    21914.265    1.8881067 
    1490    408.19865    -8458.979   -8413.4439   -12662.726    21914.265    1.8977467 
    1500    414.56579   -8459.6887   -8413.4433   -12296.863    21914.265    1.9065246 
    1510    429.03716   -8461.3044   -8413.4447   -11735.577    21914.265    1.9156573 
    1520    435.43303   -8462.0188   -8413.4456   -11140.275    21914.265    1.9269758 
    1530    420.46896   -8460.3486   -8413.4446     -10759.3    21914.265    1.9420002 
    1540    404.55727   -8458.5707   -8413.4417   -10562.297    21914.265    1.9594173 
    1550     414.5371   -8459.6878   -8413.4456   -10873.945    21914.265    1.9756145 
    1560    415.64167   -8459.8093   -8413.4438    -11180.84    21914.265    1.9896674 
    1570    417.51903   -8460.0192   -8413.4444   -11574.862    21914.265      2.00287 
    1580    420.71133   -8460.3754   -8413.4444   -12084.028    21914.265    2.0173903 
    1590    422.23753   -8460.5459   -8413.4446   -12650.323    21914.265    2.0354221 
    1600    420.26548   -8460.3254   -8413.4441   -13157.964    21914.265    2.0567995 
    1610    418.97614   -8460.1816   -8413.4442   -13379.664    21914.265    2.0784503 
    1620    422.99101    -8460.629   -8413.4437   -13476.483    21914.265    2.0978277 
    1630    431.41255   -8461.5707    -8413.446   -13473.665    21914.265     2.115193 
    1640    426.28653   -8460.9963   -8413.4434   -13430.412    21914.265    2.1338075 
    1650    431.13487   -8461.5387    -8413.445   -13658.596    21914.265       2.1559 
    1660    436.17822   -8462.1019   -8413.4456   -13638.641    21914.265    2.1797337 
    1670    428.12023   -8461.2022   -8413.4447   -13252.346    21914.265    2.2035441 
    1680    422.66155   -8460.5919   -8413.4434   -13022.696    21914.265    2.2262152 
    1690    430.34848   -8461.4521    -8413.446   -12966.155    21914.265    2.2464937 
    1700    426.21611   -8460.9896   -8413.4446   -12849.343    21914.265    2.2649593 
    1710    421.63281   -8460.4781   -8413.4443    -12902.06    21914.265    2.2822078 
    1720    425.52952   -8460.9136   -8413.4451   -13254.993    21914.265    2.2992296 
    1730    433.21398   -8461.7705   -8413.4448   -13760.925    21914.265    2.3170264 
    1740    441.86781   -8462.7372   -8413.4461   -14050.542    21914.265    2.3352522 
    1750    438.27813    -8462.336   -8413.4454   -13921.401    21914.265    2.3528289 
    1760    429.17186   -8461.3192   -8413.4444   -13408.002    21914.265    2.3694072 
    1770    428.81898   -8461.2807   -8413.4453    -12917.73    21914.265    2.3858611 
    1780    433.34916   -8461.7857    -8413.445   -12638.931    21914.265    2.4026666 
    1790     441.0669   -8462.6474   -8413.4457   -12705.172    21914.265     2.419074 
    1800    447.24535   -8463.3359    -8413.445   -12842.309    21914.265    2.4345236 
    1810    451.04914   -8463.7611   -8413.4459   -13058.485    21914.265    2.4502124 
    1820    445.08252   -8463.0941   -8413.4445   -13035.825    21914.265    2.4671851 
    1830    441.70858   -8462.7187   -8413.4454   -12922.342    21914.265    2.4853863 
    1840    432.65555   -8461.7082   -8413.4449   -13058.866    21914.265    2.5046773 
    1850    428.24526   -8461.2146   -8413.4432   -13494.155    21914.265    2.5239509 
    1860    442.70809   -8462.8312   -8413.4464     -14052.9    21914.265    2.5417036 
    1870    445.34398   -8463.1238   -8413.4451   -14177.248    21914.265    2.5577578 
    1880    449.56383   -8463.5931   -8413.4436   -14088.107    21914.265    2.5732932 
    1890    469.70151   -8465.8424   -8413.4465   -13965.821    21914.265    2.5900107 
    1900    475.61979   -8466.5029   -8413.4468   -13338.709    21914.265    2.6092547 
    1910    460.77113   -8464.8444   -8413.4447   -12266.897    21914.265    2.6300063 
    1920    453.29076   -8464.0097   -8413.4444   -11600.031    21914.265    2.6488623 
    1930    455.01355   -8464.2038   -8413.4464   -11532.276    21914.265     2.664581 
    1940    446.57627   -8463.2611   -8413.4448   -11610.068    21914.265    2.6787843 
    1950    442.24787   -8462.7779   -8413.4445    -12067.88    21914.265     2.691974 
    1960    445.34565   -8463.1243   -8413.4453   -12574.104    21914.265    2.7033659 
    1970     445.3849   -8463.1293   -8413.4459   -12683.518    21914.265    2.7130116 
    1980    438.45896   -8462.3558    -8413.445   -12521.804    21914.265    2.7223802 
    1990    435.82997    -8462.062   -8413.4445   -12590.151    21914.265    2.7312795 
    2000    445.20858   -8463.1089   -8413.4452   -13039.215    21914.265    2.7384799 
Loop time of 1141.09 on 16 procs for 2000 steps with 864 atoms

Performance: 0.151 ns/day, 158.485 hours/ns, 1.753 timesteps/s
97.2% CPU use with 16 MPI tasks x 1 OpenMP threads

MPI task timing breakdown:
Section |  min time  |  avg time  |  max time  |%varavg| %total
---------------------------------------------------------------
Pair    | 379.54     | 636.34     | 1113.2     | 865.6 | 55.77
Bond    | 0.00016451 | 0.00041437 | 0.00075054 |   0.0 |  0.00
Neigh   | 0.017506   | 0.029758   | 0.054832   |   6.5 |  0.00
Comm    | 27.255     | 444.69     | 659.72     | 955.1 | 38.97
Output  | 0.57122    | 41.465     | 93.39      | 543.1 |  3.63
Modify  | 0.0084305  | 0.0095784  | 0.01101    |   0.6 |  0.00
Other   |            | 18.55      |            |       |  1.63

Nlocal:        54.0000 ave          84 max          36 min
Histogram: 3 3 4 0 0 2 1 0 1 2
Nghost:        477.750 ave         592 max         348 min
Histogram: 2 0 2 1 3 3 1 0 0 4
Neighs:         0.00000 ave           0 max           0 min
Histogram: 16 0 0 0 0 0 0 0 0 0
FullNghs:      2234.12 ave        4892 max        1038 min
Histogram: 5 5 0 0 2 0 2 0 0 2

Total # of neighbors = 35746
Ave neighs/atom = 41.372685
Ave special neighs/atom = 0.0000000
Neighbor list builds = 199
Dangerous builds = 198
unfix   1

velocity    all create 787.5 1312343 dist gaussian
fix     2 all npt temp 787.5 787.5 $(100.0*dt) aniso 0.0 1.01325 $(1000.0*dt)
fix     2 all npt temp 787.5 787.5 0.10000000000000000555 aniso 0.0 1.01325 $(1000.0*dt)
fix     2 all npt temp 787.5 787.5 0.10000000000000000555 aniso 0.0 1.01325 1
run     3000
Per MPI rank memory allocation (min/avg/max) = 8.894 | 8.907 | 8.916 Mbytes
Step Temp PotEng TotEng Press Volume c_msd[4] 
    2000        787.5   -8463.1089   -8375.2621   -11178.141    21914.265    2.7384799 
    2010    721.34775   -8455.8174     -8375.35   -10377.333    21905.753    2.7394481 
    2020    635.76415   -8446.4108   -8375.4904   -8928.0867    21881.451    2.7405821 
    2030    629.97413   -8445.7923   -8375.5177   -8406.5334    21843.439    2.7382814 
    2040    628.55869   -8445.4542   -8375.3375   -7434.9212    21792.902    2.7330239 
    2050     631.0418   -8445.3439   -8374.9503   -6287.0669     21731.54    2.7272583 
    2060    646.81267   -8446.5676   -8374.4146    -5196.516    21661.481    2.7238061 
    2070    639.13507   -8445.1229   -8373.8264   -3483.2174    21585.066    2.7238946 
    2080    644.00284   -8445.0747   -8373.2352   -1821.9027    21505.437    2.7259728 
    2090    659.04726   -8446.1364   -8372.6187   -881.04203    21425.666    2.7289435 
    2100    666.11598    -8446.288   -8371.9817   -619.65348     21347.76    2.7313094 
    2110     682.8442   -8447.5028   -8371.3305   -813.41159    21272.617    2.7314017 
    2120    691.86747   -8447.8312   -8370.6523   -955.03986     21200.45    2.7313881 
    2130    696.09697   -8447.6037    -8369.953   -1258.7663    21131.345    2.7357094 
    2140     702.6741   -8447.6043     -8369.22   -1894.3829    21065.089    2.7468997 
    2150    704.45076   -8447.0376   -8368.4551   -2130.7913    21001.081    2.7634438 
    2160    711.24686   -8446.9845   -8367.6438   -1708.9634    20939.166    2.7805303 
    2170    722.73918   -8447.3913   -8366.7686   -873.33947    20879.963    2.7950644 
    2180    732.55087   -8447.5502    -8365.833    174.81354    20824.539    2.8071831 
    2190    758.99857   -8449.5407   -8364.8732    678.33146    20773.963    2.8176383 
    2200    776.81647   -8450.5974   -8363.9423    946.44587    20728.513    2.8294681 
    2210    763.88984   -8448.3006   -8363.0876    1659.2024    20688.131    2.8458305 
    2220    755.01395   -8446.5248   -8362.3019    2041.0519    20653.158    2.8650532 
    2230    766.39709   -8447.0375   -8361.5448    1671.7755    20623.515    2.8848666 
    2240    772.62774   -8446.9786   -8360.7909    1159.1011     20598.27    2.9021816 
    2250    780.90119     -8447.14   -8360.0293    938.21935    20576.375      2.91611 
    2260     780.8238   -8446.3645   -8359.2624    1435.4785    20557.284    2.9306082 
    2270     781.9128    -8445.739   -8358.5154    1899.2247      20541.3    2.9479374 
    2280    798.27723   -8446.8551    -8357.806    1541.3151    20528.702      2.96698 
    2290    805.90473   -8447.0618   -8357.1619    989.57163    20518.831    2.9865906 
    2300    791.77071   -8444.9207   -8356.5975    1316.5604    20510.897     3.007055 
    2310    794.91022   -8444.7606   -8356.0872    1902.5615    20505.116    3.0289231 
    2320    817.95479   -8446.8489   -8355.6048    2039.3849    20502.033     3.055066 
    2330    833.71156   -8448.1845   -8355.1827    2417.5495    20501.801    3.0891577 
    2340    822.44059   -8446.6038   -8354.8593    2797.9444    20504.771    3.1294669 
    2350    846.39825   -8449.0701   -8354.6531    1951.7868    20511.152     3.171112 
    2360    861.07897   -8450.6346   -8354.5799    803.92742    20519.834    3.2134407 
    2370    830.45922   -8447.3122   -8354.6733    533.82715    20529.365     3.255614 
    2380    805.19134    -8444.693   -8354.8727    479.80034    20539.293    3.2963225 
    2390    826.83898   -8447.3727   -8355.1376    7.5050154    20549.469     3.337727 
    2400    841.55578   -8449.3828    -8355.506   -215.72747    20559.351    3.3855356 
    2410    837.92992   -8449.4924   -8356.0201   -160.78657    20568.656    3.4436082 
    2420    815.58812   -8447.6267   -8356.6466    27.637626    20577.485    3.5092444 
    2430    810.64675   -8447.7596   -8357.3308   -313.19758    20585.996    3.5755872 
    2440    828.10191   -8450.4553   -8358.0793   -665.77479    20593.823    3.6372448 
    2450    833.75995   -8451.9186   -8358.9115   -239.94663    20600.609    3.6925206 
    2460    823.02425   -8451.5969   -8359.7873    559.68098    20606.915     3.744901 
    2470    840.41911   -8454.4478   -8360.6978    506.73065    20613.653     3.800517 
    2480    855.94951   -8457.1686   -8361.6862     102.2035      20620.8    3.8636647 
    2490    835.97218   -8455.9898   -8362.7359    44.449502    20627.885    3.9323529 
    2500    824.55358   -8455.7604   -8363.7802   -194.86131    20634.754    3.9999261 
    2510    817.52088   -8455.9874   -8364.7917    -91.12858    20641.155    4.0634482 
    2520    802.10437   -8455.2312   -8365.7553    770.43563    20647.282    4.1235354 
    2530    806.65782   -8456.6505   -8366.6666    1477.3228    20654.181    4.1833458 
    2540    821.54975   -8459.2016   -8367.5564    1958.8865    20662.757    4.2454593 
    2550    811.63919   -8458.9847   -8368.4451    2309.1743    20673.574    4.3109933 
    2560    781.86356   -8456.5087   -8369.2906    2476.0041    20686.984    4.3794366 
    2570    774.89178   -8456.4817   -8370.0413    1956.8699    20703.015    4.4476578 
    2580    790.70312   -8458.9122   -8370.7081    939.47489    20720.876     4.516888 
    2590    797.04088   -8460.2401    -8371.329    207.72128    20739.203    4.5905821 
    2600    783.58875   -8459.3242   -8371.9136   -233.86505    20756.978    4.6684808 
    2610    777.94276   -8459.2319   -8372.4512    -678.1019    20773.596    4.7490906 
    2620    798.44743   -8462.0272   -8372.9592   -1530.6377     20788.44    4.8293669 
    2630    801.57061   -8462.8774    -8373.461   -2289.6826    20800.502    4.9070547 
    2640    807.77944   -8464.0806   -8373.9715   -2799.6211    20808.892    4.9797723 
    2650    830.43419   -8467.1728   -8374.5366   -2883.7465    20813.127    5.0451202 
    2660    818.03475   -8466.4275   -8375.1745   -2081.7225    20813.397    5.1048893 
    2670     799.2532   -8465.0114   -8375.8535   -1321.7054    20810.841    5.1630804 
    2680    767.09349   -8462.0743   -8376.5039   -744.18827    20806.638    5.2231681 
    2690    746.50378   -8460.3292   -8377.0555   -677.85173    20801.581    5.2842254 
    2700     758.4497   -8462.0982    -8377.492    -614.3088    20795.865    5.3413936 
    2710    771.33657   -8463.8814   -8377.8377   -442.67803    20789.607    5.3917444 
    2720    786.68012   -8465.8901   -8378.1347   -97.168533    20783.088    5.4364918 
    2730     798.2289   -8467.4774   -8378.4338    457.76002    20776.786    5.4753459 
    2740    806.67608   -8468.7567   -8378.7708    808.68553    20771.379    5.5051486 
    2750    813.58965   -8469.9185   -8379.1614    957.99836      20767.3    5.5297164 
    2760    817.82317   -8470.8328   -8379.6034     1256.754    20764.746    5.5563777 
    2770    830.02276    -8472.709   -8380.1188    1260.6227    20763.964    5.5867294 
    2780    810.23167   -8471.0877   -8380.7051    1170.6063    20764.893    5.6192182 
    2790    782.98534   -8468.6526   -8381.3094    1143.2574    20767.401    5.6534274 
    2800    779.39529   -8468.8341   -8381.8914     866.0699    20771.316    5.6903152 
    2810    778.45103   -8469.2689   -8382.4316    1088.6088    20776.321     5.728667 
    2820    786.92573   -8470.7204   -8382.9376    1108.8775     20782.57    5.7657437 
    2830    778.77948   -8470.2843   -8383.4103    976.64054    20790.068    5.8021597 
    2840    783.11234    -8471.197   -8383.8397    357.46964    20798.553     5.838865 
    2850    815.05492   -8475.1836    -8384.263    -791.1165    20807.154    5.8739488 
    2860    806.96993   -8474.7377    -8384.719   -1235.8965    20814.466    5.9047749 
    2870    780.89045    -8472.294   -8385.1845   -1019.8989    20819.912     5.928408 
    2880     788.0589   -8473.5404   -8385.6313   -1122.4071     20823.74    5.9428153 
    2890      809.671   -8476.4064   -8386.0864   -1673.0157    20825.861    5.9543592 
    2900    799.79668   -8475.7939   -8386.5754   -2099.5611    20825.643    5.9730314 
    2910    777.83294   -8473.8285   -8387.0601   -2042.1669    20822.652    6.0043932 
    2920    782.95112   -8474.8497   -8387.5103   -2279.9311    20816.953    6.0456248 
    2930    794.19388   -8476.5396   -8387.9461    -2717.505    20808.318     6.089893 
    2940    795.39993   -8477.1263   -8388.3982   -2952.4531    20796.314    6.1315075 
    2950    787.97984   -8476.7694    -8388.869   -3062.1259    20780.705    6.1655581 
    2960    790.11244   -8477.4775   -8389.3393   -3080.1603    20761.463    6.1876823 
    2970    822.92024   -8481.6414   -8389.8434   -3458.0531    20738.616    6.2003351 
    2980    817.13293   -8481.5718   -8390.4194     -2866.57    20711.959    6.2112985 
    2990    789.66677   -8479.0972   -8391.0086   -1848.6411    20682.352    6.2258146 
    3000    810.94777   -8482.0561   -8391.5937    -1703.071    20651.126    6.2457369 
    3010    826.06728   -8484.3687   -8392.2197   -1485.8231    20618.701    6.2728087 
    3020    817.65242   -8484.0997   -8392.8893    -889.1244    20585.453     6.303086 
    3030    803.62914   -8483.2043   -8393.5582   -25.890193    20552.226    6.3319716 
    3040    791.12814   -8482.4314   -8394.1799    692.61798     20520.16    6.3609461 
    3050    826.79818   -8487.0207   -8394.7902    277.26947    20490.055    6.3938283 
    3060    857.24935   -8491.1052   -8395.4778    -15.63083    20461.477    6.4320905 
    3070    831.52224   -8488.9734   -8396.2158     341.9964     20434.07    6.4758863 
    3080     837.5203   -8490.4164   -8396.9898   -126.36875    20408.086    6.5264174 
    3090    848.85864   -8492.5159   -8397.8244   -1052.5616    20382.922    6.5851626 
    3100    836.96724   -8492.0613   -8398.6963   -1258.7965     20357.51    6.6522977 
    3110    819.12749   -8490.9098   -8399.5349   -840.14572    20331.613    6.7255499 
    3120    817.80552   -8491.5287   -8400.3013   -419.60871    20305.759    6.8000474 
    3130    831.26598   -8493.7538   -8401.0249    -133.1535    20280.514    6.8742902 
    3140    819.08019    -8493.086   -8401.7164   -12.367561    20256.252    6.9515435 
    3150    804.23223   -8492.0619   -8402.3486    17.408311    20233.124    7.0325828 
    3160    807.42509   -8493.0032   -8402.9337   -205.80682    20211.096    7.1144053 
    3170     803.2577   -8493.0891   -8403.4845   -235.48071     20189.92    7.1956281 
    3180    795.28888   -8492.7174   -8404.0017   -112.33435    20169.522     7.277284 
    3190    787.21406   -8492.2963   -8404.4814   -163.30277    20149.996    7.3595679 
    3200     797.2056   -8493.8718   -8404.9423   -776.78417    20131.202    7.4388006 
    3210     818.0535   -8496.6685   -8405.4134   -1514.8145    20112.385    7.5111189 
    3220    838.76876   -8499.5138   -8405.9479   -1717.2299    20092.697    7.5755311 
    3230    827.40256   -8498.8384   -8406.5404   -841.49615    20072.002    7.6362764 
    3240    830.63026   -8499.8238   -8407.1657    163.46439    20051.347    7.7014429 
    3250    829.62437   -8500.3791   -8407.8333    523.46253    20031.884    7.7747934 
    3260    818.57952   -8499.8464   -8408.5326    724.00846    20014.066    7.8516067 
    3270     833.9338   -8502.2895   -8409.2629    882.08119    19998.051    7.9239577 
    3280    839.93966   -8503.7333   -8410.0368     1776.462    19984.033    7.9863004 
    3290    821.47058   -8502.4518   -8410.8155    3165.0723    19973.007    8.0408742 
    3300    842.53033   -8505.5792   -8411.5936    3238.6799    19966.303    8.0937433 
    3310    849.96624   -8507.2139   -8412.3989    2495.2634    19963.846    8.1493408 
    3320     832.6095   -8506.0987   -8413.2198     2075.274    19964.652    8.2075555 
    3330    816.49473   -8505.0927   -8414.0115    1262.8373    19967.962    8.2696892 
    3340    817.56902   -8505.9493   -8414.7482    13.016467    19972.665    8.3378403 
    3350    824.97269   -8507.4747   -8415.4477   -1354.3533    19977.169     8.405779 
    3360    823.28075   -8507.9722    -8416.134   -2380.0004    19979.822    8.4657479 
    3370    818.59007   -8508.1303   -8416.8154   -2634.8476    19979.501    8.5164881 
    3380     820.8259   -8509.0598   -8417.4955   -2329.9665    19975.988    8.5622018 
    3390    825.85821   -8510.3109   -8418.1851   -1567.4451    19969.779    8.6075798 
    3400    825.95727   -8511.0209   -8418.8841   -1012.0864    19961.848    8.6513094 
    3410    846.26287    -8514.019   -8419.6171   -968.17004    19952.904    8.6880365 
    3420    841.66836   -8514.3035   -8420.4141   -458.16761    19943.162    8.7192353 
    3430    815.31668    -8512.166   -8421.2162    284.04167    19933.282    8.7476125 
    3440     824.9834    -8514.032   -8422.0038   -223.45837    19923.993    8.7742996 
    3450    832.61435    -8515.676   -8422.7966   -997.28412    19914.755    8.8005467 
    3460    840.32159   -8517.3597   -8423.6206   -1360.5296    19904.655    8.8271591 
    3470    833.77681   -8517.4833   -8424.4742   -997.22807    19893.304    8.8558849 
    3480    819.62122   -8516.7428   -8425.3128   -391.83317    19881.154    8.8897491 
    3490    835.82411    -8519.383   -8426.1455   -568.62918    19868.845    8.9322464 
    3500    819.50859   -8518.3945   -8426.9771    301.58258    19856.397     8.984683 
    3510    792.40911    -8516.136   -8427.7415    1477.8726    19844.786    9.0429606 
    3520    824.44566   -8520.4293   -8428.4611    1509.6305    19835.272    9.1014602 
    3530    841.71572   -8523.1064   -8429.2117    1269.2246    19827.888     9.158453 
    3540    813.15968   -8520.6759   -8429.9667    1445.9611    19822.373    9.2142059 
    3550    810.75535   -8521.1308   -8430.6899    907.57316    19818.741    9.2698866 
    3560    790.37352    -8519.529   -8431.3616    402.37541     19816.37    9.3239874 
    3570     775.5598   -8518.4722   -8431.9573    10.617782    19814.594    9.3726378 
    3580     808.1422   -8522.6664   -8432.5169   -784.64877     19812.84    9.4170339 
    3590    819.93949   -8524.5658   -8433.1003   -1303.6209    19810.211    9.4596896 
    3600    801.33324   -8523.0941   -8433.7042   -1580.5561    19806.103    9.4996292 
    3610    803.22837   -8523.9129   -8434.3116   -2224.4776    19800.111    9.5362705 
    3620    804.95942   -8524.7162   -8434.9218   -1915.0078    19791.671    9.5706512 
    3630    803.49886   -8525.1591   -8435.5276   -1041.6015    19781.188     9.603948 
    3640    821.70089   -8527.8188   -8436.1568   -810.55762    19769.646    9.6385657 
    3650    814.59341   -8527.7003   -8436.8311   -612.46974    19757.444    9.6807533 
    3660    801.67558   -8526.9451    -8437.517   -772.70452    19744.807    9.7338452 
    3670    806.47318   -8528.1651   -8438.2018   -1245.6682    19731.548    9.7906179 
    3680    802.05146   -8528.3425   -8438.8725   -1294.0263    19717.178    9.8412206 
    3690    814.14465   -8530.3568   -8439.5378   -1305.2778    19701.619    9.8820608 
    3700    802.48043   -8529.7037   -8440.1858   -1352.0585    19684.906     9.917327 
    3710    798.36322   -8529.8604   -8440.8018   -1509.0528    19667.002    9.9515152 
    3720    809.23634   -8531.6758   -8441.4043   -1665.8641    19647.785    9.9888687 
    3730    818.55489   -8533.3421   -8442.0311   -1862.7761    19627.079    10.030945 
    3740    805.22912   -8532.5017   -8442.6772   -1333.8777    19604.795    10.073828 
    3750    794.01218   -8531.8721   -8443.2989    -357.8299    19581.593    10.112874 
    3760    815.92049   -8534.9211    -8443.904   -132.95808    19558.541    10.143918 
    3770    814.85386    -8535.425   -8444.5268   -14.184638    19535.987    10.165641 
    3780    810.06076   -8535.5187   -8445.1552    215.18693    19514.072    10.182646 
    3790    827.79221    -8538.143   -8445.8015    362.44646    19493.038    10.200673 
    3800     827.7468   -8538.8164     -8446.48    1054.0503    19473.104    10.225462 
    3810    836.87309   -8540.5571   -8447.2027    1840.2957    19455.007    10.265607 
    3820    844.49384   -8542.1933   -8447.9887    2235.3196    19439.578    10.327097 
    3830     841.6761   -8542.7228   -8448.8325    2531.9198    19427.243    10.405577 
    3840    838.64078   -8543.2513   -8449.6997     2916.058    19418.273    10.494407 
    3850    843.22801   -8544.6337   -8450.5704    2894.8041    19412.961    10.587911 
    3860    835.82173   -8544.6825   -8451.4454    2365.5651    19411.179    10.679881 
    3870     803.6879   -8541.9107   -8452.2581    1879.6222    19412.277    10.766041 
    3880    800.63286   -8542.2942   -8452.9824    881.74874    19415.513    10.845298 
    3890    807.49807   -8543.7121   -8453.6345    339.98488    19419.772    10.923326 
    3900    808.77232   -8544.4764   -8454.2567   -300.12128    19424.301    11.005737 
    3910    805.52347   -8544.7122   -8454.8549   -1691.7629     19428.27    11.090537 
    3920    818.06214   -8546.7125   -8455.4565    -3452.208    19430.068    11.169373 
    3930    803.55996   -8545.7124   -8456.0741    -4385.934    19427.814    11.234344 
    3940    796.00064   -8545.4774   -8456.6823   -4803.3076    19420.458    11.283909 
    3950    811.01076    -8547.764   -8457.2945   -4972.4986    19407.621    11.322125 
    3960     803.0814   -8547.4999    -8457.915   -4331.5354    19389.321    11.351416 
    3970     805.3675     -8548.37     -8458.53   -3264.2565     19366.42    11.372865 
    3980    822.54602   -8550.9151   -8459.1588   -2043.3679    19340.312    11.389997 
    3990    837.77517   -8553.2886   -8459.8335   -743.17016     19312.53    11.405805 
    4000    849.68663   -8555.3592   -8460.5754    841.41161     19284.69    11.423286 
    4010    840.07063   -8555.0787   -8461.3675    2763.5256     19258.68    11.445121 
    4020    831.12851   -8554.8881   -8462.1744    4264.1706    19236.602     11.47106 
    4030    830.54167    -8555.646   -8462.9978    4964.9722    19220.056    11.503488 
    4040    837.10968   -8557.2307   -8463.8498    4363.4395    19209.639    11.548151 
    4050    832.54652   -8557.6166   -8464.7448    3188.4329    19204.527    11.608947 
    4060    804.91221   -8555.4074   -8465.6182    2597.5868    19203.345    11.687127 
    4070    819.28299    -8557.837   -8466.4447    1641.4837    19205.167    11.779026 
    4080    849.75685   -8562.0476    -8467.256    394.15254    19208.799    11.878812 
    4090     867.9769   -8564.9395   -8468.1154    -554.6998    19212.809    11.983158 
    4100    849.17435    -8563.755   -8469.0284   -737.07349    19216.133    12.084759 
    4110    825.66428   -8562.0331    -8469.929   -630.39062    19218.552    12.182946 
    4120    841.32404   -8564.6631   -8470.8121    -1499.329    19220.072     12.28571 
    4130    841.82681   -8565.6122   -8471.7051   -2501.1707      19219.8    12.390577 
    4140    808.29646   -8562.7329   -8472.5662   -2589.1732    19216.757    12.492533 
    4150    800.47577    -8562.646   -8473.3517   -2859.7022    19210.795    12.589611 
    4160    803.67141   -8563.7323   -8474.0815   -3084.7447     19201.71    12.680863 
    4170    790.69646   -8562.9672   -8474.7638   -1827.6976    19189.502     12.76541 
    4180    795.20611   -8564.0857   -8475.3793    -331.8261    19175.585    12.846559 
    4190    825.90932   -8568.1188   -8475.9873    688.03533    19161.662    12.928545 
    4200    823.16309   -8568.4552   -8476.6301    1874.7553    19149.004    13.010164 
    4210    811.81823   -8567.8591   -8477.2995    2399.2148    19138.838    13.094346 
    4220    795.56402   -8566.7006   -8477.9542    2620.0215    19131.735    13.189824 
    4230    785.71922   -8566.2078   -8478.5597    3142.0782    19127.919    13.294462 
    4240    798.46478   -8568.1975   -8479.1276    3558.8672    19127.827    13.397412 
    4250    804.65018   -8569.4628   -8479.7029    3811.6796    19131.803    13.493583 
    4260    800.69632   -8569.6018    -8480.283    3681.5046    19139.991    13.585993 
    4270    818.85331   -8572.2366   -8480.8923     3328.996    19152.144     13.67733 
    4280    807.71956   -8571.6444    -8481.542     3399.119    19167.805    13.767852 
    4290    799.85801   -8571.4286   -8482.2033    3547.9572    19186.933    13.860776 
    4300     817.6086   -8574.0842   -8482.8787    2919.7625    19209.509    13.961175 
    4310    802.22098   -8573.0566   -8483.5676    2471.5294    19234.829      14.0687 
    4320    777.57119   -8570.9588   -8484.2195    1878.3273    19262.254    14.177834 
    4330    797.32267   -8573.7543   -8484.8117    711.16915    19291.003    14.287872 
    4340    838.92107   -8578.9854   -8485.4025   -780.86625     19319.68    14.403328 
    4350    834.36275   -8579.1307   -8486.0563   -1458.2802    19346.674    14.518849 
    4360       801.82   -8576.2004   -8486.7562   -1149.9328     19371.26    14.626067 
    4370    774.85674   -8573.8451   -8487.4087   -950.14098    19393.726    14.724275 
    4380    785.08833   -8575.5561   -8487.9784   -1618.6293    19414.279    14.811773 
    4390    792.57897   -8576.9049   -8488.4915   -2162.4451    19432.308    14.891621 
    4400    773.75278   -8575.2728   -8488.9595   -2378.5024    19447.266    14.974855 
    4410    788.00851   -8577.2907   -8489.3872   -3106.0554    19458.874     15.06557 
    4420    790.38233   -8577.9708   -8489.8025    -3668.047    19466.458    15.158138 
    4430     775.6061   -8576.7299   -8490.2098   -4265.0952    19469.436     15.24541 
    4440    786.87179   -8578.3925   -8490.6158   -4781.1697    19467.279    15.323269 
    4450    796.33192   -8579.8795   -8491.0475   -5415.8164    19459.473    15.390547 
    4460     803.4626   -8581.1451   -8491.5176   -5553.6761    19445.534    15.445766 
    4470    809.87409   -8582.3698   -8492.0272   -4743.0269    19425.551    15.490962 
    4480    798.84796   -8581.6492   -8492.5365   -2824.2527    19400.681    15.525974 
    4490    804.27721    -8582.732   -8493.0136   -273.69378    19373.363    15.552872 
    4500    806.71021   -8583.4709   -8493.4812    1589.2794    19346.548    15.582987 
    4510    787.69338    -8581.792   -8493.9237    2547.1363    19322.426    15.622316 
    4520    806.43809   -8584.3286   -8494.3692     2342.387    19301.987    15.665469 
    4530    811.80312   -8585.4072   -8494.8493    2095.8562    19284.978    15.705898 
    4540    813.22886   -8586.0996   -8495.3827     2139.146    19271.005    15.742205 
    4550    816.25095   -8587.0144   -8495.9604    2639.6606    19260.058    15.781355 
    4560    806.47184   -8586.5304   -8496.5672    2878.8777    19252.525    15.832164 
    4570    796.08362   -8585.9698   -8497.1655    2715.6168    19248.546    15.893099 
    4580    787.02468   -8585.5136   -8497.7198    2678.5358    19247.881    15.960145 
    4590    792.02219   -8586.5865   -8498.2352    2855.8267    19250.379    16.028049 
    4600    786.65814   -8586.4754   -8498.7225    2955.4472    19256.122    16.088692 
    4610    781.49401   -8586.3489   -8499.1721    2384.9788    19265.073    16.143225 
    4620    805.15824   -8589.3977   -8499.5811    619.44911    19276.399    16.199889 
    4630    829.94164   -8592.5889   -8500.0077   -988.30391    19288.109     16.25875 
    4640    805.33542    -8590.312   -8500.4756   -1383.1451    19298.459    16.316652 
    4650    800.39386   -8590.2432   -8500.9581   -2128.9624    19306.826    16.370472 
    4660    813.57234   -8592.2084   -8501.4532   -2580.0141    19312.484    16.419833 
    4670    814.22641   -8592.8038   -8501.9756   -2510.8493    19314.995    16.470346 
    4680    811.62528   -8593.0625   -8502.5245   -2488.3797    19314.488    16.525826 
    4690    815.94542   -8594.1129    -8503.093   -3016.7021    19311.008    16.581606 
    4700    814.37818   -8594.5356   -8503.6905   -3288.6307    19304.129    16.634011 
    4710     779.7843   -8591.2617   -8504.2756   -2905.9829    19293.668    16.689294 
    4720    772.96358   -8591.0011   -8504.7758   -2188.6582    19280.177    16.749832 
    4730    803.93584   -8594.8901   -8505.2098   -1720.7034    19264.513    16.812847 
    4740    800.94268   -8594.9729   -8505.6265   -668.84029    19247.416    16.872076 
    4750     805.7922   -8595.9161   -8506.0288    88.660696    19230.039    16.925098 
    4760    840.73163   -8600.2472   -8506.4623    561.94887    19213.268    16.974439 
    4770    822.25631   -8598.6744   -8506.9505    1883.5228    19197.778    17.023297 
    4780    795.14942   -8596.1638   -8507.4637    3703.6188    19185.023    17.075366 
    4790    785.73245    -8595.615   -8507.9653    4732.8596    19176.886    17.137869 
    4800    795.81376   -8597.2272    -8508.453    4552.4678    19174.366    17.217875 
    4810    819.21782   -8600.3466   -8508.9616    4030.7691    19177.158    17.317987 
    4820    803.20376   -8599.0916    -8509.493    4225.9568    19184.587    17.441033 
    4830    790.74795   -8598.2096   -8510.0005    4609.5851     19196.68    17.581866 
    4840    812.88897   -8601.1468   -8510.4679     3999.455    19213.607    17.730386 
    4850    810.50378   -8601.3321   -8510.9192    3330.0869    19234.622    17.883022 
    4860    806.89138   -8601.3695   -8511.3596    2275.5437    19258.754    18.042515 
    4870    818.67673   -8603.1336   -8511.8089    727.91016    19284.668    18.206035 
    4880    807.79376   -8602.3702   -8512.2596    -473.4383    19310.582    18.363568 
    4890     813.2143   -8603.4244   -8512.7092   -1191.6741    19335.084    18.508317 
    4900     813.1969   -8603.8799   -8513.1666   -1096.8351    19357.415     18.63769 
    4910    794.72542   -8602.2654   -8513.6126   -1108.8782    19377.675    18.753852 
    4920     822.9769   -8605.8516   -8514.0473    -2517.175    19395.763    18.856152 
    4930    835.27721   -8607.6925   -8514.5161   -3518.8291      19410.3    18.934809 
    4940    823.27489   -8606.8763   -8515.0388   -3177.8881    19420.328    18.987426 
    4950    840.84166   -8609.4144   -8515.6173   -3237.4979    19426.196    19.024486 
    4960    827.34422   -8608.5418   -8516.2503   -2768.5271    19428.096    19.056732 
    4970    798.88517   -8605.9799   -8516.8631   -1625.7749    19426.734    19.088654 
    4980    798.27885   -8606.4803   -8517.4311   -710.50221    19423.466    19.121725 
    4990     770.7159    -8603.892   -8517.9175    575.75832    19419.529    19.159941 
    5000    776.04527   -8604.8819   -8518.3128    1047.4052    19416.301    19.207611 
Loop time of 1874.22 on 16 procs for 3000 steps with 864 atoms

Performance: 0.138 ns/day, 173.539 hours/ns, 1.601 timesteps/s
96.2% CPU use with 16 MPI tasks x 1 OpenMP threads

MPI task timing breakdown:
Section |  min time  |  avg time  |  max time  |%varavg| %total
---------------------------------------------------------------
Pair    | 635.49     | 1158.9     | 1859.1     |1085.7 | 61.83
Bond    | 0.00024152 | 0.00054574 | 0.0013299  |   0.0 |  0.00
Neigh   | 0.026795   | 0.047967   | 0.086193   |   9.1 |  0.00
Comm    | 7.5073     | 483.61     | 1042.6     |1360.9 | 25.80
Output  | 0.17959    | 0.18194    | 0.2155     |   2.0 |  0.01
Modify  | 1.1425     | 231.44     | 752.48     |1542.5 | 12.35
Other   |            | 0.01187    |            |       |  0.00

Nlocal:        54.0000 ave          87 max          32 min
Histogram: 3 2 5 0 0 0 2 1 1 2
Nghost:        512.812 ave         681 max         353 min
Histogram: 2 1 1 4 2 0 2 0 2 2
Neighs:         0.00000 ave           0 max           0 min
Histogram: 16 0 0 0 0 0 0 0 0 0
FullNghs:      2623.25 ave        5742 max         906 min
Histogram: 5 3 2 0 0 0 3 1 0 2

Total # of neighbors = 41972
Ave neighs/atom = 48.578704
Ave special neighs/atom = 0.0000000
Neighbor list builds = 300
Dangerous builds = 300
unfix   2

fix     3 all npt temp 787.5 787.5 $(100.0*dt) aniso 1.01325 1.01325 $(1000.0*dt)
fix     3 all npt temp 787.5 787.5 0.10000000000000000555 aniso 1.01325 1.01325 $(1000.0*dt)
fix     3 all npt temp 787.5 787.5 0.10000000000000000555 aniso 1.01325 1.01325 1
run     20000
Per MPI rank memory allocation (min/avg/max) = 8.899 | 8.909 | 8.922 Mbytes
Step Temp PotEng TotEng Press Volume c_msd[4] 
    5000    776.04527   -8604.8819   -8518.3128    1047.4052    19416.301    19.207611 
    5010    812.16275   -8608.9202   -8518.3222    754.22371    19416.898    19.248415 
    5020    819.93057   -8609.8488   -8518.3844    829.50731    19418.462    19.300891 
    5030    794.00219   -8607.0875   -8518.5154    1154.8025    19421.067    19.363458 
    5040    786.77636   -8606.4416   -8518.6755    722.00349    19424.994    19.437444 
    5050    802.33642   -8608.3525   -8518.8507   -47.347764    19429.771    19.523567 
    5060    805.74189   -8608.9253   -8519.0436   -1014.2875    19434.485    19.619926 
    5070    838.53587   -8612.8513   -8519.3114   -2025.0808    19437.977    19.721085 
    5080    823.38966   -8611.5547   -8519.7043   -1426.0477    19439.224    19.822217 
    5090    790.44827   -8608.3681   -8520.1924    -223.2983    19438.829    19.921396 
    5100    817.18933   -8611.9096   -8520.7509   -269.82833    19438.026    20.019216 
    5110     838.9632   -8615.0235   -8521.4359   -359.00902    19436.905    20.121635 
    5120    814.36205   -8613.1014    -8522.258    677.62696    19435.485    20.238427 
    5130    801.13451   -8612.5014   -8523.1337    1686.8178    19434.881    20.373505 
    5140    815.15363   -8614.9676    -8524.036    1744.4893     19436.19    20.526313 
    5150    796.85884   -8613.7963   -8524.9055    2090.7035    19439.656    20.696384 
    5160    793.03243   -8614.1243   -8525.6604    1754.9122    19445.578    20.882593 
    5170    819.45733   -8617.7236    -8526.312     968.5554    19453.582    21.079598 
    5180    817.79765   -8618.1186   -8526.8921    896.49798    19462.865    21.285376 
    5190    802.40192   -8616.9029   -8527.3938    762.54014    19473.221    21.503004 
    5200    799.74403   -8617.0212   -8527.8085     184.3846    19484.398    21.729044 
    5210     791.4033   -8616.4183   -8528.1361    145.64641    19495.824    21.957547 
    5220    803.53386   -8618.0478   -8528.4124      124.727    19507.362    22.184155 
    5230     795.3366   -8617.3938   -8528.6728     232.2083    19518.992    22.406547 
    5240    784.82792   -8616.4675   -8528.9187    56.451322    19530.799    22.630494 
    5250    810.04892   -8619.5347   -8529.1725   -802.47216    19542.508    22.857968 
    5260    800.21883   -8618.7073   -8529.4417    -1031.156    19553.222    23.083216 
    5270    792.74454   -8618.1434   -8529.7115    -742.2253    19562.623    23.304854 
    5280    791.36714   -8618.2258   -8529.9476    -264.6552    19571.043    23.528255 
    5290    805.55304   -8620.0413   -8530.1806   -81.708315    19579.009     23.75578 
    5300    808.12315   -8620.5987   -8530.4514   -107.32582    19586.767    23.982452 
    5310    804.25175   -8620.4961   -8530.7806   0.77597265    19594.299    24.204383 
    5320    796.31808   -8619.9799   -8531.1495    374.52303    19601.761    24.424617 
    5330    818.47918   -8622.8599   -8531.5573    436.06086    19609.541    24.643966 
    5340    826.09053   -8624.1998   -8532.0481    708.39613     19617.76    24.858928 
    5350    786.12019   -8620.2809    -8532.588    1288.2641    19626.755    25.065862 
    5360    791.17435   -8621.3656   -8533.1089    996.72158    19637.078    25.261897 
    5370     807.6741   -8623.7179   -8533.6206    877.95121    19648.467     25.44922 
    5380    789.79475   -8622.2286   -8534.1258    1453.7889    19660.813    25.639485 
    5390    799.82453   -8623.8318   -8534.6102    1068.2832    19674.574    25.833628 
    5400    812.83965   -8625.7666   -8535.0931    513.86655    19689.358    26.020452 
    5410    814.88273   -8626.5156   -8535.6142    497.13355    19704.538    26.199925 
    5420    810.78163    -8626.631   -8536.1871    480.21278    19720.029     26.37681 
    5430    802.80283   -8626.3413   -8536.7874    235.41546    19735.766    26.552293 
    5440     812.1161   -8627.9864   -8537.3936   -179.79694    19751.457    26.729503 
    5450    813.18266   -8628.7196   -8538.0078   -534.43384     19766.59    26.914628 
    5460    777.63893   -8625.3275   -8538.5808   -393.85982    19780.805    27.113335 
    5470    778.70568   -8625.9225   -8539.0567   -941.45626     19794.13    27.325182 
    5480    790.51653   -8627.6318   -8539.4485   -1379.8068    19805.995    27.533942 
    5490    776.79048   -8626.4444   -8539.7922   -1259.9607    19815.938    27.724831 
    5500    782.80408    -8627.413     -8540.09   -1933.9939    19823.992    27.899577 
    5510    828.18851   -8632.7528   -8540.3671   -2944.8849    19829.402    28.071531 
    5520    831.69449   -8633.4696   -8540.6928   -2899.3544    19831.121    28.246998 
    5530    798.76186   -8630.1592   -8541.0561    -1826.915    19829.312    28.426467 
    5540    808.48011   -8631.6181   -8541.4309   -474.04862    19825.333     28.60639 
    5550    816.06818   -8632.8559   -8541.8222    736.89388    19820.892    28.781002 
    5560    825.19589   -8634.2986   -8542.2468    1178.8517    19817.412    28.947504 
    5570    825.74979   -8634.8315   -8542.7178    830.92661    19815.424    29.102608 
    5580    828.56221   -8635.6765   -8543.2491     50.52048     19814.46    29.242684 
    5590    813.64938   -8634.5944   -8543.8306   -508.26388    19813.601    29.363168 
    5600    777.39274   -8631.1123   -8544.3929   -768.28637    19812.184     29.46282 
    5610    775.18097   -8631.3488   -8544.8762   -1376.9102    19809.826    29.547258 
    5620    816.49934   -8636.3961   -8545.3144   -2410.3812    19805.771    29.618724 
    5630    832.16097   -8638.6192   -8545.7904   -1982.0887    19799.036    29.676157 
    5640    787.77215   -8634.1611   -8546.2839   -374.67837    19790.154    29.738893 
    5650    775.85132   -8633.2669   -8546.7195     103.7665    19780.899    29.829362 
    5660    818.34333   -8638.3894    -8547.102   -809.00778    19771.861    29.943813 
    5670    840.72669   -8641.2996   -8547.5152   -1179.1039    19762.112    30.063212 
    5680    808.07837   -8638.1079   -8547.9656   -492.07365    19751.279    30.174677 
    5690    809.24564   -8638.6904   -8548.4178    48.399743    19740.083    30.273033 
    5700    802.92576   -8638.4368   -8548.8692    824.44998    19729.251     30.35864 
    5710    776.35407   -8635.8894    -8549.286    1199.0895    19719.655     30.43652 
    5720    784.36526   -8637.1447   -8549.6475    643.86647    19711.667    30.511607 
    5730     793.3795   -8638.4655   -8549.9628    35.157693    19704.636    30.584268 
    5740    795.13365   -8638.9563   -8550.2579    56.376713    19697.871    30.651669 
    5750    788.45998   -8638.4947   -8550.5408    489.67686    19691.387    30.711964 
    5760    805.03597   -8640.6349   -8550.8319    632.91548    19685.626    30.763321 
    5770    819.97243   -8642.6394   -8551.1702    282.90528    19680.692    30.802972 
    5780    815.34481     -8642.52   -8551.5671    214.56149    19676.225    30.829625 
    5790    806.98709   -8642.0375   -8552.0168    1076.1526     19672.22      30.8482 
    5800    783.50861   -8639.8638   -8552.4622    2054.0286    19669.633    30.870192 
    5810    811.01504   -8643.3804   -8552.9104    1901.3665    19669.489    30.903001 
    5820    813.88973   -8644.1783   -8553.3877    1171.3182    19671.619    30.944298 
    5830    805.54833   -8643.7655   -8553.9054   -48.463602    19675.098    30.982513 
    5840    807.98395   -8644.5676   -8554.4358   -1496.6867    19678.451    31.005374 
    5850    802.18373   -8644.4318    -8554.947   -2447.9742    19679.968    31.007406 
    5860    805.83392   -8645.3122   -8555.4202   -2255.6156    19678.593    30.991865 
    5870    824.30135    -8647.823   -8555.8709   -1272.4845    19674.578    30.969423 
    5880    841.72498   -8650.2546   -8556.3589   -276.47043    19669.083    30.956306 
    5890      816.738   -8647.9881   -8556.8798    576.48272    19663.367    30.963212 
    5900    826.52402   -8649.6353   -8557.4353    302.65962    19658.319    30.990721 
    5910    820.69385   -8649.5454   -8557.9958     217.0169    19653.768    31.032016 
    5920    793.64798   -8647.0654   -8558.5328    717.58318    19649.643    31.078986 
    5930    782.85781   -8646.3186   -8558.9897    567.83442    19646.368    31.132466 
    5940    780.14493   -8646.3966   -8559.3702    385.67178    19643.863    31.196819 
    5950    768.45532   -8645.4011   -8559.6788    -25.36023    19641.847    31.275734 
    5960    787.43109   -8647.7725   -8559.9334   -934.09958    19639.763    31.373344 
    5970    804.47298   -8649.9086   -8560.1684   -1330.4561    19636.662     31.49117 
    5980    810.95884   -8650.8843   -8560.4207   -1226.3335    19632.059    31.622455 
    5990    820.71081   -8652.2523   -8560.7007   -1398.1905    19625.998     31.75852 
    6000    824.34766   -8652.9968   -8561.0396   -1862.0392    19618.283    31.887483 
    6010    791.97758   -8649.7575   -8561.4112   -1682.6947    19608.525    31.996476 
    6020    804.92088   -8651.5746   -8561.7845   -1803.9885    19596.821    32.082092 
    6030    846.02994   -8656.5929    -8562.217   -1990.2013    19583.063    32.156781 
    6040    823.56903   -8654.6016   -8562.7312   -734.02426    19567.247    32.231672 
    6050    790.71773   -8651.4568    -8563.251    765.78401    19550.796    32.315334 
    6060    787.70183   -8651.6149   -8563.7456    1029.2052    19535.377    32.414746 
    6070    797.73233   -8653.2113    -8564.223     870.8556    19521.363    32.532782 
    6080    810.00444   -8655.0521   -8564.6949    635.07665    19508.586    32.666306 
    6090    841.83916   -8659.1099   -8565.2014   -221.86388    19496.685    32.806738 
    6100    849.69982   -8660.5701   -8565.7848   -696.35008    19484.717    32.939766 
    6110     814.7404   -8657.2983   -8566.4128   -205.57339    19472.164    33.053159 
    6120    798.53276   -8656.0876   -8567.0101    193.60199    19459.491    33.145395 
    6130    817.74393   -8658.7981   -8567.5776    978.55275    19447.262    33.219884 
    6140    816.89447   -8659.2547   -8568.1289    2765.8639    19436.487    33.287449 
    6150    811.75442   -8659.2158   -8568.6634    4709.6484    19429.188    33.358708 
    6160    820.81248   -8660.7625   -8569.1997    5252.1158    19427.476    33.433827 
    6170    822.06571   -8661.4691   -8569.7665    4377.5128    19431.921    33.511711 
    6180    809.88157   -8660.6822   -8570.3387    3103.1237    19441.536     33.58932 
    6190    823.33008    -8662.753   -8570.9093    1434.5547    19454.727    33.659174 
    6200    814.55401   -8662.3342   -8571.4694    232.03517    19469.547    33.719294 
    6210    802.82503   -8661.5504    -8571.994   -1223.8584     19484.44    33.776072 
    6220    834.44807    -8665.581   -8572.4971   -3366.7295    19497.614    33.841485 
    6230    835.53057   -8666.2544   -8573.0497   -3882.2268    19506.784    33.918679 
    6240    799.93128    -8662.862   -8573.6285   -2730.7968    19511.376    33.997978 
    6250     824.6395   -8666.1942   -8574.2044   -2296.8034    19512.533    34.069224 
    6260    827.02133   -8667.0672   -8574.8117   -1621.9155    19510.946    34.133393 
    6270    783.23735   -8662.7784   -8575.4071   -565.17477    19507.485    34.195902 
    6280    785.75967   -8663.5977    -8575.945    -1120.543    19503.198    34.258418 
    6290    798.96098   -8665.5545   -8576.4292   -1966.7592    19497.585    34.320888 
    6300    774.41524   -8663.2315   -8576.8444   -1177.8712    19489.857    34.387601 
    6310     776.6304   -8663.8029   -8577.1686   -253.29629    19480.815     34.46644 
    6320    808.61977   -8667.6655   -8577.4627    177.28091    19471.525    34.558303 
    6330    803.75858   -8667.4382   -8577.7777      798.439    19462.591    34.652237 
    6340    793.75336   -8666.6597   -8578.1153    1671.6547    19454.779    34.745445 
    6350    795.97328   -8667.2538   -8578.4617    2275.6593    19449.049    34.848278 
    6360     815.5396   -8669.8099   -8578.8352     2718.058    19446.113    34.969128 
    6370    828.42034   -8671.6886    -8579.277    3217.7346    19446.497    35.116909 
    6380    823.86619    -8671.714   -8579.8105    3473.6643    19450.715    35.298439 
    6390    821.80579   -8672.0934   -8580.4197    3419.9739    19459.041    35.513092 
    6400    821.91827   -8672.7752   -8581.0889    2687.0045    19471.296    35.756426 
    6410    805.74277   -8671.6623   -8581.7805    1906.8057    19486.632    36.023809 
    6420    791.57019   -8670.7415   -8582.4407    1370.0394    19504.137    36.314292 
    6430    810.45554   -8673.4949   -8583.0873    342.16818    19523.037    36.631295 
    6440    793.39629   -8672.2226   -8583.7181   -157.93034    19542.201     36.97083 
    6450    786.72976   -8672.0666   -8584.3057   -710.93537    19560.923    37.323646 
    6460    825.82382   -8677.0073   -8584.8854   -1707.3824    19578.457    37.690198 
    6470    809.36881   -8675.7755   -8585.4892   -1755.1671     19593.76    38.076288 
    6480    773.01634   -8672.2949   -8586.0637   -1081.5841    19606.774    38.482548 
    6490    792.30181   -8674.9599   -8586.5775   -1364.2589    19618.123    38.910337 
    6500    808.68572   -8677.2307   -8587.0206   -2303.3097    19627.509    39.359175 
    6510     799.0279   -8676.5305   -8587.3977   -2722.9067     19633.94    39.810951 
    6520    763.67735   -8672.8668   -8587.6774   -2093.5195    19637.026    40.232691 
    6530    759.19348   -8672.5245   -8587.8353   -1513.8312    19637.483    40.601275 
    6540    794.37815   -8676.5393   -8587.9252   -1717.2904    19636.002    40.912487 
    6550    806.73842   -8678.0377   -8588.0449   -1916.0816    19632.479    41.165538 
    6560    805.67822   -8678.1157   -8588.2411   -2261.6559    19626.702    41.363258 
    6570    822.29099   -8680.2464   -8588.5186   -2472.7814     19618.34    41.518907 
    6580    811.27545   -8679.3649   -8588.8659   -1770.0194    19607.305    41.649033 
    6590    795.51192    -8677.987   -8589.2464   -376.22466    19594.501    41.766393 
    6600    781.22657   -8676.7596   -8589.6126    1134.9476    19581.605    41.877115 
    6610    772.56952   -8676.1195   -8589.9382     2268.665    19570.395    41.985831 
    6620    789.32339   -8678.2805   -8590.2302    2326.4019    19562.084    42.100103 
    6630    800.75204   -8679.8542   -8590.5291    2082.4599    19556.743    42.220855 
    6640    787.47857   -8678.6818   -8590.8374    2657.9785    19554.153    42.346061 
    6650    802.51532   -8680.6859   -8591.1642    3320.5283     19554.82    42.478513 
    6660    802.06772   -8681.0014   -8591.5296    4710.6806    19559.577    42.623995 
    6670    792.04938   -8680.2906   -8591.9363    5613.1417     19569.89    42.790527 
    6680     807.9082   -8682.5074    -8592.384    4626.6148    19586.579     42.97835 
    6690    808.27196   -8683.0252   -8592.8612    3034.7113    19608.476    43.173368 
    6700    797.26372   -8682.2763   -8593.3404    1938.6973    19633.685    43.358167 
    6710    808.94129   -8684.0554   -8593.8168    964.99786     19660.75    43.527892 
    6720    801.18785   -8683.6745   -8594.3008    286.53532    19688.505    43.695125 
    6730    760.24456   -8679.5393   -8594.7328   -212.58488    19716.097    43.876423 
    6740    768.53657    -8680.797   -8595.0656   -1507.3793     19742.76     44.07358 
    6750    778.61792   -8682.1713   -8595.3153   -2401.7898    19767.084    44.272451 
    6760     772.0497   -8681.6372   -8595.5138   -2551.3256     19788.04    44.455935 
    6770    790.54464   -8683.8724   -8595.6859   -2897.5132     19805.39    44.620886 
    6780    783.97682   -8683.2965   -8595.8427   -2794.2203    19818.867    44.779939 
    6790    781.04446   -8683.1106   -8595.9839   -2454.9815    19828.624    44.946726 
    6800    805.18323   -8685.9309   -8596.1115   -2298.0359    19835.115    45.122522 
    6810    805.71762   -8686.1446   -8596.2656   -1763.7076    19838.679    45.294203 
    6820    762.12771   -8681.4434   -8596.4269   -798.08602    19840.062    45.446635 
    6830     743.9589   -8679.5132   -8596.5234   -702.59879    19840.336    45.570197 
    6840    769.05432   -8682.3275   -8596.5384     -1165.42    19839.684    45.662225 
    6850    787.71702   -8684.3797   -8596.5087   -1462.7273    19837.621    45.728776 
    6860    791.23592   -8684.7502   -8596.4867   -1756.0984    19833.776    45.779551 
    6870    770.87291   -8682.4582   -8596.4661   -1835.6338    19827.849    45.823776 
    6880    772.13098   -8682.5621   -8596.4298   -2110.2282    19819.723    45.868543 
    6890    783.15785    -8683.736   -8596.3736   -2099.8786    19809.166    45.914599 
    6900    792.93441   -8684.7713   -8596.3183   -1339.1269    19796.264    45.963564 
    6910    795.73713   -8685.0454   -8596.2798   -180.56149    19781.934    46.025837 
    6920     780.6869   -8683.3322   -8596.2454    1222.0265    19767.622    46.111564 
    6930    778.04687   -8682.9875   -8596.1952     2291.239    19754.987    46.224882 
    6940    788.34085    -8684.072   -8596.1314    3014.0832    19745.344    46.362881 
    6950    777.37287   -8682.7843   -8596.0671    3401.2243    19739.532     46.52063 
    6960     770.7975   -8681.9762   -8595.9926    3056.3903     19737.92    46.692483 
    6970    802.77252   -8685.4719   -8595.9214    2237.3091    19740.067    46.880416 
    6980    808.10726   -8686.0199   -8595.8743    1098.1703    19744.933    47.095625 
    6990     825.8762   -8688.0015   -8595.8738   -669.90077    19751.025     47.32618 
    7000    814.73012   -8686.8108   -8595.9264   -1769.2347    19756.324    47.543446 
    7010    785.48466   -8683.6392   -8596.0172   -1925.5103    19759.505    47.737359 
    7020    818.10134     -8687.39   -8596.1296   -3002.1531    19760.142    47.911396 
    7030    860.39037   -8692.2988   -8596.3209   -3791.1761    19757.085    48.061367 
    7040    849.01304   -8691.3493   -8596.6406   -2969.1591    19749.563     48.18171 
    7050    838.71638   -8690.6326   -8597.0726   -2167.5483    19738.447    48.276302 
    7060    814.84857   -8688.4524   -8597.5548   -1502.5665    19724.772    48.356113 
    7070    787.37332   -8685.8376   -8598.0049   -339.89802    19709.484    48.428944 
    7080    801.44988   -8687.7921   -8598.3892    470.67874    19693.937    48.499571 
    7090    813.05021   -8689.4323   -8598.7353    1091.9374    19679.166    48.574289 
    7100     812.0571   -8689.6576   -8599.0714    1883.9921    19665.967    48.660975 
    7110    816.02315   -8690.4358   -8599.4072    2131.0875    19655.186    48.767181 
    7120    809.52773   -8690.0341     -8599.73    2199.1519    19647.135    48.891804 
    7130    783.36776   -8687.3857   -8599.9999    2411.2752    19641.893    49.016243 
    7140    781.71506   -8687.4032   -8600.2017    2002.3293    19639.581    49.112524 
    7150    814.38725   -8691.2399   -8600.3937    1817.4359    19639.785    49.162979 
    7160    810.13058    -8691.002   -8600.6308     2577.159    19642.313    49.171765 
    7170    794.87887   -8689.5851   -8600.9152    3703.0505    19648.014    49.159987 
    7180    803.92339   -8690.9038    -8601.225    3983.3135    19658.095    49.152144 
    7190    825.57303   -8693.6564   -8601.5625    3163.9275    19672.831    49.154088 
    7200    837.61985   -8695.4065   -8601.9687    2662.8967    19691.357     49.16397 
    7210    800.59174   -8691.7307   -8602.4235    2477.3377    19713.003     49.18105 
    7220    789.44321   -8690.9284   -8602.8649    1291.7966    19737.352    49.208666 
    7230     811.2778   -8693.7725   -8603.2733   -343.76175    19762.981    49.250003 
    7240    808.32443   -8693.8676   -8603.6978    -1129.332    19788.005    49.304539 
    7250    787.36864   -8691.9578   -8604.1257   -1551.4109    19811.395    49.368776 
    7260    792.89344   -8692.9853   -8604.5369   -2113.2645    19832.586    49.436872 
    7270    790.05217   -8693.0463   -8604.9148   -2905.6665    19850.876    49.503955 
    7280    817.13394   -8696.4474   -8605.2949   -3920.3685    19865.305    49.562017 
    7290    833.51093    -8698.718   -8605.7386   -3805.7162    19874.799    49.597494 
    7300    816.45307   -8697.3366   -8606.2601   -2632.5007    19879.545     49.60976 
    7310    803.21361   -8696.4142   -8606.8145   -1948.1859    19880.895    49.624439 
    7320    803.79161   -8697.0293   -8607.3652   -2325.4965    19879.685    49.674073 
    7330    810.43149   -8698.3247   -8607.9199   -3295.1007    19875.502    49.756298 
    7340    801.05582   -8697.8256   -8608.4666   -3628.5116    19867.335    49.839806 
    7350    806.35124   -8698.9582   -8609.0085    -3653.154    19854.739    49.897796 
    7360    800.41495    -8698.828   -8609.5405   -2778.5012    19837.823    49.926102 
    7370    790.00322   -8698.1641   -8610.0381    -577.0872     19817.84    49.945277 
    7380    772.23652   -8696.6031    -8610.459    1434.4532    19797.382     49.98658 
    7390     776.7298   -8697.4446   -8610.7992    2286.0893    19778.848    50.069564 
    7400    786.01039   -8698.7399   -8611.0592     3353.359    19763.478    50.192727 
    7410     790.2183   -8699.4086   -8611.2585    4405.2145    19752.492    50.347703 
    7420    774.96735   -8697.8744   -8611.4257     4705.672    19747.049    50.529266 
    7430    775.38957   -8698.0632   -8611.5673    3708.1624    19747.357    50.736979 
    7440    806.43286   -8701.6698    -8611.711    1818.7323    19752.156    50.967946 
    7450    789.36573   -8699.9132   -8611.8582    346.81756    19759.196    51.206077 
    7460    786.26473   -8699.7038   -8611.9948   -1042.2601    19766.561    51.428352 
    7470    801.94119   -8701.5895   -8612.1318   -2074.5228    19772.582    51.618263 
    7480    787.08609   -8700.0881   -8612.2875   -1778.8407    19776.112    51.767219 
    7490    790.98033   -8700.6956   -8612.4606   -1177.8761    19777.435    51.869629 
    7500     794.2742   -8701.2527   -8612.6502   -897.32741    19777.265    51.925033 
    7510    784.89241   -8700.4127   -8612.8568   -829.84446    19775.969    51.933681 
    7520    781.88023   -8700.2836   -8613.0637   -791.89868    19773.665    51.901475 
    7530    785.78728   -8700.9069   -8613.2512   -527.36383     19770.46    51.842855 
    7540    800.03404   -8702.6863   -8613.4413   -356.13823    19766.636    51.773711 
    7550      773.257   -8699.9017   -8613.6437    139.58887    19762.478    51.704771 
    7560    732.96952   -8695.5645   -8613.8007    602.49258    19758.552    51.648915 
    7570    753.13126   -8697.8792   -8613.8662   -173.94582     19755.28    51.617434 
    7580    789.19864   -8701.9053    -8613.869   -1035.7302    19751.843    51.603095 
    7590    781.81959   -8701.0705   -8613.8573   -830.31216    19747.283    51.585264 
    7600    779.00299   -8700.7387   -8613.8397   -621.54906     19741.73    51.547734 
    7610    785.10226   -8701.3839   -8613.8045     -475.196     19735.46    51.489735 
    7620    786.65702   -8701.5091   -8613.7564   -312.84268    19728.675    51.428283 
    7630    799.01231   -8702.8355   -8613.7045    -521.0253    19721.554    51.376951 
    7640    816.06044   -8704.7063   -8613.6735   -934.61471    19713.837    51.336858 
    7650    802.38343   -8703.1996   -8613.6925   -908.74404    19705.096     51.30594 
    7660    782.68891   -8701.0675   -8613.7573   -1089.1152    19695.304    51.284448 
    7670    769.14502   -8699.6327   -8613.8334   -1589.6875     19684.25    51.266032 
    7680      771.415   -8699.9474   -8613.8949   -1775.4192    19671.383    51.240389 
    7690    790.86447   -8702.1635   -8613.9414     -1893.95    19656.429    51.200064 
    7700     800.5539   -8703.2901   -8613.9871   -1387.1693    19639.346    51.137719 
    7710    815.78604   -8705.0657   -8614.0635   -287.35483     19620.77    51.048473 
    7720     799.6757   -8703.3977   -8614.1927    2005.8485    19602.176     50.94009 
    7730    756.74652   -8698.7364   -8614.3202    4512.5634    19586.261    50.832921 
    7740    770.37326   -8700.3569   -8614.4206    5148.6782      19575.8    50.748481 
    7750     796.2061    -8703.333    -8614.515    4089.7185    19571.546     50.69722 
    7760    812.55767   -8705.2968   -8614.6548    2759.7136    19572.272    50.672929 
    7770    808.10286   -8705.0108   -8614.8657    2591.7157    19576.472    50.662017 
    7780    776.05102   -8701.7021   -8615.1324    3251.9482    19583.885    50.664268 
    7790    753.97856   -8699.5028   -8615.3953    3055.4569    19595.125     50.68782 
    7800    758.94118   -8700.2735   -8615.6125    1549.0656    19609.874    50.739648 
    7810    742.44912   -8698.5729   -8615.7515   -65.991481     19626.42    50.816127 
    7820    745.49875   -8698.9542   -8615.7927   -2017.6467    19642.714    50.899995 
    7830    772.11326   -8701.8799   -8615.7495   -3341.0885    19656.484     50.97162 
    7840    750.13301   -8699.3295    -8615.651   -3277.3823    19666.216    51.016603 
    7850    750.23564    -8699.181    -8615.491   -2872.9677    19671.893    51.027414 
    7860    791.04101   -8703.4923   -8615.2505   -3010.3722    19673.939    51.013899 
    7870    805.16684    -8704.811   -8614.9935    -3461.428    19672.218    50.999721 
    7880    779.99819   -8701.7677   -8614.7578   -3222.8628    19666.349    50.992714 
    7890    784.16268   -8701.9924   -8614.5179   -2908.1949    19656.561    50.978161 
    7900    800.09767    -8703.505   -8614.2529   -2017.3321     19643.35    50.942428 
    7910    797.44335   -8702.9357   -8613.9797   -390.51857    19627.863    50.892292 
    7920    809.84136   -8704.0648   -8613.7257    728.76903    19611.969    50.842026 
    7930    792.77727   -8701.9292   -8613.4937    1846.1708    19597.105    50.808736 
    7940    798.42566   -8702.3602   -8613.2947    2653.8891    19584.568    50.808602 
    7950    785.51972   -8700.7321   -8613.1062    2841.2335    19575.305    50.850416 
    7960    775.20823   -8699.3777   -8612.9021    2216.2039     19569.52    50.928861 
    7970    810.44369   -8703.0768   -8612.6706    181.17858    19566.312    51.029622 
    7980    807.14277   -8702.4852   -8612.4472   -1009.5004    19563.464    51.130977 
    7990    793.39785    -8700.767   -8612.2623    -1427.514    19559.472    51.210743 
    8000    795.08692   -8700.7792    -8612.086   -1679.3183    19553.766    51.253459 
    8010    822.83518   -8703.7025    -8611.914   -1405.1956    19546.134    51.251652 
    8020    861.71426   -8707.9182   -8611.7926   -494.12451    19536.927    51.218133 
    8030     835.6946   -8705.0054   -8611.7824    1121.4742    19527.281    51.185124 
    8040    808.82467   -8702.1087   -8611.8831    2473.6801    19519.068    51.171909 
    8050    814.03892   -8702.8795   -8612.0723     2775.024    19513.801     51.17444 
    8060    822.25756   -8704.0982   -8612.3741    2486.5234    19511.866    51.178592 
    8070     832.2489   -8705.6438   -8612.8052    1476.0245    19512.882     51.17556 
    8080    854.75984    -8708.766   -8613.4163   -162.17731    19515.599    51.165554 
    8090    833.59719   -8707.1986   -8614.2096   -1074.7685    19518.198    51.152328 
    8100    828.12717   -8707.5176   -8615.1388   -1649.6746    19519.516     51.13464 
    8110    834.33105   -8709.2306   -8616.1597   -1657.4749    19518.889    51.097685 
    8120    827.89402   -8709.5603   -8617.2075   -524.36647    19516.397    51.027877 
    8130    803.43332   -8707.7908   -8618.1666    609.40802    19513.289    50.928303 
    8140    802.68095   -8708.5064   -8618.9662    393.90144    19510.796    50.808499 
    8150    830.85073   -8712.3435   -8619.6609   -734.35599    19508.689    50.675887 
    8160    804.77221   -8710.0442   -8620.2707   -878.80792    19505.833    50.542715 
    8170    801.76563   -8710.2302    -8620.792   -1011.7272    19501.939    50.422517 
    8180     814.2369    -8712.103   -8621.2737   -1069.7566    19496.858    50.317946 
    8190    786.50139    -8709.447   -8621.7116    -20.82593    19490.657     50.21792 
    8200    785.93619   -8709.7716   -8622.0992    579.12908    19484.394    50.115509 
    8210    768.51314   -8708.1484   -8622.4196    1254.3851    19478.883    50.010037 
    8220    768.88628    -8708.436   -8622.6656    1908.3601    19474.946    49.901736 
    8230    804.93076    -8712.661   -8622.8698    1611.4261    19473.238    49.792256 
    8240    805.65975   -8712.9512   -8623.0787    1164.1488    19473.511    49.689389 
    8250    791.94662   -8711.6599    -8623.317    142.55872    19475.129    49.610116 
    8260    794.29344   -8712.1876   -8623.5829   -848.97113    19476.905    49.572864 
    8270    817.17938   -8715.0475   -8623.8899   -1293.9018    19477.717    49.586522 
    8280     825.2298   -8716.3334   -8624.2778   -566.65665    19477.096    49.643258 
    8290    797.36728   -8713.6638   -8624.7163    783.28881    19475.866    49.725772 
    8300    802.22474   -8714.6723    -8625.183    1164.5537    19475.477    49.816618 
    8310    794.23911   -8714.2505   -8625.6519    994.55847    19476.454    49.900324 
    8320    823.55117   -8718.0227   -8626.1543   -181.76589    19478.513    49.969261 
    8330    832.70968   -8719.6236   -8626.7336   -900.69737    19480.408    50.015803 
    8340    809.54242   -8717.6631   -8627.3574    -1174.458    19481.254    50.040697 
    8350    812.20613   -8718.6098    -8628.007   -2275.1614    19480.573    50.062738 
    8360    794.49246   -8717.2669   -8628.6401   -2834.0591    19477.226    50.093047 
    8370      808.673   -8719.4669   -8629.2582   -2543.9132    19470.578     50.12363 
    8380    812.76466   -8720.5355   -8629.8704   -1351.7476    19461.042    50.142079 
    8390    801.02099   -8719.8245   -8630.4694   -692.72556    19449.891    50.142003 
    8400    785.81138   -8718.6818   -8631.0233   -232.07203    19437.988    50.118219 
    8410    777.01524    -8718.181   -8631.5038    412.09659    19425.935    50.069016 
    8420    790.04392   -8720.0516    -8631.921    881.01471    19414.445    50.000946 
    8430    804.38075   -8722.0491   -8632.3192    1732.7364    19404.136    49.932462 
    8440    788.74504   -8720.6957     -8632.71    2779.5922     19396.03    49.891505 
    8450    785.22623   -8720.6864   -8633.0932    2598.4883    19391.191    49.892861 
    8460    791.37864   -8721.7413   -8633.4618     1588.539    19389.396    49.931937 
    8470    794.24437   -8722.4046   -8633.8054    1257.7549    19389.597    49.992586 
[...]
   22890    778.56011    -8793.683   -8706.8334   -284.33894    19245.911    57.675953 
   22900    808.67075   -8796.3967   -8706.1882   -1285.7828    19251.525    57.596059 
   22910     812.0313   -8796.1737   -8705.5904   -2149.8294    19255.597    57.510588 
   22920     788.6326   -8793.0587   -8705.0856   -2116.9483    19257.189    57.410254 
   22930    783.94286   -8792.0888   -8704.6388   -1598.1426    19256.315    57.300889 
   22940      789.734   -8792.3147   -8704.2186    -449.6793    19253.644    57.187429 
   22950    820.50845   -8795.3715   -8703.8426    661.28689    19250.443    57.074001 
   22960    813.16362   -8794.2558   -8703.5462    2576.1125    19248.152    56.968319 
   22970    774.30228   -8789.7039   -8703.3293    4465.2295    19248.909     56.88306 
   22980    781.86567   -8790.3574   -8703.1391    4909.7587    19254.759    56.836984 
   22990    796.73467   -8791.8186   -8702.9417    4264.9485    19266.282    56.838915 
   23000    824.36398   -8794.7409   -8702.7819    2730.1805    19282.699    56.879174 
   23010    811.51087   -8793.1998   -8702.6745    847.73918    19302.237    56.942904 
   23020    807.17549   -8792.6562   -8702.6146   -1401.6963    19322.647    57.017578 
   23030    802.76777   -8792.1297   -8702.5798   -3253.0229    19341.342    57.087752 
   23040    794.07335   -8791.1481    -8702.568   -4819.9029    19356.072    57.141186 
   23050    821.23454   -8794.2114   -8702.6015   -5865.8498    19365.036    57.168872 
   23060    809.74555   -8793.0455   -8702.7172    -5091.414    19367.184    57.165614 
   23070    782.90139   -8790.2294   -8702.8956   -3320.8554    19363.348    57.137757 
   23080    782.97328   -8790.4192   -8703.0773   -1593.6729    19355.574    57.098127 
   23090    791.11632   -8791.4925   -8703.2423    46.948367    19345.962    57.060236 
   23100    807.73445   -8793.5348   -8703.4308    1362.1409    19336.432    57.032639 
   23110    765.92897   -8789.0782   -8703.6377    2677.7623    19328.594    57.019573 
   23120    764.45913   -8789.0999   -8703.8233     3140.198    19323.894    57.032915 
   23130    810.58656   -8794.4313   -8704.0091    2295.5146    19322.795    57.079754 
   23140    789.85389   -8792.3408   -8704.2314     1559.849    19324.471    57.150207 
   23150    778.89533   -8791.3807   -8704.4937   -20.601825     19327.88    57.231932 
   23160     773.7028   -8791.0597    -8704.752   -1669.8792    19331.276     57.31486 
   23170    778.83218   -8791.8859    -8705.006   -2883.5007     19332.73    57.385377 
   23180    802.80799   -8794.8611   -8705.3067   -3365.2359    19330.815    57.426123 
   23190    803.43535   -8795.3298   -8705.7054   -2787.3275    19325.025    57.433539 
   23200    806.88551   -8796.2463    -8706.237    -2195.674    19315.923    57.418656 
   23210    797.32242   -8795.8546   -8706.9121   -1690.6657    19304.227    57.392498 
   23220    770.95103   -8793.6867   -8707.6859   -844.16537    19290.629    57.354931 
   23230    775.09771   -8794.9755   -8708.5122   -845.72968    19275.954    57.292859 
   23240    778.85741   -8796.2627     -8709.38   -405.54979     19260.35    57.201821 
   23250    764.79458   -8795.5214   -8710.2074    910.15903      19244.4    57.098176 
   23260     778.8476   -8797.8494   -8710.9678    1846.9772    19229.511    56.998973 
   23270    766.19928   -8797.1102   -8711.6395     2671.209    19216.825    56.911978 
   23280    751.85068   -8796.0472   -8712.1771    3069.3423     19207.26    56.839197 
   23290    764.30829   -8797.8543   -8712.5946    3399.6047    19201.333    56.781056 
   23300    740.28498   -8795.4703   -8712.8904    4056.4178    19199.471    56.748659 
   23310    739.11112   -8795.5206   -8713.0716    3892.7314    19202.279     56.75794 
   23320    742.62726   -8795.9859   -8713.1447    3417.5461    19209.663     56.81124 
   23330    739.94197    -8795.666   -8713.1243    1651.6302    19220.925    56.897815 
   23340    735.40267   -8795.0298   -8712.9945   -784.08993     19234.11    56.997685 
   23350    753.98369   -8796.8707   -8712.7627   -3617.1918    19246.344    57.084996 
   23360    770.29177   -8798.3983   -8712.4711    -5443.144    19254.421     57.14355 
   23370    765.43892   -8797.5584   -8712.1725    -5583.037     19256.24    57.172372 
   23380    783.98521   -8799.3441   -8711.8894   -4634.2856    19251.553    57.179852 
   23390      760.091   -8796.3919   -8711.6026   -1971.2347     19241.58    57.180138 
   23400    751.96393   -8795.1604   -8711.2777    137.00714    19229.218    57.180685 
   23410    779.86121   -8797.8983   -8710.9036     354.9406    19216.806    57.173938 
   23420    762.65352   -8795.5906   -8710.5155    366.60648    19204.802    57.142375 
   23430    768.53043   -8795.8602   -8710.1294    236.96464    19193.217    57.071525 
   23440    799.90632   -8798.9751   -8709.7444     -146.812    19181.849    56.966389 
   23450      794.226   -8798.0012   -8709.4041    33.120589    19170.353     56.84293 
   23460      798.743   -8798.2221   -8709.1211   -10.435818    19158.848    56.718989 
   23470    802.37189   -8798.3864   -8708.8806    83.750456    19147.342    56.603997 
   23480    784.53333   -8796.1897   -8708.6738    640.18364    19135.961    56.492931 
   23490    777.82334   -8795.2469   -8708.4795     1025.624    19125.261    56.389615 
   23500     786.5201   -8796.0279   -8708.2904     1223.241    19115.704    56.306517 
   23510    792.34582      -8796.5   -8708.1126    1904.7829    19107.611    56.251007 
   23520    783.38325     -8795.34   -8707.9524    3156.2653    19101.771    56.220401 
   23530    767.13348   -8793.3477   -8707.7728    4112.4862    19099.581    56.206207 
   23540     787.8017   -8795.4478   -8707.5673    3081.8674    19101.957    56.203811 
   23550     787.8884   -8795.2465   -8707.3563    1645.9338    19107.898    56.206964 
   23560    797.49289   -8796.1287   -8707.1671    271.49065    19115.795    56.199825 
   23570      804.118   -8796.7087   -8707.0081   -879.54436    19124.072    56.166108 
   23580    774.43051   -8793.2599    -8706.871   -652.67052    19131.485    56.114575 
   23590    757.30361   -8791.2031   -8706.7248    239.63146    19138.218    56.075824 
   23600    781.00456   -8793.6541   -8706.5319    172.43755    19145.162    56.078224 
   23610    821.30218   -8797.9454    -8706.328   -607.67289    19152.262    56.130946 
   23620    793.08943   -8794.6384   -8706.1681     -501.197    19158.796    56.207098 
   23630    779.70368   -8793.0141    -8706.037   -832.22614    19164.722     56.27361 
   23640    812.21766   -8796.5089   -8705.9048   -2199.0075    19169.584    56.312361 
   23650    795.86914   -8794.5765   -8705.7961    -2284.861    19172.049    56.327025 
   23660    790.49991   -8793.9007   -8705.7193   -1666.6145    19171.895    56.334825 
   23670    812.00442   -8796.2419   -8705.6616   -526.29553    19169.864    56.341417 
   23680    802.36917   -8795.1434   -8705.6379    655.32237     19167.18     56.35396 
   23690    803.32459   -8795.2782   -8705.6661    2112.6079    19165.295    56.383164 
   23700    780.06687   -8792.7443   -8705.7267    3795.0373     19165.92    56.435632 
   23710    785.30719   -8793.4135   -8705.8113    4756.5952    19170.955    56.526093 
   23720    804.68517   -8795.6898   -8705.9259    4191.2859     19181.47     56.67132 
   23730    768.85081    -8791.829   -8706.0625    3321.2078    19197.002    56.867171 
   23740    772.71843   -8792.4001   -8706.2022    1393.5208    19216.429     57.09614 
   23750    772.69542   -8792.5012   -8706.3059   -400.66529    19237.645     57.33908 
   23760    773.36578   -8792.6505   -8706.3804   -1552.1581     19258.58    57.588148 
   23770    788.17783   -8794.3581   -8706.4357    -2359.994    19277.825    57.840461 
   23780    783.32281   -8793.8643   -8706.4834   -2824.2916    19294.409    58.084264 
   23790    767.52325   -8792.1325   -8706.5142   -3329.6246    19307.688    58.303852 
   23800    758.04284    -8791.069   -8706.5082   -3520.3896    19317.102     58.48135 
   23810    768.49653   -8792.1894   -8706.4625   -3545.2783     19322.37    58.607767 
   23820     776.6898   -8793.0256   -8706.3847   -2943.2068    19323.497    58.703434 
   23830     777.1361   -8792.9711   -8706.2804   -1560.5449    19321.207    58.793005 
   23840    787.18441    -8793.957   -8706.1454   -682.77446    19316.993     58.88348 
   23850    803.33261   -8795.6157   -8706.0027   -614.14168    19311.875    58.967984 
   23860    792.67872   -8794.3002   -8705.8757   -830.16196    19305.975     59.03131 
   23870    787.40878   -8793.5983   -8705.7616    -1089.587    19299.079    59.058248 
   23880    813.80342   -8796.4379   -8705.6569   -1484.7359    19290.846    59.051884 
   23890    800.75387   -8794.9149   -8705.5896   -626.07203    19280.964    59.020194 
   23900    786.43103    -8793.278   -8705.5504    599.73836    19270.356    58.968809 
   23910     799.0356   -8794.6602   -8705.5266    1317.4149    19260.374    58.902165 
   23920    774.40667   -8791.8912    -8705.505    2746.1117    19252.005    58.828928 
   23930    771.03658   -8791.4768   -8705.4665    4297.1886    19246.866    58.758427 
   23940    805.76659   -8795.3004   -8705.4159    5281.0281    19246.717    58.688998 
   23950    811.36326   -8795.9184   -8705.4096    6580.0243    19252.888    58.612823 
   23960    790.35757   -8793.6449   -8705.4793    7069.4901    19266.833    58.533839 
   23970    810.26534   -8795.9896   -8705.6033    4924.7651    19288.948    58.476076 
   23980     800.9949   -8795.0816   -8705.7294    2158.7862    19317.015    58.466134 
   23990    763.04429   -8790.9319   -8705.8132   -84.540646    19347.844    58.510134 
   24000    762.77493   -8790.9035   -8705.8148   -2260.2211    19378.691    58.598687 
   24010    786.24705   -8793.4458   -8705.7388   -4759.4814    19406.882    58.711015 
   24020    799.95642   -8794.8877   -8705.6514   -6474.9035    19429.516     58.81887 
   24030     793.0325   -8794.0847   -8705.6208   -6705.5239    19444.549    58.906443 
   24040     768.4749   -8791.3617   -8705.6372   -5808.4784    19451.647    58.974507 
   24050     784.0385   -8793.1229   -8705.6622   -5552.1734    19451.646    59.033381 
   24060    802.26462   -8795.1856   -8705.6918   -5084.6712    19444.969    59.089212 
   24070     810.0852   -8796.1328   -8705.7666   -3742.0395    19432.248    59.144983 
   24080    817.16197   -8797.0576    -8705.902   -2585.5233    19414.965    59.200545 
   24090    813.79547   -8796.8939   -8706.1138   -927.87922    19394.633    59.250911 
   24100    780.13573   -8793.3931   -8706.3678    1402.1002    19373.272    59.300216 
   24110    771.74135   -8792.6984   -8706.6095    3330.0227    19353.566     59.37237 
   24120    778.48333   -8793.6594   -8706.8185    4803.2525    19337.827    59.491968 
   24130    785.39862   -8794.6088   -8706.9964    5435.0292    19327.761    59.663636 
   24140    830.26856   -8799.8437    -8707.226    4339.0444    19323.994    59.885206 
   24150    799.33995   -8796.7173   -8707.5497    3857.2171    19325.497     60.14446 
   24160    745.82081   -8791.0861   -8707.8886    3541.5219    19331.613    60.411764 
   24170    774.61374   -8794.5856   -8708.1763    1794.1678    19341.784    60.669685 
   24180    788.85718   -8796.4295   -8708.4313   -624.30904    19353.988    60.924059 
   24190    782.31057   -8795.9471   -8708.6791   -2500.3247     19365.46    61.171926 
   24200    785.21502   -8796.5367   -8708.9448   -3406.5984    19373.998    61.400256 
   24210    755.25149   -8793.4707   -8709.2213   -3436.9566    19378.518    61.586725 
   24220    754.29955   -8793.6328   -8709.4895   -3717.0117    19378.874    61.701402 
   24230    764.05507   -8794.9607   -8709.7292   -3887.1258    19374.814    61.726875 
   24240    774.09954   -8796.3039   -8709.9519   -3379.6167    19366.196    61.670955 
   24250    770.01331   -8796.0482    -8710.152   -1481.0007    19353.741    61.559038 
   24260    771.08582   -8796.3278    -8710.312    1122.4617    19339.625    61.418224 
   24270    782.12684   -8797.6847   -8710.4373    3897.3218    19326.938    61.275062 
   24280    779.41843   -8797.5003    -8710.555    5424.6986      19318.8    61.150768 
   24290    784.23865   -8798.1813   -8710.6983    5531.6446    19316.981    61.055104 
   24300    778.99453   -8797.7495   -8710.8515    5477.3426    19321.756    60.997998 
   24310    794.61645    -8799.655   -8711.0144     4787.166    19332.943    60.975224 
   24320    795.89866   -8799.9942   -8711.2105    4248.9257    19349.819    60.976732 
   24330    776.84064   -8798.1069   -8711.4491    3717.8941    19371.747    61.012142 
   24340    778.24778   -8798.5209   -8711.7062    2034.7982    19397.923    61.085507 
   24350    763.00116   -8797.0471   -8711.9332     294.7879    19426.465    61.180711 
   24360    767.72212   -8797.7567   -8712.1162   -1348.3871    19455.292    61.274883 
   24370    769.86664   -8798.1343   -8712.2545   -2520.9938    19482.453    61.342053 
   24380     753.9916   -8796.4594   -8712.3505   -3184.4615    19506.546      61.3688 
   24390    754.66091   -8796.5737   -8712.3901   -4200.3607    19526.628    61.360162 
   24400    769.48002   -8798.2086    -8712.372   -4696.6262    19541.596     61.32813 
   24410    770.88208   -8798.3224   -8712.3293   -4367.0893    19550.884    61.281189 
   24420    749.17154   -8795.8225   -8712.2513   -3491.0731    19554.876    61.228368 
   24430    774.26605   -8798.4809   -8712.1103    -3026.631    19554.538    61.183635 
   24440    794.61856   -8800.5622   -8711.9213   -2518.1783    19550.527    61.155007 
   24450    772.00662   -8797.8324   -8711.7139   -1251.6571    19543.573    61.138555 
   24460    768.81086   -8797.2321   -8711.4701   -61.818094    19535.116    61.133069 
   24470    747.48915   -8794.5183   -8711.1347    707.50685    19526.593    61.130746 
   24480    767.70759   -8796.3358   -8710.6969    508.35724    19518.846    61.115243 
   24490    793.04843   -8798.6302   -8710.1645    106.65567     19511.72    61.083899 
   24500    771.02814   -8795.6021   -8709.5928    438.73409    19504.866    61.047522 
   24510     789.8579    -8797.109   -8708.9992    87.853595    19498.497    61.019931 
   24520    799.20668   -8797.5402   -8708.3875    194.19042    19492.302     61.00695 
   24530    776.49221   -8794.4219   -8707.8031    1171.9807    19486.456    61.009872 
   24540    768.34476   -8792.9393   -8707.2293    1746.6376        19482     61.03583 
   24550    770.47033   -8792.5906   -8706.6435    1783.4506     19479.63    61.093205 
   24560    799.15678    -8795.208   -8706.0608    1030.3677    19479.339    61.180264 
   24570    817.35942   -8796.7094   -8705.5317    625.03665    19480.352    61.283218 
   24580    805.81485   -8794.9968   -8705.1069      1030.63    19482.201      61.3876 
   24590    771.23151    -8790.784    -8704.752    1847.0316     19485.38    61.487297 
   24600    789.40455   -8792.4762   -8704.4169    1181.7551    19490.634    61.582429 
   24610    824.25552   -8796.0556   -8704.1087   -178.39832    19497.254     61.68141 
   24620    809.98446   -8794.2265   -8703.8716   -721.79383    19503.777    61.795624 
   24630    804.60923   -8793.4561   -8703.7007   -1104.7903    19509.447    61.917099 
   24640     801.9995   -8793.0362   -8703.5719   -1425.8892      19513.8    62.017554 
   24650    790.96365   -8791.7196   -8703.4864   -1320.6752    19516.472    62.074321 
   24660    790.90012   -8791.6602   -8703.4341    -906.7224    19517.565    62.080931 
   24670    780.52885   -8790.4512    -8703.382   -420.14934    19517.564    62.039888 
   24680    800.42697   -8792.6107   -8703.3218   -418.96742    19516.994    61.961334 
   24690     822.1383   -8794.9953   -8703.2845   -537.80067    19515.887    61.867008 
   24700    813.84116    -8794.098   -8703.3128   -406.41645    19514.175     61.77845 
   24710    813.38995   -8794.1504   -8703.4155    -886.2462    19511.906    61.697788 
   24720    800.22063    -8792.831   -8703.5652   -1294.1458    19508.581    61.611756 
   24730    823.05988    -8795.587   -8703.7734   -1689.9779     19503.67    61.506916 
   24740    813.26535   -8794.7901   -8704.0691   -783.63899    19496.853    61.386415 
   24750    766.86777   -8789.9355   -8704.3902    1100.1057    19489.207     61.27016 
   24760    804.10681   -8794.4181   -8704.7187     1554.966    19482.717    61.171109 
   24770    808.32155   -8795.2675   -8705.0981    2162.7484    19478.162    61.098836 
   24780    782.79798   -8792.8581   -8705.5358    2308.3698    19476.178    61.064392 
   24790    796.47385   -8794.8637   -8706.0159    1063.3891    19476.833    61.072277 
   24800     789.2396   -8794.5745   -8706.5337     243.7173    19478.845    61.116373 
   24810    762.54587   -8792.1145   -8707.0513   -165.39086    19481.229    61.178478 
   24820     761.0209   -8792.4292   -8707.5362   -2049.7779    19483.243     61.23635 
   24830    757.59369   -8792.4848    -8707.974   -4134.7462    19482.774      61.2703 
   24840    763.54952    -8793.554   -8708.3789   -5539.5594    19477.363    61.270495 
   24850    772.78632   -8794.9771   -8708.7716   -5588.9559    19465.392    61.235524 
   24860    774.12752   -8795.5079   -8709.1528   -4697.4005     19446.71    61.165491 
   24870    768.13666   -8795.1863   -8709.4995   -2937.7681    19422.426    61.065095 
   24880    771.48237   -8795.8574   -8709.7974    -1267.454    19394.584    60.953243 
   24890    777.86657   -8796.8416   -8710.0694    211.51735     19365.21    60.845925 
   24900    766.82897   -8795.8614   -8710.3205    1053.7592    19336.026    60.739495 
   24910    773.72778   -8796.8628   -8710.5523    1281.4093    19308.045    60.615334 
   24920    798.50747   -8799.8742   -8710.7995    1420.0356    19281.573    60.463058 
   24930    792.26197   -8799.4721   -8711.0941    1838.4142    19256.851    60.289718 
   24940    779.64218   -8798.4313    -8711.461    2184.0854    19234.315    60.106427 
   24950    770.04596   -8797.7957   -8711.8959    2879.9518    19214.431    59.922066 
   24960    769.37395   -8798.2409   -8712.4161    3591.1242    19197.963    59.746797 
   24970    753.72803   -8797.1061   -8713.0266     4364.884    19185.759    59.587491 
   24980    740.18708   -8796.2579   -8713.6889    3991.4005    19178.587     59.44891 
   24990    764.20529   -8799.6486   -8714.4003    1941.3181    19175.924    59.325111 
   25000    765.77935   -8800.5969   -8715.1731    281.58359    19175.597    59.196796 
Loop time of 13379.4 on 16 procs for 20000 steps with 864 atoms

Performance: 0.129 ns/day, 185.825 hours/ns, 1.495 timesteps/s
95.9% CPU use with 16 MPI tasks x 1 OpenMP threads

MPI task timing breakdown:
Section |  min time  |  avg time  |  max time  |%varavg| %total
---------------------------------------------------------------
Pair    | 3085.5     | 6908.7     | 13315      |4415.4 | 51.64
Bond    | 0.0020072  | 0.0033816  | 0.0070486  |   2.6 |  0.00
Neigh   | 0.1542     | 0.34506    | 0.69254    |  32.7 |  0.00
Comm    | 58.948     | 4608.4     | 9085.2     |4647.0 | 34.44
Output  | 1.2295     | 1.2455     | 1.4677     |   5.1 |  0.01
Modify  | 3.5662     | 1860.7     | 6947.6     |5279.6 | 13.91
Other   |            | 0.07773    |            |       |  0.00

Nlocal:        54.0000 ave          92 max          26 min
Histogram: 4 1 4 0 1 1 1 1 0 3
Nghost:        524.000 ave         738 max         339 min
Histogram: 3 3 0 1 1 2 2 0 2 2
Neighs:         0.00000 ave           0 max           0 min
Histogram: 16 0 0 0 0 0 0 0 0 0
FullNghs:      2771.25 ave        6393 max         658 min
Histogram: 4 4 1 1 0 2 0 1 1 2

Total # of neighbors = 44340
Ave neighs/atom = 51.319444
Ave special neighs/atom = 0.0000000
Neighbor list builds = 2000
Dangerous builds = 2000
unfix   3
                
Total wall time: 4:33:20
