LAMMPS (29 Sep 2021 - Update 3)
OMP_NUM_THREADS environment is not set. Defaulting to 1 thread. (src/comm.cpp:98)
  using 1 OpenMP thread(s) per MPI task
units	metal
atom_style	full

read_data	mixed.data
Reading data file ...
  orthogonal box = (0.0000000 0.0000000 0.0000000) to (15.969932 15.719106 81.083077)
  2 by 1 by 8 MPI processor grid
  reading atoms ...
  864 atoms
Finding 1-2 1-3 1-4 neighbors ...
  special bond factors lj:    0        0        0       
  special bond factors coul:  0        0        0       
     0 = max # of 1-2 neighbors
     0 = max # of 1-3 neighbors
     0 = max # of 1-4 neighbors
     1 = max # of special neighbors
  special bonds CPU = 0.001 seconds
  read_data CPU = 0.031 seconds

pair_style	quip
pair_coeff	* * /ocean/projects/cts180021p/wuziqi/clease/mint-PD/PhaseDiagram-Clease/Liquid/GAP_potential/gap_LiKCl.xml "Potential xml_label=GAP_2021_9_27_0_1_17_37_618" 17 19 3

neighbor	0.3 bin
neigh_modify	delay 10

timestep	0.001
compute	msd all msd
thermo_style	custom step temp pe etotal press vol c_msd[4]
thermo	10
dump	1 all custom 10 xyz-mix.dump type id x y z
dump	2 all custom 10 force-mix.dump type id fx fy fz

fix     1 all nve
run     2000
Neighbor list info ...
  update every 1 steps, delay 10 steps, check yes
  max neighbors/atom: 2000, page size: 100000
  master list distance cutoff = 6.22
  ghost atom cutoff = 6.22
  binsize = 3.11, bins = 6 6 27
  1 neighbor lists, perpetual/occasional/extra = 1 0 0
  (1) pair quip, perpetual
      attributes: full, newton on
      pair build: full/bin
      stencil: full/bin/3d
      bin: standard
Per MPI rank memory allocation (min/avg/max) = 8.888 | 8.903 | 8.913 Mbytes
Step Temp PotEng TotEng Press Volume c_msd[4] 
       0            0   -6930.8241   -6930.8241   -4495.9065    20354.533            0 
      10    65.904237   -6938.1841   -6930.8324   -5379.5912    20354.533 0.0005000384 
      20    168.73131   -6949.6632    -6930.841   -6364.5261    20354.533 0.0061479459 
      30    200.57733   -6953.2127    -6930.838   -5696.6671    20354.533  0.020662009 
      40    199.55606   -6953.0935   -6930.8327   -4580.1506    20354.533   0.03833664 
      50    226.88579   -6956.1474   -6930.8379   -4419.7801    20354.533  0.051806208 
      60    238.47957   -6957.4392   -6930.8365   -4645.7272    20354.533  0.061424452 
      70    236.06355   -6957.1692   -6930.8359    -4807.043    20354.533  0.069853138 
      80    232.99362   -6956.8259   -6930.8351    -5036.908    20354.533  0.079308594 
      90    234.23747   -6956.9654   -6930.8358   -5260.6038    20354.533  0.090830495 
     100    232.00556   -6956.7159   -6930.8353   -5208.0306    20354.533   0.10432197 
     110    232.79067   -6956.8033   -6930.8352   -5031.3164    20354.533   0.11840709 
     120    238.30149    -6957.419   -6930.8361   -4942.2097    20354.533   0.13201584 
     130    238.74514   -6957.4687   -6930.8363   -4988.8033    20354.533   0.14538478 
     140    232.54984   -6956.7771   -6930.8358   -4942.4536    20354.533   0.15867927 
     150    225.40044   -6955.9792   -6930.8355   -4787.8719    20354.533   0.17110203 
     160    224.38726   -6955.8659   -6930.8352   -4620.0724    20354.533    0.1817825 
     170    231.86358   -6956.7009   -6930.8362   -4442.3359    20354.533   0.19072597 
     180    237.58036   -6957.3391   -6930.8366   -4192.2572    20354.533   0.19889867 
     190    235.69365   -6957.1279    -6930.836   -3927.7806    20354.533   0.20710191 
     200    234.44619   -6956.9885   -6930.8356   -3773.8119    20354.533   0.21513007 
     210    236.73114   -6957.2437    -6930.836   -3777.5502    20354.533   0.22305549 
     220    238.14425   -6957.4012   -6930.8359   -3899.9101    20354.533    0.2315521 
     230     238.4388   -6957.4341   -6930.8359   -4006.5782    20354.533   0.24098695 
     240    239.23886    -6957.523   -6930.8356   -3984.7528    20354.533   0.25141959 
     250     242.0724   -6957.8401   -6930.8366   -3793.3442    20354.533   0.26265129 
     260       239.05   -6957.5024    -6930.836   -3540.3897    20354.533   0.27417391 
     270    235.84511    -6957.145   -6930.8361   -3272.6541    20354.533   0.28493922 
     280    231.62838   -6956.6748   -6930.8363   -2948.2435    20354.533   0.29437431 
     290    226.51317   -6956.1028    -6930.835   -2633.8875    20354.533   0.30220439 
     300    232.88912   -6956.8151    -6930.836   -2478.1682    20354.533   0.30835486 
     310    239.65399   -6957.5709   -6930.8371   -2317.7128    20354.533   0.31386348 
     320    236.98534   -6957.2718   -6930.8357   -2020.1819    20354.533   0.31985126 
     330    235.73864   -6957.1329   -6930.8359   -1957.4113    20354.533   0.32664959 
     340    236.09186   -6957.1723   -6930.8359   -2003.6376    20354.533   0.33435107 
     350    237.19352   -6957.2955   -6930.8363   -2145.8328    20354.533   0.34289663 
     360     235.6501   -6957.1226   -6930.8355   -2186.0282    20354.533   0.35153924 
     370      237.245   -6957.3009   -6930.8359   -2246.4379    20354.533   0.35886165 
     380     239.0727   -6957.5047   -6930.8358   -2396.5837    20354.533   0.36451066 
     390    241.64207   -6957.7913   -6930.8358   -2701.0958    20354.533   0.36907283 
     400    244.68963   -6958.1321   -6930.8366    -3058.184    20354.533   0.37340775 
     410    240.84575   -6957.7024   -6930.8357   -3233.9135    20354.533   0.37836011 
     420    237.91038    -6957.375   -6930.8357   -3296.1667    20354.533    0.3837999 
     430    237.53548   -6957.3335    -6930.836     -3297.92    20354.533   0.38923076 
     440    236.65311   -6957.2351   -6930.8361   -3132.9159    20354.533   0.39408345 
     450    236.54722   -6957.2227   -6930.8355   -2838.3736    20354.533   0.39819744 
     460    240.22636   -6957.6339   -6930.8363   -2750.9298    20354.533   0.40204023 
     470    240.52465   -6957.6669    -6930.836   -2995.4918    20354.533   0.40599969 
     480    237.66852   -6957.3482   -6930.8359   -3342.9489    20354.533   0.40967234 
     490     233.8587   -6956.9231   -6930.8358   -3484.3142    20354.533   0.41268728 
     500    232.08796   -6956.7258   -6930.8361   -3205.4816    20354.533   0.41521326 
     510    230.70203   -6956.5715   -6930.8364   -2716.5526    20354.533   0.41731564 
     520    228.05602   -6956.2759   -6930.8359   -2363.5724    20354.533   0.41870774 
     530    227.97164    -6956.267   -6930.8365   -2215.6832    20354.533   0.41939371 
     540    224.82248   -6955.9152   -6930.8359   -2142.5726    20354.533   0.41965215 
     550    224.12424   -6955.8368   -6930.8354   -2230.4398    20354.533   0.41896539 
     560    230.14975   -6956.5094   -6930.8358   -2549.6413    20354.533   0.41694428 
     570    236.18881   -6957.1833   -6930.8361   -2919.3179    20354.533   0.41431605 
     580    239.11248   -6957.5092   -6930.8358   -3311.7801    20354.533   0.41218239 
     590    240.41038    -6957.654   -6930.8359   -3417.9605    20354.533   0.41128732 
     600     241.9108   -6957.8213   -6930.8358   -3319.9933    20354.533   0.41181297 
     610    244.71998   -6958.1355   -6930.8366   -3218.6172    20354.533   0.41378595 
     620     241.0794   -6957.7291   -6930.8363   -3147.9995    20354.533   0.41727735 
     630    235.50013   -6957.1059   -6930.8355   -3135.0665    20354.533   0.42154918 
     640    235.11112   -6957.0634   -6930.8364   -3257.6948    20354.533   0.42544554 
     650    231.17765   -6956.6238   -6930.8356   -3363.2824    20354.533   0.42831027 
     660    230.96587      -6956.6   -6930.8354    -3278.616    20354.533   0.42962018 
     670    236.71051   -6957.2418   -6930.8364   -3057.6575    20354.533   0.43008462 
     680    237.89077   -6957.3735   -6930.8365   -2729.6334    20354.533   0.43147958 
     690    233.77068   -6956.9134    -6930.836   -2455.8007    20354.533   0.43467882 
     700    232.73214   -6956.7972   -6930.8356   -2458.1317    20354.533   0.43896836 
     710     238.6713   -6957.4612    -6930.837     -2772.14    20354.533   0.44306523 
     720    238.40713   -6957.4307    -6930.836    -2807.083    20354.533   0.44626276 
     730     240.4682   -6957.6606    -6930.836   -2649.5036    20354.533   0.44805059 
     740    245.36669   -6958.2082   -6930.8372   -2598.8991    20354.533   0.44927166 
     750    241.62154   -6957.7892    -6930.836   -2531.0184    20354.533   0.45180545 
     760    240.83361   -6957.7015   -6930.8361   -2663.8574    20354.533   0.45609454 
     770    242.81641   -6957.9232   -6930.8366   -2904.7405    20354.533   0.46149917 
     780    240.55873   -6957.6716   -6930.8369   -3011.4883    20354.533   0.46731331 
     790    234.48344    -6956.992    -6930.835   -2984.9723    20354.533   0.47270083 
     800    241.36903   -6957.7616   -6930.8365   -3043.6074    20354.533   0.47702973 
     810    248.02611   -6958.5044   -6930.8367   -3212.7271    20354.533   0.48113406 
     820    247.07524   -6958.3983   -6930.8367   -3298.0857    20354.533   0.48604281 
     830    241.62282   -6957.7892   -6930.8358   -3451.0521    20354.533   0.49200069 
     840    241.09937   -6957.7309   -6930.8359   -3767.5583    20354.533    0.4980224 
     850    243.86884   -6958.0407   -6930.8367   -3969.0277    20354.533   0.50315689 
     860    240.67295   -6957.6839   -6930.8364   -3878.9651    20354.533   0.50749313 
     870    234.88256   -6957.0377   -6930.8362   -3705.4216    20354.533   0.51123394 
     880     230.9712   -6956.6008   -6930.8356   -3732.8653    20354.533   0.51418617 
     890    234.71187   -6957.0191   -6930.8366   -3903.3458    20354.533   0.51649556 
     900    236.69755   -6957.2408   -6930.8368   -4096.5729    20354.533   0.51925856 
     910    234.14135   -6956.9543   -6930.8355   -4214.9524    20354.533   0.52270274 
     920     239.2214   -6957.5215    -6930.836    -4371.806    20354.533    0.5260843 
     930    246.23434   -6958.3046   -6930.8368   -4388.3174    20354.533   0.52947161 
     940    244.93011   -6958.1585   -6930.8361    -4140.633    20354.533    0.5331014 
     950    244.54566   -6958.1146   -6930.8351   -3874.4856    20354.533   0.53608506 
     960     253.5944   -6959.1267   -6930.8378   -3771.8165    20354.533   0.53803089 
     970     248.3829   -6958.5442   -6930.8367   -3524.3442    20354.533   0.53986141 
     980    238.35135   -6957.4243   -6930.8358   -3260.4338    20354.533   0.54101785 
     990    236.50322   -6957.2181   -6930.8358   -3175.8957    20354.533   0.54134372 
    1000    241.19481   -6957.7423   -6930.8367   -3304.4267    20354.533   0.54225539 
    1010    241.95562   -6957.8272   -6930.8367   -3391.2596    20354.533   0.54502288 
    1020    240.16869   -6957.6269   -6930.8357   -3447.0496    20354.533   0.54930268 
    1030    245.53617   -6958.2267   -6930.8368   -3456.4918    20354.533   0.55419445 
    1040    247.77076    -6958.476   -6930.8368   -3298.5887    20354.533   0.55950896 
    1050     244.2442   -6958.0816   -6930.8358   -3136.4369    20354.533   0.56417367 
    1060    244.98518   -6958.1647   -6930.8363    -3248.508    20354.533   0.56688242 
    1070    245.91228   -6958.2687   -6930.8368   -3519.1406    20354.533   0.56812185 
    1080    243.86214    -6958.039   -6930.8358   -3692.2455    20354.533   0.56934968 
    1090    246.84293   -6958.3726   -6930.8369   -3906.5524    20354.533   0.57178329 
    1100      244.881   -6958.1533   -6930.8365   -4089.2355    20354.533   0.57651628 
    1110    240.43499   -6957.6569    -6930.836   -4077.0823    20354.533    0.5832495 
    1120    237.92872   -6957.3775   -6930.8362   -4003.4461    20354.533   0.59023617 
    1130    236.51172   -6957.2189   -6930.8357   -4042.4172    20354.533   0.59550452 
    1140    238.96444   -6957.4936   -6930.8368   -4040.0227    20354.533   0.59831056 
    1150    235.78148   -6957.1379   -6930.8361   -3879.2914    20354.533   0.59921996 
    1160    234.20341   -6956.9615   -6930.8358   -3837.8249    20354.533    0.5985221 
    1170    240.41902   -6957.6544   -6930.8353    -3935.141    20354.533   0.59722217 
    1180    255.54411   -6959.3435   -6930.8372     -4092.55    20354.533   0.59743217 
    1190    258.99242   -6959.7285   -6930.8375   -4046.2257    20354.533    0.6011544 
    1200    248.88394   -6958.5986   -6930.8352   -3714.2841    20354.533   0.60762836 
    1210    248.47025   -6958.5542    -6930.837   -3470.6197    20354.533   0.61448368 
    1220    244.95446   -6958.1613   -6930.8363   -3177.7538    20354.533   0.62050251 
    1230     241.8534   -6957.8153   -6930.8362   -3046.6572    20354.533   0.62473384 
    1240    239.93171   -6957.6017    -6930.837   -2953.8402    20354.533   0.62763822 
    1250    233.26136   -6956.8559   -6930.8352   -2777.3686    20354.533   0.63038166 
    1260    237.93988   -6957.3787   -6930.8361   -2775.1391    20354.533    0.6330371 
    1270    246.35675   -6958.3182   -6930.8368   -2888.4422    20354.533   0.63643977 
    1280    248.45813   -6958.5525   -6930.8366   -2920.0425    20354.533   0.64183599 
    1290    245.47675   -6958.2198   -6930.8365   -2685.1116    20354.533   0.64908358 
    1300    241.63357   -6957.7906    -6930.836   -2354.7632    20354.533   0.65669456 
    1310    242.43427   -6957.8804   -6930.8365   -2080.8148    20354.533   0.66291632 
    1320    245.28186   -6958.1979   -6930.8364   -1915.3295    20354.533    0.6669735 
    1330    248.60459   -6958.5691   -6930.8369   -2012.6907    20354.533   0.66938419 
    1340    247.35187   -6958.4291   -6930.8367   -2148.5782    20354.533   0.67162517 
    1350    244.12194   -6958.0683   -6930.8361   -1975.6824    20354.533   0.67460298 
    1360    246.17117   -6958.2975   -6930.8367   -1695.7314    20354.533   0.67795806 
    1370    247.81913   -6958.4815   -6930.8369   -1406.6961    20354.533   0.68155459 
    1380    246.54204   -6958.3387   -6930.8366   -1365.9532    20354.533   0.68550067 
    1390    245.37096   -6958.2083   -6930.8368   -1609.7263    20354.533   0.68946972 
    1400    243.36629   -6957.9841   -6930.8362   -2040.6718    20354.533   0.69316197 
    1410    243.94371   -6958.0489   -6930.8367    -2492.182    20354.533   0.69632692 
    1420    241.91407   -6957.8222   -6930.8364   -2641.5513    20354.533   0.69908731 
    1430    240.29252    -6957.641   -6930.8361   -2738.6597    20354.533   0.70169952 
    1440    243.00906   -6957.9446   -6930.8366   -2920.7186    20354.533   0.70454594 
    1450    244.25454   -6958.0838   -6930.8369   -3048.4377    20354.533   0.70795341 
    1460    242.09952    -6957.843   -6930.8364   -2976.5792    20354.533   0.71130224 
    1470    243.45842   -6957.9943   -6930.8362   -3081.8274    20354.533    0.7132231 
    1480    250.70065   -6958.8033   -6930.8373   -3338.8349    20354.533   0.71370178 
    1490    252.18388   -6958.9685    -6930.837   -3376.1382    20354.533    0.7144344 
    1500    251.43885   -6958.8853   -6930.8369   -3315.8008    20354.533   0.71637247 
    1510    251.24938    -6958.864   -6930.8368   -3301.7557    20354.533   0.71942223 
    1520    249.70733   -6958.6922    -6930.837   -3282.0336    20354.533   0.72323431 
    1530    244.44696   -6958.1054    -6930.837   -3302.2244    20354.533   0.72763008 
    1540    236.75683   -6957.2464   -6930.8358   -3274.9713    20354.533    0.7323608 
    1550    237.57971   -6957.3389   -6930.8365   -3428.4116    20354.533   0.73683196 
    1560    241.15015   -6957.7371   -6930.8364   -3593.4236    20354.533   0.74115804 
    1570    245.97302   -6958.2754   -6930.8368   -3733.6516    20354.533   0.74547586 
    1580    248.38573   -6958.5448    -6930.837   -3697.1233    20354.533   0.74963233 
    1590    246.86432   -6958.3746   -6930.8366   -3466.8015    20354.533   0.75351214 
    1600     247.7118   -6958.4687    -6930.836   -3388.9239    20354.533   0.75677589 
    1610    253.82537   -6959.1519   -6930.8373    -3531.034    20354.533   0.75955216 
    1620    251.92871   -6958.9401   -6930.8371   -3648.0728    20354.533   0.76294914 
    1630    244.66821   -6958.1291    -6930.836   -3657.5504    20354.533   0.76703359 
    1640    244.28177   -6958.0866   -6930.8366   -3671.0399    20354.533   0.77099433 
    1650    244.83575   -6958.1483   -6930.8365   -3788.3144    20354.533   0.77508445 
    1660    246.40424   -6958.3232   -6930.8364    -3813.853    20354.533   0.77989624 
    1670     250.2724    -6958.755   -6930.8367   -3565.9239    20354.533   0.78529205 
    1680    252.16532   -6958.9666   -6930.8372   -3320.4462    20354.533   0.79034429 
    1690    248.06278   -6958.5083   -6930.8366    -3241.467    20354.533   0.79410211 
    1700    246.18953   -6958.2989   -6930.8361   -3435.3007    20354.533   0.79613512 
    1710    251.37963   -6958.8788   -6930.8371   -3765.1983    20354.533   0.79697816 
    1720    252.49637   -6959.0036   -6930.8373   -4015.6546    20354.533   0.79809077 
    1730    246.19105   -6958.2991   -6930.8361   -4012.8085    20354.533   0.80001418 
    1740    244.72061   -6958.1349   -6930.8359   -3836.2711    20354.533   0.80174398 
    1750    250.77886   -6958.8116   -6930.8368   -3664.5304    20354.533   0.80300604 
    1760    253.23106   -6959.0851   -6930.8368   -3574.9487    20354.533   0.80474848 
    1770     250.9182   -6958.8268   -6930.8365   -3643.0638    20354.533   0.80759401 
    1780    248.19059    -6958.522   -6930.8359    -3925.933    20354.533   0.81194222 
    1790    251.50586   -6958.8923   -6930.8365   -4358.7518    20354.533   0.81788965 
    1800    254.74644   -6959.2547   -6930.8373   -4555.0094    20354.533   0.82537267 
    1810    250.83969   -6958.8178   -6930.8362   -4276.5786    20354.533   0.83331392 
    1820     251.8855   -6958.9345   -6930.8362   -4012.9598    20354.533   0.83972246 
    1830      255.594   -6959.3496   -6930.8377   -3901.3718    20354.533   0.84445553 
    1840    246.70995   -6958.3569   -6930.8361   -3626.6691    20354.533   0.84851616 
    1850    241.86654   -6957.8157   -6930.8351   -3456.7016    20354.533   0.85180041 
    1860    250.43531   -6958.7737   -6930.8372    -3514.864    20354.533    0.8548436 
    1870    251.67809   -6958.9117   -6930.8366    -3317.435    20354.533   0.85904271 
    1880    249.74232   -6958.6953   -6930.8361   -2814.4162    20354.533   0.86408884 
    1890    251.03758   -6958.8407    -6930.837   -2598.2462    20354.533   0.86903478 
    1900    247.47063   -6958.4421   -6930.8364   -2762.2368    20354.533   0.87371783 
    1910    246.41436   -6958.3238   -6930.8359   -3170.3298    20354.533   0.87809892 
    1920    252.32808   -6958.9847   -6930.8371   -3481.0709    20354.533    0.8826292 
    1930    251.70282   -6958.9148    -6930.837   -3522.0143    20354.533   0.88826081 
    1940    246.41342   -6958.3234   -6930.8356   -3409.4835    20354.533   0.89502972 
    1950     251.5574   -6958.8983   -6930.8367   -3383.3627    20354.533   0.90192896 
    1960    256.70331    -6959.473   -6930.8374   -3284.7665    20354.533   0.90797257 
    1970    251.99325   -6958.9465   -6930.8363   -3170.8424    20354.533   0.91214044 
    1980    249.36931   -6958.6536    -6930.836    -3268.664    20354.533   0.91382089 
    1990    253.19383   -6959.0808   -6930.8367   -3484.4565    20354.533   0.91429439 
    2000    255.75062   -6959.3664    -6930.837   -3645.8324    20354.533   0.91593526 
Loop time of 1154.32 on 16 procs for 2000 steps with 864 atoms

Performance: 0.150 ns/day, 160.322 hours/ns, 1.733 timesteps/s
97.0% CPU use with 16 MPI tasks x 1 OpenMP threads

MPI task timing breakdown:
Section |  min time  |  avg time  |  max time  |%varavg| %total
---------------------------------------------------------------
Pair    | 491.26     | 894.42     | 1147.4     | 595.4 | 77.48
Bond    | 0.00016689 | 0.00038175 | 0.00075531 |   0.0 |  0.00
Neigh   | 0.017802   | 0.028004   | 0.036621   |   3.7 |  0.00
Comm    | 6.5525     | 242.18     | 623.23     |1105.4 | 20.98
Output  | 0.31895    | 8.9249     | 19.795     | 255.0 |  0.77
Modify  | 0.0076935  | 0.0093253  | 0.011143   |   1.0 |  0.00
Other   |            | 8.758      |            |       |  0.76

Nlocal:        54.0000 ave          71 max          39 min
Histogram: 3 2 1 1 0 4 1 0 3 1
Nghost:        497.125 ave         591 max         387 min
Histogram: 1 2 1 1 1 3 2 1 2 2
Neighs:         0.00000 ave           0 max           0 min
Histogram: 16 0 0 0 0 0 0 0 0 0
FullNghs:      2382.00 ave        3956 max        1259 min
Histogram: 3 2 2 0 2 3 1 1 1 1

Total # of neighbors = 38112
Ave neighs/atom = 44.111111
Ave special neighs/atom = 0.0000000
Neighbor list builds = 199
Dangerous builds = 198
unfix   1

velocity    all create 487.5 1312343 dist gaussian
fix     2 all npt temp 487.5 487.5 $(100.0*dt) aniso 0.0 1.01325 $(1000.0*dt)
fix     2 all npt temp 487.5 487.5 0.10000000000000000555 aniso 0.0 1.01325 $(1000.0*dt)
fix     2 all npt temp 487.5 487.5 0.10000000000000000555 aniso 0.0 1.01325 1
run     3000
Per MPI rank memory allocation (min/avg/max) = 8.897 | 8.905 | 8.914 Mbytes
Step Temp PotEng TotEng Press Volume c_msd[4] 
    2000        487.5   -6959.3664    -6904.985   -2289.2319    20354.533   0.91593526 
    2010    448.86747   -6955.0477   -6904.9759   -1327.4869    20352.279    0.9224749 
    2020    385.50388   -6947.8948   -6904.8912     243.4025    20347.299   0.93361058 
    2030    364.33507   -6945.2947   -6904.6526    967.79203    20342.668   0.94257846 
    2040    363.18349   -6944.7317    -6904.218    1100.1205    20340.008   0.94782659 
    2050    356.27343   -6943.3666   -6903.6238    1000.2091    20339.651    0.9512418 
    2060    353.71307   -6942.4228   -6902.9656    878.53738     20341.44   0.95454928 
    2070     374.2795   -6944.0812   -6902.3298    767.33881    20345.109    0.9592273 
    2080    380.05725   -6944.1505   -6901.7545    995.95947    20350.492   0.96694809 
    2090    369.76333   -6942.4838   -6901.2361    1214.4816    20358.018   0.97644917 
    2100    378.03823   -6942.8787    -6900.708    977.49931    20368.056   0.98483019 
    2110    383.22217   -6942.8671   -6900.1181    576.30381    20380.195   0.99189179 
    2120     385.6305   -6942.4913   -6899.4737   -45.157862    20393.548   0.99840091 
    2130    389.03011   -6942.1796   -6898.7827   -708.57566    20406.807     1.004937 
    2140    382.82951   -6940.7706   -6898.0654   -1015.0301    20418.619    1.0117809 
    2150    378.82443    -6939.596   -6897.3376    -1006.622     20428.33    1.0183494 
    2160     387.8902   -6939.8548   -6896.5851    -960.6236    20435.904    1.0245822 
    2170    389.87166   -6939.3017   -6895.8109   -647.84319     20441.47    1.0308042 
    2180    397.46728   -6939.3751    -6895.037    -248.3564    20445.649    1.0361677 
    2190    404.71181   -6939.4037   -6894.2575   -84.982821    20449.244    1.0415626 
    2200    406.89703    -6938.874    -6893.484   -360.18379    20452.574    1.0481066 
    2210     414.6505   -6938.9636   -6892.7087   -1148.7752    20455.023    1.0556321 
    2220    414.66038   -6938.1759   -6891.9199   -1697.8209    20455.059    1.0641942 
    2230    420.28574   -6938.0093   -6891.1258    -1890.107    20451.505    1.0728319 
    2240    424.98279   -6937.7301   -6890.3226   -1491.4029    20444.021    1.0809337 
    2250    415.97924   -6935.9263   -6889.5232   -651.69318     20433.47    1.0886096 
    2260    420.36696   -6935.6182   -6888.7257   -259.60705    20421.486    1.0955176 
    2270     423.3713   -6935.1445   -6887.9168    142.99183    20409.071    1.1022613 
    2280    428.47981   -6934.9091   -6887.1115     228.4595    20397.006    1.1098031 
    2290    436.17948   -6934.9655    -6886.309   -124.06247    20385.447    1.1197218 
    2300    439.70202   -6934.5623   -6885.5129   -290.70018    20373.766    1.1329828 
    2310    444.23718   -6934.2718   -6884.7165   -259.39999    20361.621    1.1482573 
    2320     454.6069   -6934.6263   -6883.9142   -241.63198    20349.041    1.1631583 
    2330    463.60485    -6934.829   -6883.1132    177.78127    20336.166     1.176778 
    2340    460.96049    -6933.757   -6882.3362    754.58483    20323.868    1.1897783 
    2350    462.87783   -6933.2262   -6881.5915    795.84442    20313.217    1.2023946 
    2360    472.19559   -6933.5414   -6880.8673    956.49098    20304.414    1.2159497 
    2370    475.54056    -6933.214   -6880.1667    1542.2417    20297.832    1.2326102 
    2380    472.56953    -6932.215   -6879.4992    2153.4646    20294.601    1.2520635 
    2390    473.11717   -6931.6387   -6878.8618    2170.4831    20295.843    1.2718483 
    2400    477.78087   -6931.5456   -6878.2485    1557.2699    20301.537    1.2908793 
    2410    479.49628   -6931.1474   -6877.6589     923.6297    20310.463    1.3105585 
    2420    482.15593   -6930.8801   -6877.0949    516.86528    20321.279    1.3319702 
    2430    476.76966   -6929.7341   -6876.5497     578.1056    20333.162    1.3544212 
    2440    475.87641   -6929.0967   -6876.0119    726.77141    20346.132     1.374823 
    2450    475.97758   -6928.5624   -6875.4663    742.88497    20360.443    1.3905338 
    2460    473.73397   -6927.7646   -6874.9188    705.87663     20376.13    1.4013759 
    2470    481.58668   -6928.0924   -6874.3707    500.41234    20393.059    1.4094212 
    2480    484.42285   -6927.8645   -6873.8264     237.1328    20410.806    1.4176293 
    2490    491.28901   -6928.0992   -6873.2951   -255.64614    20428.746    1.4272552 
    2500    496.74929   -6928.1897   -6872.7766   -653.90818    20445.891    1.4386177 
    2510    493.94982   -6927.3917   -6872.2909    -937.1183    20461.422    1.4506667 
    2520    491.92888   -6926.7129   -6871.8375   -1416.3052    20474.665    1.4615916 
    2530    489.78606   -6926.0447   -6871.4083   -1643.4495     20484.71    1.4703551 
    2540    491.41001   -6925.8187   -6871.0011   -1695.9444    20491.088     1.477914 
    2550    492.59367   -6925.5621   -6870.6125   -1660.1968     20493.74    1.4864391 
    2560     503.2964    -6926.394   -6870.2505   -1532.0849    20492.795    1.4973754 
    2570    494.62264    -6925.099   -6869.9231   -1018.7317    20488.673    1.5111559 
    2580    487.00176   -6923.9512   -6869.6254   -736.51007    20482.377    1.5243057 
    2590    491.43922   -6924.1541   -6869.3333   -451.78648    20474.623    1.5338413 
    2600    498.33802   -6924.6391   -6869.0487    28.600284    20466.077    1.5394044 
    2610    505.56013   -6925.1821   -6868.7861    612.10753     20457.76    1.5409532 
    2620    506.59525   -6925.0732   -6868.5618    1107.5783    20450.869     1.538938 
    2630    505.54276   -6924.7757   -6868.3816    1310.1365     20446.42    1.5343237 
    2640    510.24885   -6925.1666   -6868.2476    1121.6133    20444.793    1.5290472 
    2650    515.52679   -6925.6735   -6868.1657    765.28913    20445.565    1.5266559 
    2660    516.76961   -6925.7959   -6868.1495    568.56248    20447.989    1.5291764 
    2670    512.48632   -6925.3681   -6868.1995    523.57981    20451.623    1.5347051 
    2680    516.77101   -6925.9613   -6868.3148    608.39593    20456.363    1.5391025 
    2690    518.54743   -6926.3474   -6868.5027    1018.3023    20462.411    1.5399801 
    2700    503.45827   -6924.9219   -6868.7604    1623.5792    20470.608    1.5370958 
    2710    487.96598   -6923.4828   -6869.0495    1745.3984    20482.098    1.5301982 
    2720    495.62952   -6924.6347   -6869.3465     1095.682    20497.047    1.5208826 
    2730    503.62603   -6925.8392    -6869.659    465.08576    20514.212    1.5133984 
    2740    495.00752   -6925.2104   -6869.9916    116.66067     20532.24    1.5095527 
    2750    494.19049   -6925.4631   -6870.3354   -200.06275    20550.326     1.507295 
    2760    497.85858   -6926.2284   -6870.6915   -323.83627    20567.811    1.5068512 
    2770    493.81174   -6926.1453   -6871.0598    -215.9118    20584.443    1.5102088 
    2780    496.44368   -6926.8176   -6871.4386   -358.91411    20600.368    1.5163026 
    2790     501.0317   -6927.7204   -6871.8295   -840.34679    20615.263    1.5214844 
    2800    504.21367   -6928.4866   -6872.2408   -1141.7857     20628.22    1.5240058 
    2810    504.17053   -6928.9212   -6872.6802   -1274.0404    20638.585    1.5247169 
    2820    496.05817   -6928.4784   -6873.1424   -1409.1592     20646.05     1.525439 
    2830    481.39056    -6927.297   -6873.5971   -1444.6747    20650.372    1.5280867 
    2840    466.80415     -6926.08   -6874.0073   -1419.7181    20651.514    1.5334515 
    2850    458.44512   -6925.4871   -6874.3469   -1613.1226    20649.516    1.5403877 
    2860    467.44434   -6926.7709   -6874.6268   -2128.9747    20643.952    1.5480579 
    2870    471.61794   -6927.4785   -6874.8689   -2639.3197    20633.817    1.5579746 
    2880    468.89624   -6927.3907   -6875.0846   -2853.4526    20618.114    1.5713259 
    2890    469.82939    -6927.681   -6875.2708   -2772.0914     20596.44    1.5868422 
    2900    472.25173   -6928.1069   -6875.4265   -2371.6314    20569.077    1.6026162 
    2910    470.70815   -6928.0523   -6875.5441   -1554.7344    20537.006    1.6174609 
    2920    471.42396   -6928.1992   -6875.6112   -614.27234    20502.026    1.6308901 
    2930    478.14571    -6928.968   -6875.6302    14.330813    20466.163    1.6435926 
    2940    488.13557   -6930.0738   -6875.6215    319.25162    20430.794    1.6568621 
    2950    493.13024   -6930.6159   -6875.6065    654.37129    20396.649    1.6710491 
    2960    485.56091   -6929.7582   -6875.5932    1074.0926    20364.445    1.6850877 
    2970    476.68166   -6928.7426   -6875.5681    1582.4383    20335.043    1.6982286 
    2980    477.87985   -6928.8297   -6875.5215    2123.3655    20309.462    1.7102836 
    2990    475.93799   -6928.5435   -6875.4519    2718.4122    20288.804    1.7213731 
    3000    476.05545   -6928.4702   -6875.3655    3159.1648    20274.171    1.7316964 
    3010    476.67678   -6928.4349   -6875.2609    3487.9678     20266.38    1.7423002 
    3020    488.40061   -6929.6301   -6875.1482    3443.9681     20265.97    1.7527332 
    3030    500.47538   -6930.8747   -6875.0459    3064.3447    20272.749    1.7620479 
    3040    506.14703   -6931.4408   -6874.9794    2677.1443    20285.904    1.7697702 
    3050    505.05916   -6931.2917   -6874.9516    1930.7734    20304.456    1.7756598 
    3060    501.18583   -6930.8652   -6874.9572    1176.5659    20326.837    1.7809802 
    3070    488.20744   -6929.4459   -6874.9856    880.91027    20351.508    1.7881261 
    3080    472.62492   -6927.7365   -6875.0144    708.96548    20377.735    1.7971696 
    3090    471.05936   -6927.5542   -6875.0068    263.25222    20405.065    1.8055569 
    3100    487.49866   -6929.3345   -6874.9533    -545.1471    20432.496    1.8117769 
    3110    487.56596   -6929.2629   -6874.8742   -938.19773    20458.452    1.8163227 
    3120    481.66687   -6928.5254   -6874.7947   -833.20151    20482.108    1.8188776 
    3130    479.29841   -6928.1744    -6874.708   -805.08416      20503.6    1.8197718 
    3140     475.4215   -6927.6382   -6874.6042   -862.33442    20523.033    1.8198491 
    3150    476.84394   -6927.6696   -6874.4769   -800.94268    20540.351    1.8192942 
    3160    488.99267   -6928.8763   -6874.3285   -967.20277    20555.618    1.8175859 
    3170    496.28159   -6929.5366   -6874.1756    -1215.327    20568.556    1.8163656 
    3180    495.05676   -6929.2635   -6874.0392   -1407.3833    20578.694    1.8182154 
    3190    493.53074   -6928.9749   -6873.9208    -1766.644    20585.602    1.8226731 
    3200    493.23789   -6928.8389   -6873.8175   -2089.0954    20588.583    1.8278245 
    3210    484.39809   -6927.7627   -6873.7274   -1795.4648    20587.131    1.8325701 
    3220    479.47421   -6927.1218   -6873.6357   -1256.7571    20581.859    1.8346329 
    3230    487.18354   -6927.8764   -6873.5303   -1051.7346    20573.863    1.8334752 
    3240    489.92118   -6928.0717   -6873.4203   -966.91467    20563.691    1.8331746 
    3250    483.46836    -6927.243   -6873.3114   -855.31878    20551.563     1.837473 
    3260    482.82715   -6927.0558   -6873.1957   -918.06785    20537.711    1.8452025 
    3270    483.76048   -6927.0346   -6873.0704   -1299.9473    20521.991    1.8541497 
    3280    480.67351   -6926.5565   -6872.9367   -1370.1432    20503.737    1.8648431 
    3290    483.03424   -6926.6739   -6872.7907   -1005.5756    20482.843    1.8769779 
    3300     480.2825   -6926.1964   -6872.6201   -238.29759    20460.159    1.8893221 
    3310     488.6883   -6926.9425   -6872.4286    65.002022    20437.157    1.9001579 
    3320    500.78175   -6928.0959    -6872.233   -43.077789    20414.536    1.9102104 
    3330    505.53955   -6928.4583   -6872.0646   -282.05088    20392.106    1.9214708 
    3340    502.26657   -6927.9663   -6871.9377   -442.70641    20369.387    1.9357117 
    3350    499.14316   -6927.5275   -6871.8473   -483.64172    20346.062    1.9535816 
    3360    501.92996   -6927.7764   -6871.7854   -576.45353    20322.008    1.9743296 
    3370    496.63707    -6927.151   -6871.7504   -369.88196    20297.107    1.9972157 
    3380    479.38637   -6925.1978   -6871.7215     458.8929    20271.881     2.019599 
    3390    483.53987   -6925.6122   -6871.6726    1173.5107    20247.924    2.0373151 
    3400     497.5774   -6927.1186   -6871.6131    1561.4964    20226.691    2.0504284 
    3410     491.1426   -6926.3474   -6871.5597    1759.0006    20208.997    2.0610232 
    3420    498.65474   -6927.1531   -6871.5274    1599.4431     20195.14    2.0701441 
    3430    499.17804   -6927.2018   -6871.5177    1840.7075    20184.891    2.0803327 
    3440    492.05798   -6926.4257   -6871.5359    2256.8348    20178.632    2.0918349 
    3450    489.57796   -6926.1856   -6871.5724    2375.2954    20177.119    2.1023906 
    3460    496.55143   -6927.0229   -6871.6319     1905.901    20180.484    2.1099483 
    3470    491.89496   -6926.5826   -6871.7109    1445.8318    20187.809    2.1147537 
    3480     497.3887   -6927.2958   -6871.8114    1093.4553    20198.085    2.1166872 
    3490    501.19403   -6927.8476   -6871.9387    897.02341    20210.585    2.1171915 
    3500    493.28031   -6927.1266   -6872.1005    1033.9231    20224.936    2.1187728 
    3510    483.79607   -6926.2473   -6872.2791    1064.4408    20241.307    2.1219417 
    3520    481.40756   -6926.1516   -6872.4498    836.10597    20259.726     2.125144 
    3530    489.60346   -6927.2306   -6872.6146    667.58514    20279.789    2.1265904 
    3540    492.49957   -6927.7285   -6872.7894    634.84105    20301.135    2.1266263 
    3550    485.72773   -6927.1601   -6872.9765    584.88746    20323.624    2.1270221 
    3560     480.2975   -6926.7424   -6873.1645    473.92548    20347.139    2.1273893 
    3570    478.71157   -6926.7442   -6873.3432    280.77664    20371.435    2.1250396 
    3580    480.35097   -6927.0915   -6873.5076    114.61831    20396.109    2.1182911 
    3590    481.55839   -6927.3742   -6873.6557   -235.90017    20420.757    2.1085181 
    3600    479.67397   -6927.2881   -6873.7798    -630.8509    20444.667    2.0981559 
    3610    481.29919   -6927.5758   -6873.8861   -900.79295    20467.002    2.0880636 
    3620    478.13423   -6927.3194   -6873.9828   -863.75751    20487.229    2.0781731 
    3630    467.81024   -6926.2507   -6874.0658   -872.40184    20505.373    2.0693537 
    3640    463.92739    -6925.867   -6874.1152   -1234.8508    20521.401    2.0616654 
    3650    475.36562   -6927.1476   -6874.1199   -1927.2678    20534.528    2.0552988 
    3660    484.82195   -6928.1788   -6874.0962   -2181.5358    20543.446    2.0516622 
    3670    485.80772   -6928.2587   -6874.0661   -2051.1234     20547.63    2.0511877 
    3680    481.94424   -6927.7933   -6874.0317   -1854.1955    20547.334    2.0528529 
    3690    481.48186   -6927.6918   -6873.9817   -1499.0472    20543.075     2.054549 
    3700    501.18741   -6929.8334   -6873.9252   -1298.2188    20535.591    2.0551674 
    3710    502.80066   -6929.9758   -6873.8876   -657.32845    20525.499    2.0560699 
    3720    486.20879   -6928.1124   -6873.8751    58.958355    20514.127    2.0572526 
    3730    477.77682   -6927.1583   -6873.8616    132.59483    20502.876    2.0581891 
    3740    473.29053   -6926.6229   -6873.8266    32.676243    20491.994    2.0591456 
    3750    468.00673   -6925.9589    -6873.752    141.91406    20481.352    2.0604542 
    3760    475.89143   -6926.7143   -6873.6279    80.738982    20471.074    2.0621644 
    3770    483.82091   -6927.4238   -6873.4529    310.62648    20461.143    2.0644826 
    3780     486.1017   -6927.4645   -6873.2391    701.50919     20452.01    2.0661642 
    3790    486.94444   -6927.3136   -6872.9942    1215.0149    20444.499    2.0659562 
    3800    484.29127   -6926.7461   -6872.7227    1439.0171    20439.592    2.0638254 
    3810    483.06039   -6926.3099   -6872.4238    1209.5867    20437.729    2.0593572 
    3820     495.4405   -6927.3605   -6872.0934    639.35282    20438.418    2.0514549 
    3830    508.56792    -6928.481   -6871.7495    238.28589    20440.528    2.0414494 
    3840    506.75577   -6927.9576   -6871.4282    346.79517    20443.228    2.0321959 
    3850    503.60481   -6927.3276   -6871.1497    857.48244    20446.755    2.0240515 
    3860     510.1282   -6927.8131   -6870.9076    821.21087    20451.997    2.0163571 
    3870    512.62144   -6927.8945   -6870.7108    316.35268    20458.899    2.0102696 
    3880    514.31087   -6927.9356   -6870.5635   -291.94393    20466.447    2.0078169 
    3890    520.77543   -6928.5688   -6870.4755   -639.04937    20473.394    2.0087114 
    3900     510.7989   -6927.4331   -6870.4527   -622.48795    20479.001     2.010675 
    3910    503.47854   -6926.6522   -6870.4884   -725.72568     20483.22    2.0127652 
    3920    506.35409   -6927.0557   -6870.5712   -1020.9978    20485.819    2.0172025 
    3930    496.31337   -6926.0647   -6870.7002   -1104.2588    20486.243    2.0252137 
    3940    486.77879   -6925.1596   -6870.8587   -1111.0465    20484.293    2.0352154 
    3950    496.84563   -6926.4655   -6871.0416   -1117.7982    20479.963    2.0465301 
    3960    491.85655   -6926.1234   -6871.2561   -784.79296    20473.316    2.0597418 
    3970    485.16458   -6925.6159   -6871.4951   -315.97208    20465.053    2.0740048 
    3980    494.76728   -6926.9494   -6871.7573    -447.4952    20456.021    2.0881039 
    3990    493.74346    -6927.134   -6872.0562    -448.7276    20446.109    2.1010499 
    4000    490.33285   -6927.0889   -6872.3915   -301.41911    20435.304    2.1108575 
    4010    498.04371   -6928.3221   -6872.7646   -255.95896    20423.896    2.1171629 
    4020    506.11893   -6929.6572   -6873.1989   -197.56638    20411.997    2.1224036 
    4030    498.33982   -6929.2739   -6873.6833    36.511326    20399.772    2.1286814 
    4040    499.66569   -6929.9351   -6874.1967     254.4792    20387.669    2.1353374 
    4050    494.32057   -6929.8505   -6874.7083    780.56042    20376.223    2.1423866 
    4060     487.1895   -6929.5249   -6875.1781    1242.0648    20366.481    2.1488864 
    4070    482.31896    -6929.386   -6875.5826    1121.8865    20359.323    2.1534174 
    4080    480.45729   -6929.5072   -6875.9114     677.9879    20354.525     2.156467 
    4090    477.98482    -6929.483   -6876.1631    383.20016    20351.223    2.1594909 
    4100    473.05114    -6929.107   -6876.3375    264.45457    20348.787    2.1631845 
    4110    480.23277   -6930.0248   -6876.4541    145.54414    20346.912    2.1674776 
    4120    488.03073   -6930.9773   -6876.5367     258.7036    20345.399    2.1709103 
    4130    490.51315   -6931.3276   -6876.6101    472.45436    20344.452    2.1702224 
    4140     478.3996   -6930.0352    -6876.669    658.49475    20344.523    2.1637601 
    4150    485.66641   -6930.8861   -6876.7093    381.22228    20345.902    2.1520753 
    4160    496.77868   -6932.1631   -6876.7466   -150.79742    20348.039    2.1382219 
    4170    487.38215   -6931.1635   -6876.7952   -271.62085    20349.947     2.125146 
    4180    487.66199   -6931.2468   -6876.8474   -413.59324    20351.256    2.1126218 
    4190    497.62428   -6932.4172   -6876.9064   -663.51022    20351.648    2.1000448 
    4200    487.80173   -6931.3936   -6876.9786   -730.42006    20350.677    2.0871311 
    4210     476.5144   -6930.2061   -6877.0502   -882.31717    20348.143    2.0729757 
    4220    473.62587   -6929.9356   -6877.1019   -1165.8698    20343.676    2.0588757 
    4230    468.30013   -6929.3657   -6877.1262    -826.8687    20336.865     2.046441 
    4240    468.65846   -6929.3903   -6877.1108    -218.2036    20328.355    2.0343862 
    4250    478.49034   -6930.4268   -6877.0505    302.04212    20319.386    2.0216445 
    4260    486.03073   -6931.1796   -6876.9622    644.18099    20311.052    2.0093334 
    4270    488.23638   -6931.3331   -6876.8696    915.13069    20304.101    1.9972563 
    4280    490.56064   -6931.5053   -6876.7825     1155.983    20299.116    1.9834859 
    4290     490.0208   -6931.3594   -6876.6968    1255.0001    20296.567    1.9675212 
    4300    481.96659   -6930.3664   -6876.6023      1445.48    20296.729    1.9492449 
    4310    489.86776   -6931.1399   -6876.4944    1337.9939    20299.907    1.9277802 
    4320    500.07691   -6932.1664   -6876.3821    1096.5716    20305.887    1.9055825 
    4330    493.89765   -6931.3766   -6876.2816     961.2905    20314.197    1.8872959 
    4340    488.52046   -6930.6788   -6876.1836     726.6355    20324.522    1.8736076 
    4350     489.3577   -6930.6623   -6876.0737      144.431    20336.271    1.8628748 
    4360    489.21825   -6930.5215   -6875.9485   -400.15138     20348.27    1.8539795 
    4370    481.97502   -6929.5705   -6875.8055   -744.76166    20359.392    1.8460968 
    4380    481.62882   -6929.3612   -6875.6348   -867.24099    20368.917    1.8393314 
    4390    490.14018   -6930.1094   -6875.4335   -689.55756    20376.589    1.8356162 
    4400    487.67435   -6929.6113   -6875.2105   -199.65149    20382.813    1.8353211 
    4410    489.94072    -6929.619   -6874.9654   -91.453305    20388.498    1.8350035 
    4420    507.18462   -6931.2655   -6874.6883   -680.67473    20393.809     1.832748 
    4430    514.30499   -6931.7748   -6874.4033   -1242.5052    20397.615    1.8317445 
    4440    497.02724   -6929.5817   -6874.1375   -1053.6838    20398.903    1.8340496 
    4450    499.54727   -6929.6067   -6873.8815   -984.72876    20397.906    1.8382971 
    4460    506.10372   -6930.0797   -6873.6231   -1025.7743     20394.78     1.844393 
    4470    486.73632   -6927.6704   -6873.3743   -281.93241    20389.663    1.8524379 
    4480     477.1197   -6926.3384    -6873.115     536.4581    20383.997    1.8602204 
    4490    481.31499   -6926.5057   -6872.8143    1192.5532    20379.503    1.8667037 
    4500    483.84246   -6926.4512   -6872.4779    1877.7923     20377.62    1.8728498 
    4510    490.70239     -6926.86   -6872.1214    2114.4344    20379.692    1.8791786 
    4520    502.01566   -6927.7583   -6871.7577    1476.4472    20386.108    1.8849067 
    4530    512.47133   -6928.5763   -6871.4094    508.51258     20395.57    1.8906327 
    4540    510.98603   -6928.1066   -6871.1053    58.743083    20406.161      1.89722 
    4550    499.27466   -6926.5467   -6870.8519   -179.85466    20416.837    1.9037932 
    4560     493.4597   -6925.6765   -6870.6303   -560.93937    20427.021    1.9097235 
    4570    496.89348   -6925.8511   -6870.4219   -967.58322    20435.944    1.9148032 
    4580    508.04097   -6926.9062   -6870.2335   -1091.4591      20442.8    1.9182696 
    4590    521.70753   -6928.2915   -6870.0942   -1037.1175    20447.289    1.9194341 
    4600    518.16139   -6927.8295   -6870.0278   -885.95704    20449.539    1.9194546 
    4610    518.09613   -6927.8358   -6870.0414   -781.68525    20449.855    1.9193398 
    4620    517.73084   -6927.8805   -6870.1268   -513.61283    20448.519    1.9200995 
    4630    514.73006   -6927.7075   -6870.2886   -175.63855    20446.101    1.9233153 
    4640    508.75819   -6927.2761   -6870.5234   -6.5383175      20443.3    1.9296539 
    4650    501.05477   -6926.7096   -6870.8162   -56.517964    20440.473    1.9381945 
    4660    498.23162   -6926.7359   -6871.1575   -133.32133    20437.531      1.94702 
    4670     495.1945   -6926.7801   -6871.5404    263.62001    20434.422    1.9545765 
    4680    493.55682   -6927.0121   -6871.9551    870.88614    20431.954    1.9604799 
    4690    508.64868   -6929.1453   -6872.4048    914.05336    20431.288    1.9655967 
    4700    521.71629   -6931.1108   -6872.9126    577.75032    20432.542    1.9722053 
    4710    508.07482   -6930.1283   -6873.4518     465.2703    20435.073    1.9814549 
    4720    497.10829   -6929.4146   -6873.9614     516.9756    20438.638    1.9924882 
    4730    491.62472   -6929.2411   -6874.3996    494.59035    20443.298    2.0035311 
    4740    485.82524   -6928.9437   -6874.7492    647.48313    20449.054    2.0115472 
    4750    481.77924   -6928.7477   -6875.0045    686.51441    20456.184    2.0157183 
    4760    492.63593   -6930.1481   -6875.1938    92.581353    20464.638    2.0172761 
    4770      494.742   -6930.5337   -6875.3444   -531.41892    20473.257     2.017347 
    4780    486.32739   -6929.7257   -6875.4752   -143.00635    20480.913    2.0159551 
    4790    477.33929   -6928.8277   -6875.5798    663.12245    20488.334    2.0128988 
    4800     480.6814   -6929.2766   -6875.6559    706.31056    20497.036    2.0082737 
    4810    480.84635   -6929.3471    -6875.708    272.17018    20507.173    2.0042212 
    4820    476.54208   -6928.8955   -6875.7365   -326.59909    20517.869    2.0029495 
    4830    480.32058   -6929.3206   -6875.7401   -1163.4184    20527.795    2.0043936 
    4840    480.44391   -6929.3164   -6875.7222    -1854.567    20535.211    2.0080436 
    4850     478.8359   -6929.1083   -6875.6935   -2123.5867    20538.657    2.0131088 
    4860    472.01805   -6928.3021   -6875.6478   -1527.5972    20537.657     2.018155 
    4870    477.98167   -6928.8987   -6875.5791   -366.76538    20533.448    2.0213013 
    4880    480.49123   -6929.0823   -6875.4828    787.62023    20528.439    2.0238772 
    4890    479.18071   -6928.8212   -6875.3679    1235.4626    20525.014    2.0284711 
    4900    482.17681   -6929.0218   -6875.2343    837.24042    20524.121    2.0362321 
    4910    490.44837   -6929.7968   -6875.0865    231.34948    20525.015    2.0473774 
    4920    492.98477   -6929.9306   -6874.9374    -158.9867    20526.466    2.0601627 
    4930    482.31402   -6928.5952   -6874.7923   -145.61997    20527.679    2.0706283 
    4940     479.2517   -6928.1013   -6874.6401   -248.51135    20528.542    2.0754651 
    4950    484.79104   -6928.5461   -6874.4669   -251.04416    20528.895    2.0737565 
    4960    491.36458   -6929.0941   -6874.2816   -15.546271    20528.756    2.0673498 
    4970    488.29506   -6928.5649   -6874.0948    399.94165    20528.643    2.0597541 
    4980    487.70157   -6928.3157   -6873.9118    506.16316    20529.338     2.053102 
    4990     496.3625   -6929.1021   -6873.7321    265.67411    20531.087    2.0483088 
    5000    497.25921   -6929.0262   -6873.5562   -232.47719     20533.38     2.045848 
Loop time of 1770.74 on 16 procs for 3000 steps with 864 atoms

Performance: 0.146 ns/day, 163.958 hours/ns, 1.694 timesteps/s
96.8% CPU use with 16 MPI tasks x 1 OpenMP threads

MPI task timing breakdown:
Section |  min time  |  avg time  |  max time  |%varavg| %total
---------------------------------------------------------------
Pair    | 853.07     | 1385.5     | 1761.3     | 674.3 | 78.25
Bond    | 0.00024962 | 0.00052619 | 0.00090647 |   0.0 |  0.00
Neigh   | 0.027946   | 0.042605   | 0.057365   |   4.6 |  0.00
Comm    | 4.0918     | 281.63     | 748.84     |1432.4 | 15.90
Output  | 0.19543    | 0.19879    | 0.24712    |   2.8 |  0.01
Modify  | 0.31508    | 103.31     | 202.84     | 807.5 |  5.83
Other   |            | 0.01232    |            |       |  0.00

Nlocal:        54.0000 ave          69 max          40 min
Histogram: 3 1 1 1 1 3 2 0 2 2
Nghost:        493.375 ave         538 max         411 min
Histogram: 1 1 0 2 0 1 2 4 1 4
Neighs:         0.00000 ave           0 max           0 min
Histogram: 16 0 0 0 0 0 0 0 0 0
FullNghs:      2342.75 ave        3661 max        1306 min
Histogram: 3 1 2 0 3 2 2 1 0 2

Total # of neighbors = 37484
Ave neighs/atom = 43.384259
Ave special neighs/atom = 0.0000000
Neighbor list builds = 300
Dangerous builds = 300
unfix   2

fix     3 all npt temp 487.5 487.5 $(100.0*dt) aniso 1.01325 1.01325 $(1000.0*dt)
fix     3 all npt temp 487.5 487.5 0.10000000000000000555 aniso 1.01325 1.01325 $(1000.0*dt)
fix     3 all npt temp 487.5 487.5 0.10000000000000000555 aniso 1.01325 1.01325 1
run     20000
Per MPI rank memory allocation (min/avg/max) = 8.898 | 8.906 | 8.914 Mbytes
Step Temp PotEng TotEng Press Volume c_msd[4] 
    5000    497.25921   -6929.0262   -6873.5562   -232.47719     20533.38     2.045848 
    5010    489.53657   -6928.1707   -6873.5622   -761.26482    20532.955    2.0452432 
    5020     493.6446   -6928.6464   -6873.5796   -1119.3972    20530.915    2.0455697 
    5030      497.256   -6929.0813   -6873.6117   -977.75652    20526.546    2.0478047 
    5040    499.13722   -6929.3484   -6873.6689   -670.65733    20520.084    2.0516634 
    5050    505.09223    -6930.102   -6873.7582   -507.68621    20512.134    2.0546288 
    5060    504.96015   -6930.2257   -6873.8966    -241.4602    20503.078    2.0551688 
    5070    485.75907   -6928.2565   -6874.0694    474.43364    20493.595    2.0531463 
    5080    479.26929   -6927.7091   -6874.2458    852.66055    20485.061    2.0484049 
    5090    486.12042   -6928.6492   -6874.4217    796.35473     20478.28    2.0431829 
    5100    473.88628    -6927.462   -6874.5993    870.00332    20473.238    2.0398845 
    5110    468.38605   -6927.0121   -6874.7629    937.79598    20470.065    2.0373239 
    5120    483.77065   -6928.8796   -6874.9142    716.87418    20468.853    2.0358923 
    5130    493.68794   -6930.1447   -6875.0731    546.01284    20469.224    2.0386652 
    5140    508.85535   -6932.0433   -6875.2797   -17.816308    20470.693    2.0467671 
    5150    503.93699   -6931.7756   -6875.5606   -420.60065     20472.18    2.0587925 
    5160    484.51745   -6929.9597    -6875.911   -621.30761    20472.797    2.0712879 
    5170    464.24387   -6928.0708   -6876.2837    -666.3231    20472.111    2.0820767 
    5180    459.77953   -6927.9346   -6876.6456   -688.02333    20469.998    2.0899862 
    5190    463.57181   -6928.6983   -6876.9862    -710.3164    20466.378    2.0949725 
    5200     470.1601   -6929.7539   -6877.3068   -479.27259     20461.26     2.097875 
    5210    481.20031   -6931.2957   -6877.6171   -440.42812    20455.042    2.1009738 
    5220    480.20353   -6931.4938   -6877.9263    -432.2367    20447.852    2.1073734 
    5230    477.51755   -6931.4984   -6878.2306   -487.64653    20439.686    2.1175038 
    5240     481.8407   -6932.2796   -6878.5296    -236.4268    20430.505    2.1293243 
    5250    475.81359   -6931.8934   -6878.8156     411.6141    20420.868    2.1406541 
    5260     476.3698   -6932.2196   -6879.0798    600.99407    20411.979    2.1496488 
    5270    478.81085   -6932.7419   -6879.3298    488.93058    20404.285    2.1567079 
    5280    460.19427    -6930.886   -6879.5506    580.36331    20397.668    2.1636481 
    5290    455.18244   -6930.4941   -6879.7178    283.97033    20392.184      2.17171 
    5300    468.59631   -6932.1019   -6879.8293   -348.62896    20387.218    2.1827232 
    5310    471.00178   -6932.4453   -6879.9043   -460.13905    20381.593    2.1971198 
    5320    463.52249   -6931.6477   -6879.9411   -15.231438    20375.066    2.2119859 
    5330    476.08981   -6933.0463   -6879.9378    65.400796     20368.39    2.2232729 
    5340    481.24324   -6933.5861   -6879.9027    53.677293    20361.812    2.2306816 
    5350    481.25683   -6933.5318   -6879.8469    89.716901    20355.325    2.2348954 
    5360    485.02139   -6933.8748     -6879.77    278.13663    20349.005    2.2370711 
    5370    477.66903   -6932.9508   -6879.6661    743.40951    20343.293    2.2395728 
    5380    472.24393   -6932.2009   -6879.5214    1052.4067    20339.099    2.2429124 
    5390    470.96394   -6931.8443   -6879.3076    1157.4268    20337.086    2.2454883 
    5400    475.98492   -6932.1003   -6879.0035    1278.6769     20337.55    2.2448476 
    5410    478.80355   -6932.0043    -6878.593    1245.2281    20340.747    2.2393278 
    5420    490.42952   -6932.7841   -6878.0759    675.24208    20346.537    2.2297566 
    5430     500.8552   -6933.3484   -6877.4772   -81.506861    20353.785    2.2200215 
    5440    490.92774   -6931.6254   -6876.8617    -375.1914    20361.023    2.2135049 
    5450    483.73091    -6930.238   -6876.2771   -389.05773    20367.569    2.2090445 
    5460     491.1639   -6930.5219   -6875.7318   -238.67399     20373.39    2.2037958 
    5470    495.46634   -6930.5178   -6875.2478   -184.60201     20378.75    2.1971558 
    5480    502.91809   -6930.9485   -6874.8472   -463.82755    20383.708    2.1900751 
    5490    503.30308   -6930.6801   -6874.5359   -703.16156    20387.725    2.1840358 
    5500    488.30294    -6928.777   -6874.3061   -437.39425    20390.383     2.178654 
    5510    479.31315   -6927.5881     -6874.12   -72.487309    20392.157    2.1727886 
    5520    485.75395   -6928.1348   -6873.9482   -195.00424    20393.686    2.1672605 
    5530    493.94669   -6928.8914   -6873.7909   -466.92381    20394.783    2.1626941 
    5540    502.23639   -6929.6923   -6873.6671   -410.40898    20394.967     2.158862 
    5550    496.80231   -6928.9977   -6873.5787   -144.76921    20394.304    2.1564299 
    5560    490.21962   -6928.1963   -6873.5116   -123.45688    20393.269    2.1544284 
    5570    490.67388   -6928.1873   -6873.4518    -271.5718    20391.919    2.1512915 
    5580    492.36207   -6928.3172   -6873.3935   -340.45085    20389.988    2.1458686 
    5590    503.05865    -6929.469    -6873.352   -489.88949    20387.273    2.1387704 
    5600    494.85225    -6928.539   -6873.3375   -276.81102    20383.537    2.1336018 
    5610    483.84359   -6927.3143   -6873.3408   -113.43521     20379.14     2.130804 
    5620    487.16489   -6927.6875   -6873.3435   -333.72514    20374.372     2.128432 
    5630    495.68512   -6928.6473   -6873.3529   -731.72808    20368.806    2.1266646 
    5640    487.23149   -6927.7309   -6873.3795    -948.2821    20361.633    2.1279586 
    5650    477.92543   -6926.7229   -6873.4096   -985.95047    20352.375    2.1330881 
    5660    487.68255   -6927.8281   -6873.4264    -1034.738    20340.887    2.1421311 
    5670    501.47434   -6929.3918   -6873.4516   -907.11416    20327.066    2.1557419 
    5680    487.11425   -6927.8412   -6873.5029   -642.06141    20311.141    2.1722203 
    5690    478.20134   -6926.9095   -6873.5654    -411.3433     20293.63    2.1869344 
    5700    486.32015   -6927.8678   -6873.6181   -203.47471    20275.015    2.1985193 
    5710    494.04111   -6928.7699   -6873.6589    232.44871    20255.777    2.2100042 
    5720    499.08166   -6929.3745   -6873.7012    687.04106    20236.791    2.2243897 
    5730    503.67287   -6929.9432   -6873.7577    1096.9775    20219.035    2.2417415 
    5740    508.75158    -6930.605    -6873.853    1367.1121     20203.38    2.2592422 
    5750    508.27255    -6930.711   -6874.0124    1240.8399    20190.363    2.2741718 
    5760    503.88649   -6930.4614   -6874.2521    1128.9967    20179.844    2.2860248 
    5770     494.5026   -6929.7288   -6874.5663    1382.8053    20171.653    2.2971381 
    5780    488.51407   -6929.4294    -6874.935    1853.0027    20166.336    2.3112868 
    5790    497.75551   -6930.8785   -6875.3531     1828.635    20164.775    2.3292001 
    5800    506.75543   -6932.3586   -6875.8293    1546.0391    20167.008    2.3489065 
    5810    503.46044   -6932.5212   -6876.3595    1269.8984    20172.533    2.3682821 
    5820     489.7402   -6931.5285   -6876.8973    969.68644    20180.799    2.3836727 
    5830    473.21584   -6930.1657   -6877.3777    1024.0291    20191.292    2.3921947 
    5840    458.94419   -6928.9488   -6877.7529    1277.4383    20204.133    2.3942055 
    5850    459.09431   -6929.2319   -6878.0193    1082.5241    20219.753    2.3914518 
    5860    467.33757   -6930.3272    -6878.195    309.96091    20237.744    2.3873863 
    5870    470.42968   -6930.7819   -6878.3047   -239.67672    20256.671    2.3855027 
    5880    465.35766   -6930.2729   -6878.3616   -224.43987    20275.423    2.3859828 
    5890    478.02195   -6931.7014   -6878.3774   -325.83151    20293.897    2.3855352 
    5900    495.21227   -6933.6135   -6878.3718   -913.63075    20311.803    2.3829923 
    5910    491.79801   -6933.2298    -6878.369   -1354.7733    20327.998    2.3794937 
    5920     484.4829   -6932.4199   -6878.3751   -1392.4934    20341.558    2.3751979 
    5930    470.68146   -6930.8742    -6878.369   -1056.0056    20352.361    2.3703552 
    5940    468.88285   -6930.6398   -6878.3352   -776.45329    20361.007    2.3655004 
    5950    474.10108   -6931.1506   -6878.2639   -823.94214    20368.024     2.362599 
    5960    481.63505   -6931.8944   -6878.1673   -1011.1133    20373.337    2.3633491 
    5970    480.76859   -6931.6875   -6878.0571   -1266.1437    20376.529    2.3677049 
    5980    472.52935   -6930.6463   -6877.9349   -1348.4589    20377.077    2.3733429 
    5990    473.78546   -6930.6429   -6877.7914   -1397.9673    20374.736    2.3781606 
    6000    477.23046   -6930.8562   -6877.6204   -1295.6149    20369.396    2.3828656 
    6010    479.77103   -6930.9475   -6877.4283   -950.57316    20361.244    2.3867358 
    6020    481.57982   -6930.9429   -6877.2219    -205.0144    20351.008    2.3864222 
    6030    472.96449    -6929.753   -6876.9931    844.90881    20340.277    2.3791244 
    6040    482.41385   -6930.5533   -6876.7393    1322.1744      20331.1    2.3660248 
    6050    493.08188   -6931.4751   -6876.4711    1530.2102    20324.586    2.3537191 
    6060    492.08083    -6931.114   -6876.2216    1821.1138    20321.287    2.3471731 
    6070    490.82336   -6930.7508   -6875.9988    2021.8417    20321.839    2.3454163 
    6080     494.1361   -6930.9185   -6875.7969    2116.3161    20326.723    2.3447303 
    6090    495.59615   -6930.9024   -6875.6179    1992.9175    20336.172    2.3419067 
    6100    491.22025   -6930.2563     -6875.46    1517.9832    20349.976    2.3347997 
    6110    495.91842   -6930.6389   -6875.3185    819.36283    20367.189    2.3221914 
    6120    493.79412    -6930.275   -6875.1916    544.79357    20386.479     2.306407 
    6130    489.96334   -6929.7415   -6875.0853    555.50944    20407.245    2.2901708 
    6140    490.53152   -6929.7119   -6874.9924    404.92618    20429.421    2.2750977 
    6150     489.5653   -6929.5181   -6874.9063    200.65326    20452.729    2.2622449 
    6160    495.75334   -6930.1255   -6874.8235   -88.297458     20476.72    2.2511824 
    6170     499.3108   -6930.4437   -6874.7449   -425.03039    20500.746    2.2404878 
    6180    493.78445    -6929.756   -6874.6736    -767.7675    20524.052    2.2299053 
    6190    491.49348   -6929.4321   -6874.6053   -1164.8947    20545.848    2.2191092 
    6200    490.84279   -6929.2931   -6874.5389   -1431.3546    20565.268    2.2084772 
    6210    490.62422   -6929.2102   -6874.4803   -1824.4972    20581.627    2.2005629 
    6220    479.55986   -6927.9216    -6874.426   -1921.9848    20594.132    2.1967826 
    6230    466.83034   -6926.4356   -6874.3599   -1884.9924    20602.498    2.1959991 
    6240    481.38552   -6927.9711   -6874.2718   -2249.5941     20606.69    2.1968439 
    6250    495.53309   -6929.4433   -6874.1659   -2665.2149    20605.962    2.1999186 
    6260    502.40216   -6930.1134   -6874.0697   -2714.0525    20599.464    2.2049751 
    6270    498.82411   -6929.6394   -6873.9948   -2343.5188    20587.107    2.2102949 
    6280    488.45838   -6928.4227   -6873.9345   -1862.9226    20569.629    2.2142313 
    6290    487.84153   -6928.2856   -6873.8662   -1404.4175    20548.086     2.215878 
    6300    493.57259    -6928.834   -6873.7753   -1309.7769    20523.399    2.2164395 
    6310    488.09725   -6928.1066   -6873.6586    -1091.312    20495.898    2.2185944 
    6320     481.1857   -6927.1699   -6873.4929   -618.25195    20466.104    2.2220771 
    6330    488.00621   -6927.6887   -6873.2509   -144.34654    20435.002    2.2239644 
    6340    500.10033   -6928.7171   -6872.9302    387.01029    20403.657    2.2227466 
    6350    498.90277     -6928.21   -6872.5566    1262.5378     20373.28    2.2210117 
    6360    496.34697   -6927.5215   -6872.1532    2168.5502     20345.69    2.2213292 
    6370    511.87239   -6928.8427   -6871.7425    2511.7516    20322.675    2.2226332 
    6380    516.99576   -6929.0362   -6871.3646    2741.6113    20305.062    2.2232398 
    6390        523.5   -6929.4584   -6871.0612    2640.8619    20293.248    2.2225647 
    6400    522.80727   -6929.1667   -6870.8467    2572.9879    20287.087    2.2212196 
    6410    520.22112   -6928.7568   -6870.7254    2589.7107    20286.407    2.2192597 
    6420    524.80215   -6929.2406   -6870.6981    2715.7906    20291.248    2.2187455 
    6430    514.55172   -6928.1679   -6870.7689    2891.0342    20301.856    2.2229771 
    6440    501.63855   -6926.8746    -6870.916    2971.5635    20318.607    2.2298674 
    6450    508.66091   -6927.8589    -6871.117    2378.7082    20341.561    2.2353717 
    6460    516.11496   -6928.9458   -6871.3724    1492.1763    20369.539    2.2413607 
    6470     506.9756   -6928.2382   -6871.6843    988.01381    20400.785    2.2528569 
    6480     500.6144   -6927.8785   -6872.0342    688.29672    20434.179    2.2700998 
    6490      504.075   -6928.6384   -6872.4081    122.03892    20468.962    2.2893388 
    6500    513.34818   -6930.0717   -6872.8069   -813.74919    20503.865    2.3074043 
    6510    511.57398   -6930.2922   -6873.2254    -1853.256    20536.865    2.3225427 
    6520    503.71397   -6929.8391   -6873.6491   -2462.2414    20565.784    2.3342393 
    6530    497.37524   -6929.5543   -6874.0714   -2511.6538     20589.29    2.3447689 
    6540    478.57155   -6927.8548   -6874.4694   -1970.4559    20607.294    2.3575743 
    6550    464.48219   -6926.6115   -6874.7978   -1626.8768    20620.823    2.3738802 
    6560     479.1287   -6928.4998   -6875.0523   -1893.3114    20630.553    2.3939656 
    6570    491.03341   -6930.0439   -6875.2684    -1941.957    20636.117     2.418247 
    6580    478.24255   -6928.8118   -6875.4631   -1433.0205      20637.5    2.4443483 
    6590    471.07245   -6928.1698    -6875.621   -869.73532    20635.746    2.4670089 
    6600    479.66739   -6929.2449   -6875.7373   -699.49664    20632.031    2.4840409 
    6610    485.69275    -6930.015   -6875.8352   -604.55532    20626.824    2.4974927 
    6620    490.44493   -6930.6404   -6875.9306   -805.93401    20620.284    2.5105214 
    6630    498.76377   -6931.6783   -6876.0404   -1238.6724    20611.982    2.5256266 
    6640    489.58596   -6930.7811    -6876.167   -1037.2536    20601.215    2.5423599 
    6650    481.36351   -6929.9954   -6876.2986   -745.77506     20588.31    2.5588703 
    6660    467.54238    -6928.563    -6876.408   -560.56201     20573.89    2.5758654 
    6670    453.52131    -6927.059    -6876.468   -222.61489    20558.427    2.5922519 
    6680    452.03554   -6926.8779   -6876.4526    176.15861    20542.636    2.6050128 
    6690    471.16925   -6928.9284   -6876.3687    440.97044    20527.359    2.6128814 
    6700    484.20836   -6930.2509   -6876.2367    776.56316    20513.222    2.6182585 
    6710    494.21277   -6931.2203   -6876.0902    753.98023    20500.833    2.6236755 
    6720    499.93828   -6931.7199    -6875.951    566.35725    20490.183    2.6300474 
    6730    501.06727   -6931.7295   -6875.8347    458.54882    20480.888    2.6368208 
    6740    500.21265   -6931.5464   -6875.7469     207.6931    20472.631    2.6440899 
    6750    492.61358   -6930.6338    -6875.682    -53.81434    20464.891    2.6525085 
    6760    492.13725   -6930.5316    -6875.633   -125.92904    20457.144    2.6617481 
    6770      483.837   -6929.5618    -6875.589    202.48648    20449.265    2.6716096 
    6780    475.74937   -6928.6022   -6875.5316    783.65427    20441.943    2.6809322 
    6790    489.75243   -6930.0866    -6875.454    934.27709    20436.277    2.6884712 
    6800    484.31691   -6929.3891   -6875.3629    1009.9275    20432.657    2.6941104 
    6810    476.92447   -6928.4614   -6875.2597    1119.6352    20431.241    2.6950077 
    6820    486.94924   -6929.4422   -6875.1222    939.15915    20432.173    2.6896848 
    6830    489.24887   -6929.5236   -6874.9472    759.73248    20435.122    2.6818519 
    6840    490.85079   -6929.5037   -6874.7485    531.57776    20439.676    2.6744304 
    6850    496.88413   -6929.9593   -6874.5311    126.89829    20445.282    2.6686474 
    6860    503.18882   -6930.4372   -6874.3058      -278.65    20451.121    2.6653355 
    6870    508.41423   -6930.7993   -6874.0849   -888.97673    20456.283    2.6636097 
    6880    501.81879   -6929.8537   -6873.8751   -1180.2481    20459.592    2.6616118 
    6890    505.73953   -6930.0977   -6873.6817    -1144.939    20460.393    2.6581612 
    6900    506.81184   -6930.0374   -6873.5018   -818.86622    20458.792    2.6548352 
    6910    505.16615   -6929.6975   -6873.3454   -433.72282    20455.453    2.6530605 
    6920    499.98118   -6928.9855   -6873.2118   -89.696742    20451.211    2.6519963 
    6930    501.09942   -6928.9979   -6873.0995    93.847684    20446.789    2.6505493 
    6940    508.27019   -6929.7126   -6873.0143    125.36791     20442.58    2.6494156 
    6950    500.90537   -6928.8404   -6872.9637   -39.421367    20438.653    2.6492697 
    6960    497.83415   -6928.4775   -6872.9433   -296.86648    20434.669    2.6486912 
    6970    502.68864   -6929.0195   -6872.9439   -254.04216     20430.14    2.6474528 
    6980    500.79075   -6928.8361   -6872.9722    219.36943    20425.199    2.6459241 
    6990    491.26179   -6927.8331   -6873.0321    845.80718    20420.791    2.6433315 
    7000    487.48696   -6927.4893   -6873.1094    1287.8732    20418.198    2.6384233 
    7010    490.96327   -6927.9712   -6873.2035    1271.4768    20418.309    2.6313916 
    7020    490.26051   -6928.0077   -6873.3184    1047.5037    20421.106    2.6235723 
    7030    490.97011   -6928.2265    -6873.458    903.31355    20426.126    2.6166934 
    7040     482.7747   -6927.4701   -6873.6159    1111.9268    20433.106    2.6120175 
    7050    490.43199   -6928.4967   -6873.7883    665.55402    20442.242    2.6075503 
    7060    504.57228   -6930.2777   -6873.9919    -162.3775    20452.635     2.603898 
    7070    491.81928   -6929.0989   -6874.2358   -667.24548    20462.631    2.6047624 
    7080    480.83551    -6928.141   -6874.5031    -1187.082    20471.072    2.6100791 
    7090    478.33265   -6928.1292   -6874.7705   -1744.2468    20476.851     2.616473 
    7100     485.3001   -6929.1761   -6875.0401   -2001.6952    20478.868    2.6219811 
    7110    484.62689   -6929.3831   -6875.3223   -1684.9228    20476.696    2.6281983 
    7120    474.20717   -6928.5018   -6875.6033   -1189.5393    20470.974    2.6356907 
    7130    471.24294   -6928.4273   -6875.8594   -1092.8189    20462.705    2.6427172 
    7140    470.19638   -6928.5362   -6876.0851    -1366.422    20452.134    2.6487425 
    7150    462.50469    -6927.868   -6876.2749   -1371.1705    20438.839    2.6540105 
    7160    464.01551   -6928.1792   -6876.4176   -1172.1901    20422.858    2.6571644 
    7170    475.00541   -6929.5041   -6876.5165   -995.83507    20404.635    2.6579291 
    7180    482.00679   -6930.3599   -6876.5914    -746.4835    20384.592    2.6584412 
    7190    485.04924   -6930.7651   -6876.6571   -180.26657    20363.362    2.6615098 
    7200    488.71867   -6931.2304   -6876.7131       534.81    20342.149     2.667637 
    7210    488.89211   -6931.2968   -6876.7602    842.79356    20322.345    2.6749499 
    7220      480.589   -6930.4107   -6876.8003    1003.5386    20304.668    2.6812156 
    7230    482.74391   -6930.6831   -6876.8323    1221.4173    20289.457     2.684797 
    7240     493.7058   -6931.9442   -6876.8705    1239.3795    20277.051    2.6861226 
    7250    490.18189   -6931.6082   -6876.9276    1257.0906    20267.487    2.6865188 
    7260    491.27922    -6931.812   -6877.0091    1218.4969    20260.719    2.6858501 
    7270    491.47264   -6931.9363   -6877.1118    1127.0326    20256.617    2.6842878 
    7280     491.2141   -6932.0363   -6877.2407    1209.0711    20254.988    2.6825594 
    7290    496.30533    -6932.769   -6877.4054    1210.4987    20255.897    2.6824856 
    7300    501.89167   -6933.6144   -6877.6276     1116.404    20259.313    2.6859186 
    7310    493.77343    -6932.998   -6877.9168     1034.986    20265.004    2.6938236 
    7320     473.2071   -6931.0318   -6878.2449    882.66784    20272.761     2.705211 
    7330    471.24629   -6931.1429   -6878.5747    105.67054    20282.103    2.7169369 
    7340    481.89971   -6932.6631   -6878.9064   -739.47862    20291.497    2.7269406 
    7350    466.60233   -6931.2871   -6879.2369   -758.54836    20299.364    2.7347917 
    7360    453.64966   -6930.1426   -6879.5373   -345.93847    20305.575    2.7396766 
    7370    456.26638   -6930.6826   -6879.7854    162.17689    20310.961    2.7421567 
    7380    458.44882   -6931.1179   -6879.9772    525.34247    20316.552    2.7438023 
    7390    460.52447    -6931.488   -6880.1158    1109.9829    20323.203    2.7449629 
    7400    467.29526   -6932.3369   -6880.2095    1764.4561    20332.084    2.7456356 
    7410    475.71857   -6933.3408   -6880.2737    2167.3649    20344.465    2.7460333 
    7420     474.0646   -6933.2029   -6880.3202    2238.5442    20361.133    2.7467739 
    7430    470.25924   -6932.8038   -6880.3456    1906.2314    20382.145    2.7481649 
    7440    469.72772   -6932.7327   -6880.3339    1348.9509    20406.734     2.749897 
    7450    463.15746   -6931.9303   -6880.2643    669.61132    20433.657    2.7522788 
    7460    467.74947   -6932.3011    -6880.123   -46.014691    20461.443     2.755633 
    7470    480.31166   -6933.4832   -6879.9037   -613.77314    20488.538    2.7590889 
    7480    489.15761   -6934.1953    -6879.629   -683.76935    20513.813    2.7621416 
    7490     488.3062   -6933.7947   -6879.3234   -529.46057    20537.097    2.7671323 
    7500    477.51438   -6932.2611   -6878.9937   -99.074528    20558.757    2.7769745 
    7510    476.91034   -6931.8258   -6878.6257    202.60064    20579.654     2.792085 
    7520    486.07316   -6932.4247   -6878.2025    98.815912    20600.385    2.8106521 
    7530    481.35932   -6931.4393   -6877.7429   -38.068852    20620.802    2.8300632 
    7540    475.43014   -6930.3075   -6877.2726   -164.11385    20640.606    2.8469723 
    7550    480.47932   -6930.3948   -6876.7966    -508.4458     20659.48    2.8597146 
    7560    486.46189   -6930.5993   -6876.3338   -1036.0526    20676.716    2.8683278 
    7570    484.54979   -6929.9635   -6875.9112   -1759.7749    20691.164    2.8730617 
    7580    487.16937   -6929.8894   -6875.5449   -2191.2107    20701.431    2.8743691 
    7590    491.65848   -6930.0843   -6875.2391   -1924.5366     20706.78    2.8727969 
    7600    489.60331   -6929.6108   -6874.9948   -1467.9048    20707.823    2.8688644 
    7610    489.65171   -6929.4249   -6874.8036   -1237.0874    20705.603    2.8647264 
    7620    480.97969   -6928.3009   -6874.6469   -933.68726    20700.791    2.8632852 
    7630    474.08912    -6927.389   -6874.5036   -692.46689    20694.081    2.8653846 
    7640    478.16193   -6927.6951   -6874.3554   -654.07354    20686.028    2.8703446 
    7650    486.40453   -6928.4606   -6874.2014   -471.00773    20676.838    2.8763197 
    7660    492.60845    -6929.003   -6874.0518   -2.7770679    20666.975    2.8805259 
    7670    492.77111   -6928.8874    -6873.918    476.25216    20657.403    2.8816374 
    7680    491.48629   -6928.6302   -6873.8042    734.84715      20649.1    2.8806407 
    7690    500.32251   -6929.5252   -6873.7135    699.14311    20642.573    2.8786011 
    7700    510.62507   -6930.6212   -6873.6603    662.31104    20637.751    2.8750115 
    7710    505.17709   -6930.0099   -6873.6566     744.3618    20634.507    2.8691708 
    7720    499.85068   -6929.4571    -6873.698    775.07994    20632.932    2.8627314 
    7730    491.91851   -6928.6405   -6873.7662    893.33279    20633.095    2.8583853 
    7740    487.58272   -6928.2389   -6873.8483    959.99493    20635.173    2.8569399 
    7750    489.60898   -6928.5523   -6873.9357    935.36995    20639.256    2.8582721 
    7760    491.72379   -6928.8876   -6874.0351    1134.4493    20645.329     2.861827 
    7770    484.11176   -6928.1453   -6874.1419    1119.4321    20653.669     2.865013 
    7780    487.14505   -6928.5895   -6874.2477    282.90906    20664.055    2.8646545 
    7790    495.11512   -6929.5818   -6874.3509   -823.56929    20674.736    2.8615124 
    7800    491.84069   -6929.3283   -6874.4627   -1298.8776    20683.473    2.8591376 
    7810    486.21381   -6928.8247   -6874.5868   -1289.0733    20689.259    2.8598622 
    7820    474.68938    -6927.662   -6874.7097   -1101.9549     20692.14    2.8634753 
    7830    469.49868   -6927.1886   -6874.8153   -1161.9148    20692.529    2.8676685 
    7840    477.46277   -6928.1589   -6874.8972   -1651.1154    20690.293    2.8695096 
    7850    482.28736    -6928.766   -6874.9661   -1607.3053    20684.623    2.8676884 
    7860     479.7635   -6928.5487   -6875.0304   -1143.1246    20675.666    2.8640152 
    7870    480.88981   -6928.7312   -6875.0873   -843.53813     20664.42    2.8610412 
    7880    485.27761    -6929.269   -6875.1355   -724.20764    20651.575    2.8589835 
    7890    486.07182   -6929.3971   -6875.1751   -413.44355    20637.508    2.8569451 
    7900     487.0079   -6929.5389   -6875.2124   -126.59727    20622.851    2.8557317 
    7910    481.71022   -6928.9842   -6875.2487    318.85314    20608.297    2.8553827 
    7920    481.84802   -6929.0315   -6875.2807    557.78189    20594.723    2.8539953 
    7930    484.15779    -6929.315   -6875.3065    442.92535    20582.596    2.8508806 
    7940    477.97547    -6928.645   -6875.3261     192.0812    20571.673    2.8472203 
    7950    474.34964   -6928.2473   -6875.3329   -46.467236    20561.425      2.84475 
    7960    480.24429   -6928.8918   -6875.3199   -264.53543    20551.298    2.8440532 
    7970    487.69978   -6929.6975   -6875.2938   -135.97018    20540.862    2.8457769 
    7980    482.09268   -6929.0339   -6875.2557    511.96056    20530.447     2.850959 
    7990    484.62747    -6929.265    -6875.204    914.89409    20521.282    2.8594934 
    8000    487.90038   -6929.5632   -6875.1372    947.67055    20514.188    2.8692955 
    8010    481.03907   -6928.7171   -6875.0565    955.21398    20509.282    2.8756224 
    8020    477.67435   -6928.2382   -6874.9529    761.26334    20506.478    2.8747747 
    8030      482.497   -6928.6385   -6874.8152    529.14832    20505.351    2.8682407 
    8040    496.86604   -6930.0843   -6874.6581    336.95099    20505.373    2.8599612 
    8050    488.30546   -6928.9713   -6874.5001    633.32347    20506.229    2.8541951 
    8060    482.85807   -6928.2057   -6874.3421    863.63686    20508.437     2.852471 
    8070    499.42725   -6929.8854   -6874.1736    482.85917    20512.351    2.8545091 
    8080    499.99878   -6929.7839   -6874.0083    424.27241    20517.325    2.8610762 
    8090    498.98219   -6929.5236   -6873.8614    465.11096    20523.181     2.872207 
    8100    508.83096   -6930.4926   -6873.7317    228.46593    20529.902    2.8859646 
    8110    507.21092   -6930.2149   -6873.6348    206.29961    20537.077    2.8991574 
    8120    501.42925   -6929.5145   -6873.5793    29.556042    20544.579    2.9082022 
    8130    500.76101   -6929.4178   -6873.5571   -153.60906    20552.062    2.9104343 
    8140    490.79962    -6928.312   -6873.5626    101.21251    20559.223    2.9063672 
    8150     476.0503   -6926.6784   -6873.5743    455.82339    20566.556    2.8984196 
    8160    477.86485   -6926.8729   -6873.5664    312.75654    20574.699     2.889844 
    8170    478.62654   -6926.9187   -6873.5272   -160.12123    20583.383    2.8833476 
    8180    484.34126   -6927.4938   -6873.4648   -703.84338    20591.599    2.8807162 
    8190    488.49748   -6927.8786    -6873.386   -804.09148    20598.294    2.8823624 
    8200    490.03055   -6927.9685   -6873.3048   -697.10479    20603.211    2.8881498 
    8210    488.04772   -6927.6683   -6873.2258   -440.91302    20606.606    2.8975732 
    8220    483.30405    -6927.055   -6873.1417   -259.15939    20608.999    2.9086859 
    8230    484.42903    -6927.079   -6873.0402   -292.22813    20610.783    2.9196493 
    8240    489.64573   -6927.5424   -6872.9217   -508.98861    20611.895    2.9296563 
    8250    487.05219   -6927.1245   -6872.7931   -674.17688    20611.906    2.9375928 
    8260    485.92774   -6926.8616   -6872.6557   -627.18429    20610.471    2.9412783 
    8270    485.40072   -6926.6474   -6872.5002   -387.26307    20607.706    2.9398239 
    8280     490.5421   -6927.0486   -6872.3279   -360.81342    20604.068    2.9336575 
    8290    494.99672   -6927.3608   -6872.1431   -635.95815    20599.613    2.9247461 
    8300    504.93558   -6928.2875   -6871.9612   -1137.5462    20593.772    2.9163671 
    8310    516.14504   -6929.3833   -6871.8066   -1336.1021    20585.562    2.9122558 
    8320    508.10225   -6928.3784   -6871.6988   -918.68177    20574.638    2.9137494 
    8330    505.00741   -6927.9701   -6871.6358   -579.68899     20561.78    2.9178014 
    8340    506.86572   -6928.1506   -6871.6089   -634.05796     20547.67    2.9231006 
    8350    511.79757   -6928.7211   -6871.6293   -811.65296    20532.254    2.9283408 
    8360     510.7266    -6928.683   -6871.7106   -697.65036    20515.231    2.9317974 
    8370    500.19406   -6927.6468   -6871.8494   -192.09444    20496.874    2.9331326 
    8380    500.55772   -6927.8732   -6872.0352    446.18904    20478.233    2.9334926 
    8390    496.68302   -6927.6694   -6872.2636    1218.4909    20460.693    2.9347467 
    8400    486.76258   -6926.8278   -6872.5287     1889.445    20445.852    2.9358162 
    8410    478.04956   -6926.1369   -6872.8097     2163.822    20435.065    2.9361976 
    8420    479.40699   -6926.5744   -6873.0958    2178.1721    20428.941     2.935338 
    8430     484.1668   -6927.3979   -6873.3883    1900.3468    20427.461    2.9301798 
    8440    482.98386   -6927.5666   -6873.6891    1360.7333    20430.005    2.9194976 
    8450    482.06372   -6927.7666   -6873.9917    820.63535    20435.473     2.906096 
    8460    483.87679   -6928.2702    -6874.293    425.30695    20442.734    2.8926225 
    8470    483.23144    -6928.497   -6874.5918    95.335425    20450.893    2.8808125 
[...]
   22890    484.77343   -6930.8097   -6876.7325    412.78379    20614.474    4.6534094 
   22900    488.62357   -6930.8533   -6876.3466    193.15195    20633.183    4.6704394 
   22910    501.72792   -6931.9569   -6875.9884   -537.63192    20652.162    4.6876161 
   22920     513.2657   -6932.9399   -6875.6844   -1173.6017    20669.922    4.7028733 
   22930    519.87173   -6933.4538   -6875.4613   -1490.0761     20685.12    4.7164361 
   22940    510.99003   -6932.3315   -6875.3298   -1757.6236    20696.991    4.7286554 
   22950    494.45914   -6930.4202   -6875.2625   -1692.3276    20705.043    4.7387609 
   22960    490.83217   -6929.9757   -6875.2227   -1565.3051    20709.347    4.7453758 
   22970    494.24942    -6930.325   -6875.1907   -1542.0071    20710.188    4.7500617 
   22980     504.1452   -6931.4205   -6875.1824   -1817.7999     20707.57    4.7552465 
   22990    494.78605   -6930.4024   -6875.2083   -1719.4847    20701.045    4.7606212 
   23000    483.52082   -6929.1924   -6875.2549   -1228.4465    20690.831    4.7643702 
   23010    487.76659   -6929.7075   -6875.2964   -754.97415     20677.95    4.7659846 
   23020    501.31831   -6931.2653   -6875.3425   -482.19644    20663.422    4.7678262 
   23030      501.821   -6931.3991   -6875.4203   -275.58742    20647.879     4.771977 
   23040    481.17218   -6929.1972   -6875.5217   -93.396236    20631.793    4.7769243 
   23050    469.90242   -6928.0274   -6875.6091   -71.888997    20615.542    4.7782613 
   23060    485.63267   -6929.8435   -6875.6704   -488.45265    20599.111    4.7739521 
   23070    490.78763   -6930.4742   -6875.7261   -1013.0148     20581.66    4.7661094 
   23080    483.83792   -6929.7625   -6875.7897   -908.41679    20562.195    4.7566997 
   23090    493.36905   -6930.8883   -6875.8522   -328.83937    20540.938     4.746648 
   23100    509.47997   -6932.7664   -6875.9331    99.749585     20519.03     4.740103 
   23110    499.75137   -6931.8084   -6876.0603    536.30812    20497.441    4.7388391 
   23120    484.10044     -6930.22   -6876.2179    958.98417     20477.11    4.7373538 
   23130    489.71401   -6931.0219   -6876.3936    1258.0235    20458.903    4.7322253 
   23140    488.86224   -6931.1265   -6876.5931    1487.8317    20443.461     4.725208 
   23150    480.34448   -6930.4017   -6876.8186    1652.5119     20431.27    4.7163598 
   23160    477.88262   -6930.3722   -6877.0637    1638.3427    20422.624    4.7042357 
   23170    474.16088   -6930.2115   -6877.3182    1682.6979    20417.553    4.6902128 
   23180    482.83678   -6931.4451   -6877.5839    1673.6771    20416.085    4.6768485 
   23190    495.67288   -6933.1751    -6877.882    1740.9028    20418.233    4.6671399 
   23200    493.04485   -6933.2281   -6878.2282    1763.2628    20424.116    4.6620611 
   23210    491.38592    -6933.434   -6878.6192    1505.5119    20433.713    4.6600952 
   23220    496.57699   -6934.4413   -6879.0474    881.30451    20446.476    4.6592145 
   23230    499.53811   -6935.2387   -6879.5145    179.70433    20461.115    4.6585923 
   23240    482.25415   -6933.7901   -6879.9939    12.579264    20476.255    4.6596068 
   23250    464.93348   -6932.2959   -6880.4318    -65.53066    20491.415    4.6637436 
   23260    455.43711   -6931.5933   -6880.7886    2.6582029    20506.471    4.6716209 
   23270    448.92811   -6931.1241   -6881.0455    67.013567    20521.538    4.6805437 
   23280    461.51846   -6932.6906   -6881.2075   -378.83263    20536.637    4.6863204 
   23290    474.53232   -6934.2341   -6881.2993   -1026.5721     20550.84    4.6886567 
   23300    469.87518    -6933.758   -6881.3427   -1169.6923     20562.91    4.6901516 
   23310    473.06732   -6934.1218   -6881.3504   -1285.3381    20572.408     4.691709 
   23320    465.67765   -6933.2678   -6881.3208   -1012.5771    20579.182    4.6920495 
   23330    469.26102   -6933.6023   -6881.2555   -797.31531     20583.74    4.6905734 
   23340    492.46032   -6936.1002   -6881.1655   -939.35871    20586.501     4.689077 
   23350    492.48733   -6936.0217    -6881.084   -647.64255    20587.305    4.6887094 
   23360    473.30179    -6933.814   -6881.0165    91.672927    20586.792    4.6875402 
   23370     474.5376   -6933.8699   -6880.9345    349.34746    20586.376    4.6841769 
   23380     482.8057   -6934.6892   -6880.8315    349.03249    20586.676    4.6781622 
   23390    478.37269   -6934.0793   -6880.7161    546.25532    20587.806    4.6691768 
   23400    488.66553   -6935.1081   -6880.5967    410.73268    20590.055    4.6588376 
   23410    497.76935   -6936.0087   -6880.4818    141.61492    20593.207    4.6510438 
   23420    499.67466   -6936.1338   -6880.3944   -253.05849    20596.655    4.6474348 
   23430     487.6967   -6934.7406   -6880.3373   -265.55066    20599.649    4.6473308 
   23440    465.83418   -6932.2461   -6880.2816   -144.77979    20602.104    4.6494474 
   23450     464.0082    -6931.957   -6880.1962     -358.562    20604.175    4.6534518 
   23460    470.54123   -6932.5564   -6880.0669   -618.22969    20605.464    4.6612959 
   23470    479.68442   -6933.4204   -6879.9109   -725.08434    20605.431     4.671817 
   23480    473.56853   -6932.5686   -6879.7413   -487.17725    20603.902    4.6801224 
   23490    475.73219   -6932.6284   -6879.5597     -449.775    20601.276     4.682566 
   23500    486.63959   -6933.6501   -6879.3647   -528.41263    20597.646    4.6806328 
   23510    487.73823   -6933.5861   -6879.1781   -634.54215    20592.843    4.6774389 
   23520       489.14   -6933.5782   -6879.0139   -654.48163    20586.647    4.6728391 
   23530    485.30857   -6933.0044   -6878.8674   -154.99577    20579.102     4.665799 
   23540     480.0449   -6932.2766   -6878.7268    330.17415    20571.194    4.6572819 
   23550    491.73274   -6933.4459   -6878.5923    515.55582    20563.924    4.6487449 
   23560    496.20545   -6933.8322   -6878.4797    920.87168    20557.823    4.6408605 
   23570    493.20708   -6933.4148   -6878.3968    1258.0002    20553.689    4.6324574 
   23580    497.20317   -6933.7931   -6878.3293    1292.9325    20552.242    4.6247572 
   23590    497.67455   -6933.7984    -6878.282     1146.024    20553.583    4.6209688 
   23600    485.76441   -6932.4431   -6878.2554    1166.0379    20557.461    4.6224596 
   23610    475.03429   -6931.2238    -6878.233    1113.6599    20563.871    4.6267508 
   23620     467.7196   -6930.3699   -6878.1951    836.23579    20572.666    4.6298092 
   23630    460.82522   -6929.5302   -6878.1244    366.33651    20583.259     4.630955 
   23640    463.32831   -6929.6981   -6878.0132   -374.26663     20594.63    4.6324432 
   23650     474.4394   -6930.7945     -6877.87   -868.17945    20605.257    4.6364924 
   23660    477.08947   -6930.9366   -6877.7166   -602.57427    20614.152    4.6438599 
   23670    479.26853   -6931.0238   -6877.5607   -444.49734    20621.702    4.6528393 
   23680    494.95076   -6932.6177   -6877.4052   -582.49434     20628.25    4.6600343 
   23690    507.15532   -6933.8496   -6877.2756   -759.97213     20633.53    4.6645688 
   23700    507.76609   -6933.8428   -6877.2007    -814.8089    20637.183    4.6652583 
   23710    497.68586   -6932.6939   -6877.1763   -820.13027    20639.062    4.6601159 
   23720    494.01173   -6932.2842   -6877.1765   -760.54783    20639.176    4.6483216 
   23730    507.12795   -6933.7693   -6877.1985   -865.93792    20637.604    4.6322761 
   23740    508.52479   -6933.9875   -6877.2608   -963.54787    20634.144    4.6171586 
   23750    497.08146   -6932.8154   -6877.3652   -889.77606    20628.592    4.6041941 
   23760    493.42895   -6932.5314   -6877.4886   -909.65497    20621.042    4.5918483 
   23770    498.34719   -6933.2189   -6877.6275   -1165.8003    20611.414    4.5803151 
   23780    495.95079   -6933.1128   -6877.7888   -1408.8907    20599.205    4.5703638 
   23790    496.33288   -6933.3392   -6877.9725   -1537.1842    20583.893    4.5605312 
   23800    499.57427   -6933.9078   -6878.1796   -1160.3657    20565.274    4.5475491 
   23810    494.39882   -6933.5535   -6878.4026   -295.94868    20544.156    4.5296673 
   23820    487.87506   -6933.0496   -6878.6264    605.35786    20522.343    4.5077119 
   23830    479.84766   -6932.3639   -6878.8361    1148.5257    20501.687    4.4845538 
   23840    475.36791   -6932.0472   -6879.0192    1437.7824    20483.408    4.4653399 
   23850    489.68593   -6933.8107   -6879.1855    1609.9431    20468.176    4.4535842 
   23860    501.86006   -6935.3458   -6879.3625    1783.5312    20456.368    4.4474451 
   23870    489.85147   -6934.2066    -6879.563    1945.7181    20448.371    4.4418317 
   23880     476.4357    -6932.912   -6879.7649    1746.5235    20444.478    4.4327266 
   23890    478.99275   -6933.3815   -6879.9491    1411.3456     20444.31    4.4209459 
   23900    483.82224    -6934.086   -6880.1149    1370.5322    20447.264    4.4113885 
   23910     484.7734   -6934.3516   -6880.2744    1348.9311    20453.222    4.4076895 
   23920    473.93766   -6933.2877   -6880.4193    1099.1455    20462.099    4.4084041 
   23930    486.04515   -6934.7617   -6880.5427    438.99387    20473.337     4.408769 
   23940    496.52468   -6936.0531    -6880.665   -241.77819    20485.591    4.4088474 
   23950    467.23121   -6932.9118   -6880.7914   -231.96267    20497.564    4.4107651 
   23960    461.76043   -6932.3998   -6880.8897   -297.98003    20509.107    4.4131989 
   23970    484.74287   -6935.0291   -6880.9553   -567.10823    20520.042    4.4146896 
   23980    484.35933   -6935.0419   -6881.0109   -423.10703     20529.93    4.4142534 
   23990    488.00564   -6935.5149   -6881.0772   -307.86198    20538.971    4.4114051 
   24000    491.40222   -6935.9698   -6881.1531   -233.00196    20547.392    4.4089628 
   24010    487.60121   -6935.6313   -6881.2387    47.465854    20555.409    4.4105705 
   24020    489.36561   -6935.9336   -6881.3442    318.97855    20563.583    4.4177411 
   24030    477.39409   -6934.7253   -6881.4712     562.0229    20572.518    4.4275743 
   24040    467.56776     -6933.77   -6881.6121    504.46114    20582.695    4.4341785 
   24050    463.71392    -6933.466    -6881.738     11.24655    20593.964    4.4351839 
   24060    471.47112   -6934.4223    -6881.829   -779.92617    20605.269    4.4332297 
   24070    471.76237   -6934.5046   -6881.8788   -1445.2257    20614.953    4.4340404 
   24080    463.73062   -6933.6193   -6881.8894   -1628.8076    20621.622    4.4414082 
   24090    466.92544   -6933.9457   -6881.8594   -1700.9792    20624.736    4.4542983 
   24100    466.08344   -6933.7724   -6881.7801   -1560.0793    20624.187    4.4687402 
   24110    475.51455   -6934.6998   -6881.6555   -1683.3123    20620.144    4.4790671 
   24120    484.25752   -6935.5181   -6881.4984   -1424.3378    20612.493    4.4831144 
   24130    478.56423   -6934.7056    -6881.321    -891.3202    20601.782    4.4814477 
   24140    485.24367   -6935.2497   -6881.1201   -917.78615    20589.003    4.4753508 
   24150    488.78775   -6935.4213   -6880.8963   -889.78019    20574.239    4.4672346 
   24160     479.5775   -6934.1546    -6880.657   -431.55263    20557.654    4.4580561 
   24170    485.51874     -6934.56   -6880.3996   -362.94615    20540.064    4.4475554 
   24180     493.0822   -6935.1354   -6880.1314   -85.283624    20521.769     4.438227 
   24190    483.17737   -6933.7599   -6879.8607    708.39867    20503.441    4.4337907 
   24200    488.94579   -6934.1287    -6879.586    1031.5662    20486.578    4.4346352 
   24210    491.85362   -6934.1753   -6879.3083    1045.2361    20471.917    4.4413871 
   24220    486.34136   -6933.2947   -6879.0426    1338.0268    20459.603    4.4530884 
   24230    483.09335   -6932.6728    -6878.783    1524.9063    20450.161    4.4658996 
   24240    492.90688   -6933.5122   -6878.5277     1290.381    20443.932    4.4761252 
   24250    501.57972   -6934.2414   -6878.2894    987.17231    20440.481     4.482398 
   24260    494.13259   -6933.2059   -6878.0847    1199.8934    20439.285    4.4868584 
   24270    491.62556   -6932.7461   -6877.9046    1262.7953    20440.642    4.4913749 
   24280    499.29522   -6933.4398   -6877.7427    1176.1808    20444.694    4.4973012 
   24290    487.26273   -6931.9534   -6877.5985    1610.7133    20451.417    4.5044496 
   24300    482.09503    -6931.243   -6877.4646    1624.5076    20461.534    4.5101351 
   24310    486.92504    -6931.636   -6877.3188    956.63174    20475.054    4.5118097 
   24320    499.30766   -6932.8657   -6877.1672    119.52101    20490.639    4.5089897 
   24330    506.69568   -6933.5513   -6877.0287   -467.49422    20506.555    4.5050103 
   24340    503.06466   -6933.0386    -6876.921   -522.70294    20521.579    4.5044093 
   24350    495.50517   -6932.1151   -6876.8408   -320.17922    20535.544    4.5101951 
   24360    492.47936   -6931.7155   -6876.7787   -504.28467    20548.733    4.5220696 
   24370    499.16459   -6932.4096    -6876.727   -887.43469    20560.791    4.5355931 
   24380    503.48588   -6932.8524   -6876.6878   -1005.8834    20570.958    4.5453227 
   24390    507.85443   -6933.3321   -6876.6802    -909.2358    20578.944    4.5486272 
   24400    508.42707   -6933.4424   -6876.7266    -625.6647    20584.965    4.5468715 
   24410    492.33229   -6931.7419   -6876.8215   -349.49748    20589.615    4.5444723 
   24420    484.36101   -6930.9754   -6876.9442   -297.17224    20593.446    4.5464866 
   24430    480.92985   -6930.7222   -6877.0737   -268.94577    20596.623    4.5561445 
   24440    482.02922   -6930.9748   -6877.2037   -530.29152    20599.142    4.5700473 
   24450    486.84008   -6931.6459   -6877.3382   -1024.0764    20600.439    4.5826773 
   24460    485.94781   -6931.6937   -6877.4855     -1221.65    20599.568    4.5913249 
   24470    484.26245   -6931.6634   -6877.6432   -1128.8313    20596.106    4.5957227 
   24480    490.20775   -6932.4974    -6877.814   -1229.2077    20590.147    4.5972912 
   24490    492.82059   -6932.9897   -6878.0148   -1409.1544    20581.502    4.5979152 
   24500    486.06642   -6932.4743   -6878.2528   -1313.4896    20569.855    4.5982444 
   24510    474.67819   -6931.4599   -6878.5088   -759.75508    20555.471    4.5976115 
   24520    476.72904   -6931.9413   -6878.7614    62.286512    20539.534    4.5956343 
   24530    486.29674   -6933.2597   -6879.0126    1022.2415    20523.819    4.5930648 
   24540    489.11309   -6933.8437   -6879.2824    1984.7404     20510.39    4.5915098 
   24550     485.3799   -6933.7174   -6879.5725    2390.5463    20501.204    4.5889227 
   24560    497.63628   -6935.4106   -6879.8985    2167.4205    20497.096    4.5816113 
   24570     492.9885   -6935.2641   -6880.2705    1992.7977    20497.709    4.5714216 
   24580    475.17222   -6933.6677   -6880.6615    1816.8653    20502.641    4.5637457 
   24590    465.69392   -6932.9786   -6881.0297    1607.7492    20511.506    4.5630716 
   24600    465.69144   -6933.3026    -6881.354    1615.8086    20523.897    4.5708862 
   24610    469.28909   -6933.9861   -6881.6362    1893.6694    20539.855    4.5832541 
   24620    468.72837   -6934.1648   -6881.8774     1785.508    20559.842    4.5954934 
   24630    470.89867   -6934.6027   -6882.0732    1084.0642    20583.602    4.6048828 
   24640    475.58767   -6935.2713   -6882.2188    342.55091    20609.736     4.609237 
   24650    481.89487   -6936.0829   -6882.3268   -147.29946     20636.65    4.6086579 
   24660    482.13007   -6936.1965   -6882.4142   -335.17763    20663.294    4.6058556 
   24670     478.9853   -6935.9172   -6882.4857   -569.82179    20689.171    4.6042606 
   24680    472.32868   -6935.2231   -6882.5342   -808.97401    20713.758    4.6066931 
   24690    461.44755   -6934.0208   -6882.5456   -847.38917    20736.578    4.6147952 
   24700    458.84141   -6933.6904    -6882.506   -930.34646    20757.485    4.6266766 
   24710    459.61197   -6933.6744   -6882.4039   -1057.0197     20776.29     4.639785 
   24720    458.38933   -6933.3716   -6882.2376   -1076.6859    20792.748    4.6529351 
   24730    460.38474   -6933.3563   -6881.9997   -1402.8636    20806.721    4.6646742 
   24740    471.46507   -6934.2807   -6881.6881   -2030.4367    20817.483    4.6727863 
   24750    472.50122   -6934.0246   -6881.3164   -2231.5785    20823.784    4.6758964 
   24760    465.06622   -6932.7797   -6880.9008   -2009.3508    20825.187    4.6737874 
   24770    477.94317   -6933.7572   -6880.4419   -2256.2047    20821.989    4.6659516 
   24780    489.85114   -6934.6051   -6879.9615   -2352.7509      20813.8    4.6530634 
   24790    478.95615   -6932.9442   -6879.5159   -1745.9587    20800.542    4.6384418 
   24800    470.48338   -6931.6009   -6879.1177   -1089.4739    20783.438    4.6267424 
   24810    476.26426   -6931.8885   -6878.7605   -805.15367    20763.877    4.6207251 
   24820    481.53951   -6932.1752   -6878.4588   -489.61379    20742.588    4.6187291 
   24830    480.27393   -6931.7904   -6878.2152   -270.53513     20720.25    4.6177229 
   24840    503.53279   -6934.2043   -6878.0345   -689.14983    20697.233    4.6171883 
   24850    513.72963   -6935.2406   -6877.9333   -877.87166    20672.799     4.620369 
   24860    488.05068   -6932.3383   -6877.8955   -156.11787    20646.697    4.6275219 
   24870    474.90813   -6930.8352   -6877.8585     666.3222     20620.37    4.6344052 
   24880    486.08815   -6932.0199    -6877.796    952.05081    20595.501    4.6383619 
   24890    495.68542   -6933.0236   -6877.7292    1000.4204    20572.788    4.6401502 
   24900    490.00416   -6932.3408   -6877.6801    1299.8354    20552.425    4.6418397 
   24910    478.39826   -6931.0004   -6877.6343    2008.3855    20535.102    4.6451149 
   24920    478.07717   -6930.9051   -6877.5749    2480.9204    20522.167     4.648982 
   24930    485.36217   -6931.6427   -6877.4998    2614.0872    20514.615    4.6508286 
   24940    493.89792   -6932.5176   -6877.4226    2097.5673    20512.627    4.6503991 
   24950    498.46856   -6932.9632   -6877.3583    1400.1805    20515.165    4.6499572 
   24960     503.0425   -6933.4394   -6877.3242    915.87053    20520.766    4.6521463 
   24970    492.20755    -6932.232   -6877.3255    799.51989      20528.4      4.65721 
   24980    481.99093    -6931.109   -6877.3422    699.48276    20537.746    4.6631081 
   24990    488.79371   -6931.8839   -6877.3582    373.20919    20548.534      4.66927 
   25000    484.04033   -6931.3647   -6877.3692    253.96478     20560.15    4.6767661 
Loop time of 11814 on 16 procs for 20000 steps with 864 atoms

Performance: 0.146 ns/day, 164.083 hours/ns, 1.693 timesteps/s
96.4% CPU use with 16 MPI tasks x 1 OpenMP threads

MPI task timing breakdown:
Section |  min time  |  avg time  |  max time  |%varavg| %total
---------------------------------------------------------------
Pair    | 6534.6     | 9430.3     | 11717      |1579.9 | 79.82
Bond    | 0.0016341  | 0.003823   | 0.0069466  |   2.5 |  0.00
Neigh   | 0.1977     | 0.28194    | 0.36987    |  11.3 |  0.00
Comm    | 87.139     | 1809       | 4462.6     |3395.5 | 15.31
Output  | 5.9811     | 6.0111     | 6.4454     |   4.6 |  0.05
Modify  | 2.512      | 568.38     | 1013.1     |1852.2 |  4.81
Other   |            | 0.08181    |            |       |  0.00

Nlocal:        54.0000 ave          69 max          41 min
Histogram: 3 3 0 1 1 1 3 1 1 2
Nghost:        484.688 ave         549 max         419 min
Histogram: 2 3 0 1 1 3 0 1 3 2
Neighs:         0.00000 ave           0 max           0 min
Histogram: 16 0 0 0 0 0 0 0 0 0
FullNghs:      2363.00 ave        3605 max        1367 min
Histogram: 3 3 0 2 1 0 3 1 1 2

Total # of neighbors = 37808
Ave neighs/atom = 43.759259
Ave special neighs/atom = 0.0000000
Neighbor list builds = 2000
Dangerous builds = 2000
unfix   3
                
Total wall time: 4:05:44
