LAMMPS (29 Sep 2021 - Update 3)
OMP_NUM_THREADS environment is not set. Defaulting to 1 thread. (src/comm.cpp:98)
  using 1 OpenMP thread(s) per MPI task
Reading data file ...
  orthogonal box = (0.0000000 0.0000000 0.0000000) to (15.857269 15.758596 73.856324)
  2 by 1 by 8 MPI processor grid
  reading atoms ...
  864 atoms
Finding 1-2 1-3 1-4 neighbors ...
  special bond factors lj:    0        0        0       
  special bond factors coul:  0        0        0       
     0 = max # of 1-2 neighbors
     0 = max # of 1-3 neighbors
     0 = max # of 1-4 neighbors
     1 = max # of special neighbors
  special bonds CPU = 0.001 seconds
  read_data CPU = 0.008 seconds
Neighbor list info ...
  update every 1 steps, delay 10 steps, check yes
  max neighbors/atom: 2000, page size: 100000
  master list distance cutoff = 6.22
  ghost atom cutoff = 6.22
  binsize = 3.11, bins = 6 6 24
  1 neighbor lists, perpetual/occasional/extra = 1 0 0
  (1) pair quip, perpetual
      attributes: full, newton on
      pair build: full/bin
      stencil: full/bin/3d
      bin: standard
Setting up Verlet run ...
  Unit style    : metal
  Current step  : 0
  Time step     : 0.001
Per MPI rank memory allocation (min/avg/max) = 8.896 | 8.907 | 8.915 Mbytes
Step Temp PotEng TotEng Press Volume c_msd[4] 
       0            0   -6680.0933   -6680.0933   -8281.1165    18455.831            0 
      10    70.089017   -6687.9205    -6680.102   -9637.9304    18455.831 0.00053514082 
      20    180.09083   -6700.2003   -6680.1109   -11326.743    18455.831 0.0066144209 
      30    218.60542   -6704.4933   -6680.1075   -10699.378    18455.831  0.022432956 
      40    219.14865   -6704.5494    -6680.103   -8951.3193    18455.831  0.042690684 
      50    240.47609   -6706.9311   -6680.1056   -8003.5149    18455.831  0.059191698 
      60    253.66901   -6708.4039   -6680.1068    -7626.627    18455.831   0.07070925 
      70     242.9182   -6707.2018   -6680.1039   -7466.6829    18455.831  0.079364222 
      80    245.92472    -6707.537   -6680.1038   -7609.4954    18455.831  0.086633288 
      90    257.49674   -6708.8305   -6680.1063   -7851.5904    18455.831  0.095173812 
     100    252.46946   -6708.2676   -6680.1043   -7551.0395    18455.831   0.10676573 
     110    248.46405   -6707.8212   -6680.1047   -7097.6705    18455.831   0.12025968 
     120    250.68872   -6708.0687    -6680.104   -6824.8497    18455.831   0.13340609 
     130      258.818   -6708.9777   -6680.1062   -6596.3887    18455.831   0.14573975 
     140    253.60976   -6708.3953   -6680.1047   -6185.2051    18455.831   0.15889724 
     150    247.40375   -6707.7026   -6680.1043   -5947.5032    18455.831   0.17318983 
     160    248.95468   -6707.8762   -6680.1049   -5851.7986    18455.831   0.18766652 
     170    251.06346   -6708.1121   -6680.1056   -5590.4969    18455.831   0.20144657 
     180    246.23782    -6707.572   -6680.1038   -5247.2261    18455.831   0.21382042 
     190    251.48989   -6708.1586   -6680.1045   -5416.1608    18455.831   0.22371169 
     200    260.44308   -6709.1586   -6680.1058   -5793.9896    18455.831   0.23141162 
     210    257.82494   -6708.8658    -6680.105   -6133.6533    18455.831   0.23844771 
     220    250.73963   -6708.0747   -6680.1043   -6257.2025    18455.831   0.24564622 
     230    248.07271   -6707.7773   -6680.1044   -6243.0592    18455.831   0.25309034 
     240    248.93862   -6707.8742   -6680.1047   -6226.9294    18455.831   0.26091643 
     250    248.99388   -6707.8804   -6680.1047   -6334.5414    18455.831   0.26913526 
     260    251.27669   -6708.1344   -6680.1041   -6551.8246    18455.831   0.27705303 
     270    260.34527   -6709.1477   -6680.1058        -6764    18455.831   0.28421607 
     280    260.83001   -6709.2011   -6680.1051   -6639.8092    18455.831   0.29163604 
     290    256.24266   -6708.6893    -6680.105   -6449.9322    18455.831   0.29974682 
     300    250.69638     -6708.07   -6680.1044   -6471.1016    18455.831   0.30849754 
     310    250.05901    -6707.999   -6680.1046   -6562.0942    18455.831   0.31777754 
     320    252.23509   -6708.2423   -6680.1051   -6693.6464    18455.831   0.32755563 
     330    250.81469   -6708.0833   -6680.1046   -6713.8004    18455.831   0.33779883 
     340    250.65515   -6708.0657   -6680.1047     -6614.52    18455.831   0.34801692 
     350    252.94275   -6708.3202   -6680.1041   -6588.7327    18455.831   0.35730468 
     360    261.50627   -6709.2774    -6680.106   -6797.9362    18455.831   0.36504658 
     370    261.10007   -6709.2316   -6680.1055   -6831.7443    18455.831   0.37190178 
     380    253.99916   -6708.4387   -6680.1047   -6726.1215    18455.831   0.37827271 
     390    253.05009   -6708.3325   -6680.1044    -6835.806    18455.831   0.38397661 
     400    258.03703   -6708.8906   -6680.1062   -6768.7818    18455.831   0.38955387 
     410      252.036   -6708.2195   -6680.1045   -6292.4532    18455.831   0.39652014 
     420    250.52201   -6708.0507   -6680.1046   -5826.2725    18455.831   0.40500255 
     430    256.29495   -6708.6954   -6680.1053    -5546.315    18455.831    0.4145153 
     440    262.43605   -6709.3808   -6680.1057   -5439.0868    18455.831   0.42473971 
     450    264.26046   -6709.5844   -6680.1058   -5272.9671    18455.831   0.43527985 
     460    262.52327   -6709.3894   -6680.1046   -5195.9426    18455.831   0.44476232 
     470    267.68384   -6709.9661   -6680.1056   -5304.7962    18455.831   0.45177569 
     480    270.55653   -6710.2863   -6680.1053   -5291.2639    18455.831   0.45687774 
     490    270.72724   -6710.3054   -6680.1053   -5218.7322    18455.831   0.46120142 
     500    269.05227   -6710.1187   -6680.1055   -5175.8745    18455.831   0.46642946 
     510    263.94553   -6709.5489   -6680.1053   -5239.9274    18455.831   0.47407361 
     520    257.63711   -6708.8446   -6680.1048   -5291.7388    18455.831   0.48412853 
     530    257.06548   -6708.7811   -6680.1051   -5321.5334    18455.831   0.49506416 
     540    260.38526   -6709.1518   -6680.1055   -5376.0867    18455.831   0.50501047 
     550    260.91759   -6709.2118    -6680.106    -5479.615    18455.831   0.51322197 
     560    255.01677   -6708.5518   -6680.1043   -5675.0057    18455.831   0.52041437 
     570     259.1908   -6709.0183   -6680.1051   -6233.3417    18455.831    0.5272333 
     580    265.73933   -6709.7494   -6680.1058   -6810.0612    18455.831   0.53425593 
     590    267.07214   -6709.8973    -6680.105   -7271.0617    18455.831   0.54173358 
     600    270.59769   -6710.2906    -6680.105   -7669.4363    18455.831   0.54966243 
     610    275.51295   -6710.8394   -6680.1055   -7859.4286    18455.831   0.55825095 
     620    275.26386   -6710.8118   -6680.1057   -7564.3126    18455.831   0.56786247 
     630    267.62803    -6709.959   -6680.1047   -6980.9593    18455.831   0.57832835 
     640    265.09163   -6709.6761   -6680.1047   -6568.2152    18455.831   0.58820723 
     650    267.67247   -6709.9653    -6680.106    -6347.284    18455.831   0.59641333 
     660    264.01415   -6709.5562    -6680.105   -5916.0469    18455.831   0.60309646 
     670    263.52965    -6709.502   -6680.1049   -5671.0684    18455.831   0.60844331 
     680    269.00124    -6710.113   -6680.1055   -5692.2827    18455.831    0.6132683 
     690    271.45591    -6710.387   -6680.1057   -5574.8525    18455.831   0.61933075 
     700     270.0884   -6710.2336   -6680.1048   -5412.3704    18455.831   0.62727776 
     710    274.16504    -6710.689   -6680.1055   -5445.9009    18455.831   0.63604213 
     720    276.77226   -6710.9801   -6680.1057   -5459.4182    18455.831   0.64454539 
     730    275.88502   -6710.8806   -6680.1052    -5417.932    18455.831   0.65171241 
     740    275.85971   -6710.8783   -6680.1057   -5536.9233    18455.831   0.65662341 
     750    272.97993   -6710.5569   -6680.1056   -5708.1328    18455.831    0.6598394 
     760    268.28422    -6710.033   -6680.1055   -5761.8441    18455.831   0.66298993 
     770    264.14144   -6709.5705   -6680.1051   -5775.8492    18455.831   0.66717813 
     780    263.51726    -6709.501   -6680.1053   -5700.2554    18455.831   0.67265545 
     790    266.55703   -6709.8409    -6680.106    -5605.591    18455.831   0.67864068 
     800    265.59911   -6709.7343   -6680.1063   -5512.5062    18455.831   0.68325498 
     810    257.26872   -6708.8037    -6680.105    -5609.846    18455.831   0.68551207 
     820    257.02246   -6708.7759   -6680.1047   -5957.2323    18455.831   0.68532325 
     830    268.49996   -6710.0576    -6680.106   -6395.3276    18455.831   0.68384718 
     840      275.603   -6710.8497   -6680.1057   -6790.5333    18455.831   0.68323699 
     850    277.81756   -6711.0961   -6680.1052   -7039.0507    18455.831   0.68429619 
     860    281.61629     -6711.52   -6680.1053    -7112.387    18455.831   0.68675849 
     870    285.63694   -6711.9688   -6680.1055   -6936.0551    18455.831    0.6904508 
     880    286.29079   -6712.0419   -6680.1057   -6480.6542    18455.831   0.69538495 
     890    281.96956   -6711.5596   -6680.1055   -6039.8274    18455.831   0.70113257 
     900    274.65893   -6710.7442   -6680.1055     -5564.23    18455.831   0.70667182 
     910    267.20366   -6709.9114   -6680.1045   -5257.3591    18455.831   0.71136984 
     920     269.3838   -6710.1555   -6680.1053    -5367.122    18455.831   0.71512054 
     930    273.08823   -6710.5689   -6680.1055   -5720.7294    18455.831   0.71853359 
     940    275.14424   -6710.7982   -6680.1055   -5917.6904    18455.831   0.72236347 
     950    276.67291   -6710.9689   -6680.1056   -5610.0935    18455.831   0.72713733 
     960    276.62748   -6710.9635   -6680.1053   -5046.3658    18455.831   0.73337224 
     970     278.3434   -6711.1556   -6680.1059   -4610.3497    18455.831   0.74121898 
     980    276.50421   -6710.9503   -6680.1058   -4305.2609    18455.831   0.75038076 
     990    274.46428   -6710.7216   -6680.1047   -4327.9119    18455.831   0.75935205 
    1000    282.87647   -6711.6614   -6680.1061   -4696.6429    18455.831   0.76641954 
    1010    286.63377   -6712.0812   -6680.1068   -4990.2699    18455.831   0.77271728 
    1020    279.06324   -6711.2352   -6680.1053   -4771.2676    18455.831   0.78024384 
    1030    275.82234   -6710.8738   -6680.1054    -4403.339    18455.831   0.78871428 
    1040    278.66942   -6711.1919   -6680.1059   -3941.2604    18455.831   0.79675694 
    1050    279.04998   -6711.2352   -6680.1068   -3356.1301    18455.831   0.80429238 
    1060    270.39607   -6710.2685   -6680.1054   -2836.7873    18455.831   0.81167046 
    1070    268.92869   -6710.1046   -6680.1052   -2775.6081    18455.831   0.81774479 
    1080    276.86697   -6710.9921   -6680.1072   -2982.0197    18455.831   0.82183502 
    1090    273.51021   -6710.6167   -6680.1062   -3002.8881    18455.831   0.82504043 
    1100    268.10286   -6710.0129   -6680.1056    -3041.916    18455.831   0.82859974 
    1110    268.86345   -6710.0983   -6680.1061   -3274.5241    18455.831   0.83307382 
    1120    271.12867   -6710.3511   -6680.1063   -3502.0504    18455.831   0.83788345 
    1130    271.41072   -6710.3825   -6680.1063   -3567.0764    18455.831   0.84210043 
    1140    271.86949   -6710.4327   -6680.1053   -3657.0206    18455.831   0.84510588 
    1150    281.86599   -6711.5491   -6680.1065   -4076.7437    18455.831    0.8468347 
    1160    288.73127   -6712.3154    -6680.107   -4317.2032    18455.831    0.8485126 
    1170    284.72713   -6711.8682   -6680.1065   -4221.6867    18455.831   0.85124425 
    1180    277.76624   -6711.0907   -6680.1055   -3786.2546    18455.831   0.85522238 
    1190    278.42764   -6711.1658   -6680.1068   -3453.5254    18455.831   0.86063272 
    1200    274.57485   -6710.7358   -6680.1066   -3135.4804    18455.831   0.86799772 
    1210    268.17301   -6710.0207   -6680.1056   -3061.7485    18455.831   0.87596914 
    1220    269.73514   -6710.1951   -6680.1058   -3498.6687    18455.831   0.88197829 
    1230    275.57277   -6710.8475    -6680.107   -3998.6686    18455.831   0.88464671 
    1240    273.28864   -6710.5919   -6680.1062   -4275.4959    18455.831   0.88485118 
    1250    269.21341   -6710.1371    -6680.106   -4301.1389    18455.831   0.88413656 
    1260    268.47841   -6710.0549   -6680.1057   -4311.1873    18455.831   0.88296339 
    1270    272.54156   -6710.5085   -6680.1061   -4356.8217    18455.831   0.88172746 
    1280    277.77621   -6711.0926   -6680.1063   -4588.2508    18455.831   0.88180594 
    1290    280.19269   -6711.3629    -6680.107   -4852.3632    18455.831   0.88389526 
    1300    274.38994   -6710.7142   -6680.1056   -4801.0391    18455.831   0.88737003 
    1310    272.68687   -6710.5248   -6680.1062   -4600.8128    18455.831   0.89133871 
    1320    273.33879   -6710.5972   -6680.1059   -4506.2257    18455.831   0.89528436 
    1330    275.86937     -6710.88   -6680.1064   -4590.7459    18455.831   0.89889495 
    1340    276.57557   -6710.9584    -6680.106   -4592.8619    18455.831   0.90245999 
    1350    276.61512   -6710.9634   -6680.1066   -4506.7758    18455.831   0.90646299 
    1360    272.26073   -6710.4771    -6680.106   -4467.2196    18455.831   0.91136845 
    1370    268.73878   -6710.0839   -6680.1057   -4589.1112    18455.831   0.91701889 
    1380    269.83102   -6710.2061    -6680.106   -4803.1401    18455.831   0.92344131 
    1390    271.01809   -6710.3391   -6680.1066   -4995.7936    18455.831   0.93117145 
    1400    266.53417   -6709.8383   -6680.1061   -4887.7324    18455.831   0.93925395 
    1410    264.34979   -6709.5941   -6680.1054   -4661.6641    18455.831   0.94440069 
    1420    271.24246   -6710.3639   -6680.1064   -4782.1646    18455.831   0.94464645 
    1430    278.14891   -6711.1341   -6680.1062   -5345.1098    18455.831   0.94130273 
    1440    284.26073    -6711.816   -6680.1063   -5956.3496    18455.831    0.9366539 
    1450    286.06102   -6712.0176    -6680.107   -6473.9841    18455.831   0.93338269 
    1460    278.13817   -6711.1322   -6680.1055    -6637.014    18455.831   0.93336514 
    1470    274.95588   -6710.7774   -6680.1057   -6848.7234    18455.831   0.93597431 
    1480    275.34081   -6710.8209   -6680.1062   -7017.9963    18455.831   0.93943367 
    1490    271.96867   -6710.4442   -6680.1057   -6827.7136    18455.831   0.94245071 
    1500    271.43894   -6710.3851   -6680.1057   -6399.8258    18455.831   0.94456699 
    1510    273.11981   -6710.5738   -6680.1069   -5919.9683    18455.831   0.94612167 
    1520    266.58025   -6709.8431   -6680.1057   -5429.0631    18455.831   0.94681802 
    1530    264.24493   -6709.5825   -6680.1056   -5386.7007    18455.831   0.94511663 
    1540    268.14703   -6710.0187   -6680.1065   -5636.8718    18455.831   0.94138542 
    1550    270.20911    -6710.248   -6680.1058   -5845.7424    18455.831   0.93815309 
    1560    276.27553   -6710.9252   -6680.1062   -5792.6983    18455.831   0.93754478 
    1570    281.48981   -6711.5074   -6680.1068   -5440.6487    18455.831   0.94039184 
    1580    279.21915   -6711.2534    -6680.106   -4999.2991    18455.831   0.94601391 
    1590     277.1071   -6711.0177    -6680.106   -4867.2447    18455.831   0.95254979 
    1600    278.30993   -6711.1519    -6680.106   -4854.7315    18455.831   0.95811089 
    1610    283.09805   -6711.6862   -6680.1062   -4922.4033    18455.831   0.96206314 
    1620    285.07138   -6711.9077   -6680.1076   -4696.0901    18455.831   0.96577017 
    1630    273.23535   -6710.5854   -6680.1056   -4246.7962    18455.831   0.97096923 
    1640     267.7179   -6709.9697   -6680.1053   -4035.6486    18455.831     0.977191 
    1650    272.52244   -6710.5064   -6680.1061   -4111.8074    18455.831   0.98346373 
    1660     277.8589   -6711.1018   -6680.1062   -4253.7363    18455.831   0.98934697 
    1670    281.07361    -6711.461   -6680.1068   -4561.0787    18455.831   0.99446833 
    1680    278.83973   -6711.2107   -6680.1057   -4801.2753    18455.831   0.99855733 
    1690    282.27607   -6711.5942   -6680.1059   -5070.8212    18455.831    1.0013333 
    1700    288.92729   -6712.3376   -6680.1074   -5075.7299    18455.831    1.0032748 
    1710    283.97303   -6711.7838   -6680.1062   -4524.3033    18455.831    1.0056492 
    1720    280.32496   -6711.3763   -6680.1056   -4088.2037    18455.831    1.0090707 
    1730    285.00962   -6711.9005   -6680.1072   -4166.6509    18455.831    1.0129097 
    1740    281.71349    -6711.532   -6680.1064   -4428.6075    18455.831    1.0162807 
    1750    277.27178   -6711.0355   -6680.1055   -4669.9286    18455.831    1.0185587 
    1760    282.23006   -6711.5895   -6680.1063   -4723.6015    18455.831    1.0199448 
    1770    285.90961   -6712.0006   -6680.1069   -4414.9618    18455.831      1.02094 
    1780    282.38129   -6711.6061    -6680.106   -3873.7091    18455.831    1.0213084 
    1790    282.44165    -6711.613   -6680.1062   -3619.8434    18455.831    1.0208436 
    1800    287.55602   -6712.1841   -6680.1067   -3726.4708    18455.831    1.0207901 
    1810    288.11308   -6712.2473   -6680.1079    -3934.633    18455.831    1.0230701 
    1820    276.98552   -6711.0034   -6680.1052    -4186.202    18455.831    1.0283135 
    1830    277.15263   -6711.0235   -6680.1067   -4345.9838    18455.831    1.0350393 
    1840    276.23823   -6710.9215   -6680.1067   -4368.7653    18455.831    1.0414724 
    1850    273.19513   -6710.5804   -6680.1051   -4416.5455    18455.831    1.0455768 
    1860    283.83055   -6711.7684   -6680.1067   -4696.8368    18455.831    1.0462471 
    1870    291.37755   -6712.6113   -6680.1077   -4729.2468    18455.831    1.0448258 
    1880    283.33807   -6711.7134   -6680.1066   -4658.1696    18455.831    1.0428769 
    1890    273.10669    -6710.571   -6680.1055   -4806.2478    18455.831     1.040683 
    1900    272.25017   -6710.4761   -6680.1062   -4992.1727    18455.831    1.0384095 
    1910    274.11365   -6710.6842   -6680.1065    -4851.611    18455.831    1.0367748 
    1920     274.3815    -6710.714   -6680.1064   -4374.9654    18455.831    1.0362621 
    1930    273.80361   -6710.6496   -6680.1064   -3953.3671    18455.831    1.0369737 
    1940    273.81216   -6710.6506   -6680.1064   -3660.7249    18455.831     1.038631 
    1950     274.0972   -6710.6826   -6680.1067   -3555.6748    18455.831    1.0408007 
    1960     275.1804   -6710.8028    -6680.106   -3995.0323    18455.831    1.0431217 
    1970    281.99645   -6711.5638   -6680.1067   -4818.7611    18455.831    1.0450424 
    1980     287.0536   -6712.1285   -6680.1072   -5430.2829    18455.831    1.0464652 
    1990    282.90097   -6711.6645   -6680.1064   -5324.8363    18455.831    1.0478613 
    2000    278.29624   -6711.1501   -6680.1058   -5003.2499    18455.831    1.0492005 
Loop time of 1199.27 on 16 procs for 2000 steps with 864 atoms

Performance: 0.144 ns/day, 166.565 hours/ns, 1.668 timesteps/s
97.4% CPU use with 16 MPI tasks x 1 OpenMP threads

MPI task timing breakdown:
Section |  min time  |  avg time  |  max time  |%varavg| %total
---------------------------------------------------------------
Pair    | 429.3      | 793.7      | 1198.6     | 622.7 | 66.18
Bond    | 0.00017142 | 0.00048339 | 0.00097799 |   0.0 |  0.00
Neigh   | 0.018541   | 0.030252   | 0.050068   |   4.0 |  0.00
Comm    | 0.40494    | 356.54     | 722.31     | 855.5 | 29.73
Output  | 0.14663    | 26.854     | 60.659     | 463.3 |  2.24
Modify  | 0.0082836  | 0.0099824  | 0.011796   |   1.0 |  0.00
Other   |            | 22.12      |            |       |  1.84

Nlocal:        54.0000 ave          86 max          35 min
Histogram: 1 1 3 7 2 1 0 0 0 1
Nghost:        537.750 ave         662 max         448 min
Histogram: 3 1 1 5 0 0 3 1 1 1
Neighs:         0.00000 ave           0 max           0 min
Histogram: 16 0 0 0 0 0 0 0 0 0
FullNghs:      2646.75 ave        5387 max        1216 min
Histogram: 2 2 3 4 3 1 0 0 0 1

Total # of neighbors = 42348
Ave neighs/atom = 49.013889
Ave special neighs/atom = 0.0000000
Neighbor list builds = 199
Dangerous builds = 198
Setting up Verlet run ...
  Unit style    : metal
  Current step  : 2000
  Time step     : 0.001
Per MPI rank memory allocation (min/avg/max) = 8.897 | 8.909 | 8.917 Mbytes
Step Temp PotEng TotEng Press Volume c_msd[4] 
    2000          900   -6711.1501   -6610.7538   -989.55439    18455.831    1.0492005 
    2010    787.08483    -6698.518   -6610.7175     1649.681    18455.579     1.056603 
    2020    628.69844   -6680.6252   -6610.4929     5158.499    18456.947    1.0736606 
    2030    587.43835    -6675.475   -6609.9454    5604.9574    18462.951    1.0894304 
    2040    565.24182   -6672.0651   -6609.0116    4935.3907    18474.222    1.1052926 
    2050    541.40814   -6668.2645   -6607.8696    4462.5547    18490.249    1.1217752 
    2060    553.51606   -6668.4892   -6606.7437    3602.9891    18510.537     1.137225 
    2070    574.16899   -6669.7569   -6605.7075    3077.7866    18534.349    1.1530539 
    2080    589.50353   -6670.4668   -6604.7068    2915.6531    18561.206    1.1698973 
    2090     592.9883   -6669.7832   -6603.6344    2401.8954    18590.901    1.1862144 
    2100    610.81638   -6670.5681   -6602.4306    1100.2444    18622.907    1.2011052 
    2110    647.18572   -6673.2361   -6601.0416   -685.81584    18655.978    1.2169133 
    2120    648.22438   -6671.8546   -6599.5442   -1202.4168    18688.514    1.2360697 
    2130    608.72937   -6665.9745   -6598.0698   -236.11592    18720.019    1.2574585 
    2140    611.49643    -6664.824   -6596.6107     215.5895    18751.229    1.2769792 
    2150    619.94766   -6664.2304   -6595.0743    -279.1395    18782.545    1.2945924 
    2160    620.95562    -6662.764   -6593.4955   -1223.0401    18813.505    1.3115093 
    2170     641.3604   -6663.4074   -6591.8627   -1935.1038    18843.216    1.3283211 
    2180    650.53039   -6662.7469   -6590.1793   -2045.1595    18870.987    1.3458304 
    2190    643.48764   -6660.2836   -6588.5015   -1761.7016    18896.685    1.3638904 
    2200    647.50476    -6659.052   -6586.8218   -1761.2606    18920.522     1.381437 
    2210    660.55832   -6658.7869   -6585.1006   -2258.9805    18942.476     1.397893 
    2220    664.37583   -6657.4589   -6583.3468   -2570.8936    18962.107    1.4129724 
    2230    654.87112   -6654.6523   -6581.6005    -2757.596    18979.101    1.4257446 
    2240    661.52761   -6653.6423   -6579.8479   -3396.9841    18993.222    1.4346374 
    2250    676.41199   -6653.5115   -6578.0567    -3907.157    19003.889    1.4400149 
    2260    692.07108   -6653.4439   -6576.2423   -3765.7272    19010.644    1.4431805 
    2270    704.97993   -6653.0659   -6574.4243   -3101.5579    19013.636    1.4465836 
    2280     709.1882   -6651.7188   -6572.6078    -2052.951    19013.542    1.4527183 
    2290    705.89317   -6649.5487   -6570.8052   -1009.2225    19011.401    1.4591971 
    2300     732.5812   -6650.7014   -6568.9808   -926.38167    19008.168    1.4619355 
    2310    752.94816   -6651.1131   -6567.1206   -1165.0858    19004.001    1.4628389 
    2320    767.96421   -6650.9389   -6565.2714   -1096.8869    18998.701    1.4644396 
    2330    770.72555   -6649.4301   -6563.4545   -762.27504    18992.336    1.4693671 
    2340     754.4207   -6645.8374   -6561.6806   -443.97461    18985.245    1.4789948 
    2350    764.72202   -6645.2289   -6559.9231   -627.15773    18977.698    1.4909389 
    2360    775.59131   -6644.6531   -6558.1348    -770.9635    18969.571    1.5032037 
    2370    771.25897   -6642.3876   -6556.3525   -631.43404    18960.733    1.5144133 
    2380    770.86555   -6640.5785   -6554.5873   -506.30864    18951.284    1.5219492 
    2390    780.44505   -6639.8671   -6552.8073   -462.89334    18941.355    1.5243387 
    2400    787.34528   -6638.8489   -6551.0194   -447.23873    18930.991    1.5236254 
    2410    811.60488   -6639.7601   -6549.2244   -347.67404    18920.225    1.5227998 
    2420    823.22454    -6639.264    -6547.432    300.18737    18909.184    1.5269264 
    2430    813.21079   -6636.4032   -6545.6883    1703.9236    18898.545    1.5366912 
    2440    818.89918   -6635.3269   -6543.9774    2714.1884    18889.597     1.546492 
    2450    838.68025   -6635.8231   -6542.2671    2803.7058    18883.297    1.5537297 
    2460    861.70283   -6636.7006   -6540.5763    1956.0534     18879.72    1.5575294 
    2470    865.39039   -6635.4707   -6538.9351    1195.5362    18878.129    1.5594603 
    2480    858.87452   -6633.1774   -6537.3686    1271.1713    18877.831    1.5632862 
    2490    874.80115   -6633.4259   -6535.8405     1323.839    18878.786    1.5716308 
    2500      861.636   -6630.4709   -6534.3541    2057.3403    18881.126    1.5850815 
    2510    846.88731   -6627.3994   -6532.9279    3086.9744    18885.542    1.5990002 
    2520    888.25339   -6630.5849   -6531.4989    2917.5118    18892.913    1.6101418 
    2530    925.64223   -6633.3248    -6530.068    2417.7299    18903.148    1.6236089 
    2540    910.09068   -6630.2707   -6528.7487    2470.8331    18915.851    1.6437625 
    2550    931.62045   -6631.4696    -6527.546    1904.2388    18930.933    1.6695702 
    2560    934.46377   -6630.6694   -6526.4285    1839.8518    18947.967     1.701261 
    2570    912.56367   -6627.2345   -6525.4366    2193.9338    18966.858    1.7367192 
    2580    897.56396   -6624.6579   -6524.5333    2539.8269    18987.923    1.7716088 
    2590      901.452   -6624.2234   -6523.6651    2484.6747    19011.493     1.801185 
    2600    911.80763   -6624.5234   -6522.8099    2063.3964    19037.518    1.8233045 
    2610    925.17199   -6625.1937   -6521.9893    1517.7654    19065.564    1.8422541 
    2620    906.01565   -6622.2925   -6521.2251    1657.8667    19095.177    1.8642688 
    2630    895.10686    -6620.365   -6520.5145    1349.4221     19126.36    1.8882804 
    2640    898.26432   -6619.9968    -6519.794    719.89744    19158.796    1.9110246 
    2650    909.32749   -6620.5015   -6519.0647    154.42545    19191.869    1.9304296 
    2660    938.24025   -6623.0088   -6518.3467   -620.56131    19224.941    1.9461182 
    2670    934.71722   -6621.9549   -6517.6858   -962.72942    19257.255    1.9603028 
    2680    912.80497   -6618.9349   -6517.1102   -1169.7687    19288.423    1.9740666 
    2690    912.62305   -6618.3851   -6516.5806   -1702.3124    19318.156    1.9915648 
    2700    902.46078   -6616.7393   -6516.0684   -1914.8623    19345.962    2.0168881 
    2710    923.02558   -6618.5462   -6515.5813   -2360.8439     19371.55     2.045367 
    2720    934.59902   -6619.3784   -6515.1225   -2818.6445    19394.487    2.0738725 
    2730    931.28178   -6618.6253   -6514.7395   -3093.4794    19414.329    2.1020747 
    2740    932.72268   -6618.4855   -6514.4388    -3925.687    19430.713    2.1289661 
    2750    919.24983   -6616.7496   -6514.2059   -4703.7139    19442.859    2.1539135 
    2760    914.21488   -6616.0207   -6514.0386   -5049.6016    19449.996    2.1770505 
    2770    908.89105   -6615.3096   -6513.9215   -4580.2932     19451.85    2.1991998 
    2780    889.84118   -6613.1015   -6513.8384   -3631.2111     19448.92    2.2219946 
    2790    870.63222   -6610.8593    -6513.739   -2528.1023    19442.235    2.2454446 
    2800    885.63722   -6612.3798   -6513.5856   -2380.9258     19432.87    2.2668083 
    2810    923.00573   -6616.3699   -6513.4072   -3073.0717    19421.004    2.2867856 
    2820     919.8501   -6615.8808   -6513.2701   -2808.8826    19406.137    2.3117892 
    2830    913.65189    -6615.105   -6513.1858   -2156.6982      19388.5    2.3443725 
    2840    925.17819   -6616.3418   -6513.1368   -1326.5913    19368.815    2.3810326 
    2850    912.49812   -6614.9067   -6513.1162   -689.68628    19347.954    2.4158253 
    2860    906.45325   -6614.2271   -6513.1109   -930.59338    19326.527    2.4432304 
    2870    928.23414   -6616.6771   -6513.1312   -1352.8222    19304.367    2.4622239 
    2880    935.42027   -6617.5587   -6513.2111   -1056.9741    19281.151    2.4772983 
    2890    922.02814   -6616.2195   -6513.3659   -14.252944    19257.215    2.4935546 
    2900    893.90791   -6613.2593   -6513.5425    1204.2564    19233.601     2.512556 
    2910    903.65283   -6614.5124   -6513.7086    1548.8883    19211.473    2.5344763 
    2920     917.2273   -6616.1952   -6513.8772      1667.56    19191.247    2.5605384 
    2930    900.88292   -6614.5575   -6514.0626    1827.2033    19173.039    2.5895518 
    2940    902.38645   -6614.9311   -6514.2686    1695.1319    19156.938    2.6251989 
    2950    892.25094    -6614.014    -6514.482    1975.4845     19142.84    2.6724418 
    2960    877.49877   -6612.5556   -6514.6693    2390.4147    19130.989    2.7223152 
    2970    893.34113   -6614.4822   -6514.8286     2065.822    19121.664    2.7619876 
    2980    904.47608   -6615.8713   -6514.9756    2039.2587    19114.614     2.787727 
    2990    917.66985   -6617.5152   -6515.1477    2196.2549    19109.748    2.8030369 
    3000    908.34699    -6616.685   -6515.3576    2585.3263    19107.208    2.8157114 
    3010    884.04402   -6614.1964     -6515.58    3046.5374     19107.34    2.8314352 
    3020    894.32745   -6615.5596    -6515.796     2841.033    19110.494    2.8494779 
    3030    885.69044    -6614.785   -6515.9849    2441.8179     19116.48     2.869373 
    3040    895.51945   -6616.0463   -6516.1498    2011.2311    19124.859    2.8893152 
    3050    922.51415   -6619.2274   -6516.3196    1632.7017    19135.175    2.9098227 
    3060    913.97204   -6618.4908   -6516.5359    1980.1764    19147.089    2.9314552 
    3070    878.34098   -6614.7412   -6516.7609    2402.5764    19160.891    2.9520121 
    3080    903.10203   -6617.7122   -6516.9698    1555.4612    19176.831    2.9658279 
    3090    908.35691    -6618.504   -6517.1754    1152.5276    19194.197    2.9739973 
    3100    877.45116   -6615.2652   -6517.3842    1467.6312    19212.559     2.981191 
    3110    845.86204   -6611.9081   -6517.5509    2055.4787    19232.193    2.9882534 
    3120    830.66023   -6610.2657   -6517.6043    2053.5675    19253.626    2.9937114 
    3130    873.89975   -6615.0164   -6517.5315    765.22362    19276.744    3.0002284 
    3140    875.97229   -6615.0732   -6517.3572    63.939948    19300.401    3.0160908 
    3150    862.67613   -6613.3581   -6517.1252   -541.07628    19323.791    3.0406432 
    3160    879.08368   -6614.8778   -6516.8147   -1718.1222    19346.224    3.0655979 
    3170    886.90153   -6615.3707   -6516.4355    -2387.406    19366.598    3.0865521 
    3180    867.70472   -6612.8153   -6516.0215   -2099.2856    19384.284    3.1024647 
    3190    860.97874   -6611.5993   -6515.5558    -2401.506    19399.452    3.1133213 
    3200    879.86267   -6613.1616   -6515.0116   -3037.2551    19411.848    3.1267248 
    3210    879.49898   -6612.5282   -6514.4188   -2781.1172    19420.965    3.1500067 
    3220     876.6451   -6611.5872   -6513.7962   -1715.7079    19427.128    3.1784896 
    3230    888.03591   -6612.1971   -6513.1354   -1095.6124    19431.351    3.2063214 
    3240    903.87415   -6613.2744   -6512.4459   -633.76434    19434.363    3.2322475 
    3250     911.0697   -6613.3969   -6511.7657   -332.93001    19436.662    3.2582911 
    3260    915.30441   -6613.2208   -6511.1172   -580.29615     19438.52    3.2866622 
    3270    911.43336   -6612.1798   -6510.5081   -775.19671    19439.745    3.3152231 
    3280    911.79618   -6611.6463   -6509.9341   -1006.9567    19440.137    3.3413235 
    3290    894.25776    -6609.147   -6509.3912   -1213.8302    19439.487    3.3668458 
    3300    870.53443   -6605.9633   -6508.8539   -1195.9715    19437.617    3.3953486 
    3310    876.57022   -6606.0569   -6508.2742   -753.62616    19434.565    3.4273618 
    3320    894.27758   -6607.3986   -6507.6406    381.53625    19430.847    3.4595633 
    3330    897.39395   -6607.0885   -6506.9828    1888.4234    19427.643    3.4873752 
    3340    902.97608   -6607.0576   -6506.3292    2557.6751    19426.389    3.5078361 
    3350    932.01625   -6609.6625   -6505.6947    2153.8286     19427.74    3.5216095 
    3360    945.32702   -6610.5718   -6505.1191    1269.3842    19431.291    3.5316069 
    3370    937.94444   -6609.2795   -6504.6504    387.15668    19436.126    3.5401745 
    3380     931.4507   -6608.1832   -6504.2785   -515.74107    19441.298    3.5466615 
    3390    922.24642   -6606.8542   -6503.9762   -745.84442    19445.937    3.5518927 
    3400    918.63147   -6606.2027    -6503.728   -407.88542    19449.794    3.5555905 
    3410    925.60448   -6606.7797   -6503.5271   -377.91818    19453.142    3.5601224 
    3420    935.14345   -6607.6976   -6503.3809   -889.83469    19455.999    3.5740576 
    3430    928.35425   -6606.8695   -6503.3102   -929.23922    19457.935    3.6000191 
    3440    893.69736   -6602.9842   -6503.2909   -245.53502    19458.964    3.6324174 
    3450    895.36426     -6603.16   -6503.2808   -830.31344    19459.594    3.6660051 
    3460    897.05343   -6603.3213   -6503.2536     -1541.67    19459.357    3.6980889 
    3470    903.77822   -6604.0347   -6503.2169    -1627.996    19457.563    3.7234211 
    3480     927.9467   -6606.7154   -6503.2016   -1323.9475    19454.108    3.7432914 
    3490    932.93964   -6607.3046   -6503.2338   -219.71863     19449.42    3.7616586 
    3500    946.87625   -6608.9809   -6503.3554    687.25072     19444.54    3.7787763 
    3510    941.74991   -6608.6345   -6503.5809    1468.5306    19440.422    3.7967402 
    3520    924.30776   -6606.9979     -6503.89    1894.6782    19437.851    3.8146821 
    3530    937.08633   -6608.8137   -6504.2803    1757.1269    19437.244    3.8310483 
    3540    926.37481    -6608.076   -6504.7374    1800.6664    19438.535    3.8481955 
    3550    937.42137   -6609.8446   -6505.2738    1315.8658    19441.664    3.8674134 
    3560    941.67706   -6610.9396   -6505.8941     875.5676     19446.15    3.8876258 
    3570    925.63901   -6609.8506   -6506.5942    988.78202    19451.582    3.9064072 
    3580    926.22204    -6610.661   -6507.3395    608.63733    19457.957     3.922933 
    3590    944.14726    -6613.465    -6508.144   -37.762666    19464.906    3.9405615 
    3600    925.90346    -6612.299    -6509.013   -255.60077    19471.793    3.9629285 
    3610    896.33356   -6609.8579   -6509.8705   -441.37588     19478.36    3.9889359 
    3620    908.08875   -6612.0028   -6510.7042   -1134.0471    19484.358    4.0152925 
    3630      886.789   -6610.4209   -6511.4983   -1128.9851    19489.182    4.0378539 
    3640    882.21799   -6610.6478    -6512.235   -1342.8679    19492.737    4.0545667 
    3650    876.80414   -6610.7172   -6512.9083    -1421.061    19494.848    4.0666452 
    3660    865.82653   -6610.0871   -6513.5028   -1039.5217    19495.496     4.070211 
    3670    866.92129   -6610.7201   -6514.0137   -828.71304    19495.037    4.0657515 
    3680     868.1522   -6611.2874   -6514.4437   -891.41419    19493.684    4.0611495 
    3690    867.53134   -6611.5795    -6514.805   -1225.9085    19491.372    4.0637114 
    3700    865.34278   -6611.6223    -6515.092   -1267.3056    19487.817    4.0713115 
    3710    874.94568   -6612.9137   -6515.3122    -922.9126    19482.997    4.0783694 
    3720    880.65684     -6613.72   -6515.4814   -742.19164    19477.218    4.0849036 
    3730    876.85896   -6613.4182   -6515.6033    -637.6956    19470.699    4.0947127 
    3740     890.1114     -6614.98   -6515.6868   -743.01861    19463.521    4.1108952 
    3750    892.89651   -6615.3519   -6515.7479   -304.73686    19455.666    4.1321912 
    3760    870.78386    -6612.915   -6515.7778    298.23275    19447.571    4.1560937 
    3770    882.65814   -6614.2206   -6515.7587   -223.02541    19439.736    4.1763667 
    3780    908.30175   -6617.0327   -6515.7102    -1081.441     19431.69    4.1902052 
    3790    900.98808   -6616.1766     -6515.67   -1202.6866    19422.643    4.2037903 
    3800     885.8813   -6614.4499   -6515.6285   -1111.4998    19412.417     4.217486 
    3810    878.32148   -6613.5323   -6515.5542   -913.42456    19401.103    4.2280737 
    3820    886.93977   -6614.3797   -6515.4403   -717.14394    19388.882    4.2390223 
    3830    888.09775   -6614.3546   -6515.2859   -351.37925    19376.018    4.2529207 
    3840    893.41338   -6614.7686    -6515.107    -459.8221    19362.807    4.2724635 
    3850     889.8361   -6614.1744   -6514.9118   -370.66146    19349.214    4.2970234 
    3860    875.79794   -6612.3854   -6514.6888    -222.1791    19335.316     4.317359 
    3870    877.15079   -6612.2585    -6514.411    33.764964    19321.291    4.3246257 
    3880    895.63295    -6613.996   -6514.0868    153.48207    19307.354    4.3224982 
    3890    880.58455   -6611.9588   -6513.7283    628.53707    19293.693    4.3214845 
    3900     892.4453   -6612.8943   -6513.3407    798.87012    19280.741    4.3248845 
    3910    899.10031   -6613.2201   -6512.9241    1066.8738    19268.689    4.3380293 
    3920     865.0794   -6608.9838   -6512.4829    2519.2597     19257.93    4.3608914 
    3930    874.62548   -6609.5587   -6511.9929    3286.8123    19249.759    4.3819266 
    3940    901.68805   -6612.0329   -6511.4483    3100.5093    19244.947    4.3951979 
    3950    902.33401   -6611.5469   -6510.8902    2619.5135    19243.347    4.4029624 
    3960    934.38147   -6614.5946   -6510.3629    1287.4419    19244.363    4.4078269 
    3970    925.02212   -6613.0726    -6509.885    999.98468    19246.815    4.4202782 
    3980    913.47147   -6611.3912    -6509.492    1311.0309    19250.341    4.4412501 
    3990    913.69598   -6611.0598   -6509.1356    1076.7772    19255.172    4.4604042 
    4000    919.40157   -6611.3676    -6508.807    251.15445    19261.056    4.4703627 
    4010    942.28265   -6613.6422   -6508.5291    -828.4166     19267.17    4.4740764 
    4020    929.88693   -6612.0543    -6508.324   -776.74541    19272.549    4.4804254 
    4030    923.78848   -6611.2457   -6508.1957   -369.03078    19277.141    4.4914381 
    4040    928.77702   -6611.7362   -6508.1297    240.82578    19281.379    4.5073752 
    4050    897.37398   -6608.2144    -6508.111    1465.0966    19285.949     4.533593 
    4060    897.52154   -6608.2266   -6508.1067    1826.3579    19291.956    4.5710449 
    4070    914.12328   -6610.0738    -6508.102    1565.0819    19299.803    4.6128465 
    4080     907.4608   -6609.3431   -6508.1145    1216.9938    19309.274    4.6496785 
    4090    919.65725   -6610.7504   -6508.1613    712.83821    19319.999    4.6739141 
    4100    908.74314   -6609.6092   -6508.2375    1117.6512    19331.584    4.6900723 
    4110     900.6218   -6608.8035   -6508.3378    1292.3225    19344.337    4.7027867 
    4120    936.80839   -6612.9643   -6508.4619   -85.387031    19358.281    4.7202548 
    4130    933.50653   -6612.7832   -6508.6491   -852.58333    19372.218    4.7506346 
    4140    896.81617   -6608.9428   -6508.9016    -377.7252    19385.397    4.7845841 
    4150    893.04289   -6608.7867   -6509.1664    352.53364    19398.233    4.8109726 
    4160    895.16783   -6609.2824   -6509.4251    574.89722    19411.418    4.8308263 
    4170     879.2576    -6607.746   -6509.6635     70.39649    19425.163    4.8468115 
    4180     892.6235   -6609.4447   -6509.8712   -596.95332     19438.99    4.8588103 
    4190    903.29052   -6610.8275    -6510.064   -701.01827    19452.287    4.8704914 
    4200    893.87269   -6609.9775   -6510.2647    -844.2566    19464.859    4.8905779 
    4210    875.57061   -6608.1213   -6510.4501   -735.41447    19476.602    4.9208872 
    4220    873.69336   -6608.0592   -6510.5974    -870.4236    19487.573    4.9517819 
    4230    884.65202   -6609.3764   -6510.6922   -1187.8038    19497.627    4.9736296 
    4240    884.15941   -6609.3674   -6510.7381    -1157.605    19506.495    4.9887383 
    4250    879.75172   -6608.8908   -6510.7532   -1116.0911    19514.166    5.0064733 
    4260    873.13836   -6608.1175   -6510.7176   -986.73026    19520.692    5.0310254 
    4270     891.9195   -6610.1314   -6510.6364   -782.29542    19526.204    5.0551933 
    4280    887.24019   -6609.4962   -6510.5233   -646.43799    19530.889    5.0798288 
    4290    876.51093   -6608.1568   -6510.3806   -333.58186    19534.935    5.1083634 
    4300    885.82193   -6609.0053   -6510.1906   -666.96546    19538.572    5.1356265 
    4310    885.23832   -6608.7015   -6509.9518   -1361.3329    19541.491    5.1570741 
    4320    887.12809   -6608.6374   -6509.6769   -2170.4262    19542.947    5.1764968 
    4330    892.45187   -6608.9213   -6509.3669   -2169.7503    19542.169    5.2017311 
    4340    881.24975   -6607.3283   -6509.0236   -1295.8914    19539.158    5.2340359 
    4350     894.3113   -6608.4021   -6508.6403   -1310.5402    19534.664     5.266173 
    4360    926.88534   -6611.6265    -6508.231   -2606.4456     19528.63    5.2901157 
    4370    928.23602   -6611.4075   -6507.8614   -3363.2991    19519.857    5.3074779 
    4380    916.21784   -6609.7698   -6507.5643   -3579.4882    19507.499    5.3226846 
    4390    917.29064   -6609.6427   -6507.3175   -3290.4941    19491.305    5.3380739 
    4400    907.16433   -6608.2959   -6507.1003   -2841.7744    19471.538    5.3550924 
    4410    892.10725    -6606.411   -6506.8951   -2301.4773    19448.653    5.3754399 
    4420    888.27825   -6605.7461   -6506.6573   -1053.8852    19423.301    5.4013817 
    4430    912.12818   -6608.1264   -6506.3771   -285.22404     19396.65     5.430111 
    4440    933.33734   -6610.2117   -6506.0965    561.53589    19369.594      5.45379 
    4450    926.63087   -6609.2212   -6505.8541    1992.9838     19343.07    5.4678497 
    4460    908.15061   -6606.9485    -6505.643     3299.888    19318.508    5.4773174 
    4470    896.02298   -6605.3953   -6505.4426    3539.3124    19297.176    5.4901374 
    4480    905.40452   -6606.2391   -6505.2398    3349.7022    19279.412    5.5105619 
    4490    910.82514   -6606.6468   -6505.0429    3111.9981    19265.062    5.5385408 
    4500    921.52046   -6607.6781   -6504.8811    2388.3627    19253.806    5.5661336 
    4510    920.58647   -6607.4495   -6504.7567    1968.6172    19244.987    5.5867928 
    4520    922.90032   -6607.6335   -6504.6826    2165.3707    19238.215    5.5978461 
    4530    921.21109   -6607.4163   -6504.6538    2027.2485    19233.608    5.6003682 
    4540    920.48118   -6607.3564   -6504.6754    1791.5491    19231.068    5.6009421 
    4550    927.28563   -6608.2002   -6504.7601    1706.0403    19230.373    5.6086558 
    4560    922.06785   -6607.7687   -6504.9106    2085.3723    19231.499    5.6253898 
    4570    927.02078   -6608.5571   -6505.1465    2053.6862    19234.755    5.6484077 
    4580     919.4635   -6608.0432   -6505.4757    2259.6355    19240.216       5.6762 
    4590    904.73581   -6606.8118   -6505.8871    2542.3202    19248.079     5.705937 
    4600     892.0191   -6605.8564   -6506.3503    2596.4064    19258.658    5.7358408 
    4610    889.74489   -6606.0904    -6506.838    1713.5048    19271.967    5.7626457 
    4620    900.30387   -6607.7844   -6507.3541    666.85624    19287.199    5.7856956 
    4630    886.85902   -6606.8237   -6507.8933    -26.07928    19303.345    5.8110529 
    4640     879.8984   -6606.5897   -6508.4357    -828.7606    19319.648    5.8360362 
    4650    890.20367   -6608.2756   -6508.9721   -1389.9392    19335.314    5.8567856 
    4660    885.05315   -6608.2428   -6509.5138   -1593.7914    19349.758    5.8750948 
    4670     870.8754   -6607.1818   -6510.0344   -1754.9167    19362.711    5.8919722 
    4680    881.27223   -6608.8173   -6510.5101   -2191.0405     19373.94    5.9117353 
    4690    887.10467   -6609.9157   -6510.9579   -2114.8625    19383.042    5.9409493 
    4700    892.43051   -6610.9473   -6511.3954   -1734.0434    19390.051    5.9780266 
    4710    897.33154    -6611.935   -6511.8363   -1602.8221    19395.294    6.0159145 
    4720    885.02221   -6610.9942   -6512.2687   -1345.9809    19398.944    6.0494117 
    4730    894.68053   -6612.4837   -6512.6808   -1235.2539    19401.218     6.075327 
    4740    893.25533   -6612.7319   -6513.0879   -1216.8248    19402.204    6.0960605 
    4750    875.22028   -6611.1048   -6513.4726   -1186.4279    19401.919    6.1144427 
    4760    869.56105   -6610.8116   -6513.8107   -1249.6672    19400.374    6.1375975 
    4770    863.06977   -6610.3561   -6514.0794   -1583.4876    19397.451    6.1741921 
    4780    872.62025    -6611.628   -6514.2859   -1801.4322    19392.814    6.2212862 
    4790    873.09896   -6611.8344   -6514.4389   -1120.0697    19386.279    6.2697432 
    4800    882.33915   -6612.9711   -6514.5449   -655.29102     19378.42     6.310826 
    4810    883.98188   -6613.2258   -6514.6163   -528.73923    19369.712     6.339219 
    4820    853.67795   -6609.8702   -6514.6411   -134.03274    19360.323    6.3575908 
    4830     835.9749   -6607.8241   -6514.5698   -74.222419    19350.594    6.3696927 
    4840    844.70717    -6608.585   -6514.3566   -725.18078    19340.541    6.3783147 
    4850    879.68374   -6612.1245   -6513.9945   -1851.7765    19329.478    6.3855196 
    4860     898.7091   -6613.7575   -6513.5051   -2137.7413    19316.334    6.3920379 
    4870    874.63411   -6610.4641   -6512.8973   -1023.5479    19300.824    6.3973555 
    4880    884.82081   -6610.8431     -6512.14   -542.37479    19283.831    6.3983383 
    4890    901.94574   -6611.8142   -6511.2008   -415.53831    19265.875     6.396169 
    4900    904.92157   -6611.0937   -6510.1483    -5.595342     19247.12    6.3895785 
    4910     904.2422    -6609.919   -6509.0495    1070.6681     19228.01    6.3742926 
    4920    905.03629   -6608.9186   -6507.9605    2847.7913    19209.665    6.3517713 
    4930    911.79621   -6608.6633   -6506.9511    4228.5019    19193.846    6.3290013 
    4940    918.29867   -6608.5294   -6506.0918    4565.5478    19181.958    6.3184232 
    4950    915.94893    -6607.583   -6505.4075    4586.1726    19174.517    6.3234053 
    4960    929.87296   -6608.6258   -6504.8971    4377.5257    19171.644    6.3352605 
    4970    937.77779   -6609.1577   -6504.5471    4061.5844    19173.251      6.34448 
    4980    928.96974     -6607.98    -6504.352    3927.7837    19179.145    6.3509155 
    4990    918.23932   -6606.7031   -6504.2721    4319.0312    19189.347    6.3548369 
    5000    926.25772   -6607.5912   -6504.2657    4235.3733    19204.303    6.3478333 
Loop time of 1815.32 on 16 procs for 3000 steps with 864 atoms

Performance: 0.143 ns/day, 168.085 hours/ns, 1.653 timesteps/s
97.5% CPU use with 16 MPI tasks x 1 OpenMP threads

MPI task timing breakdown:
Section |  min time  |  avg time  |  max time  |%varavg| %total
---------------------------------------------------------------
Pair    | 1131.1     | 1477.5     | 1756.6     | 481.3 | 81.39
Bond    | 0.00028896 | 0.00067833 | 0.0017235  |   0.0 |  0.00
Neigh   | 0.03536    | 0.044639   | 0.05721    |   3.1 |  0.00
Comm    | 34.278     | 259.76     | 633.9      |1067.1 | 14.31
Output  | 0.1806     | 0.18367    | 0.22792    |   2.7 |  0.01
Modify  | 0.72679    | 77.839     | 141.84     | 649.9 |  4.29
Other   |            | 0.01362    |            |       |  0.00

Nlocal:        54.0000 ave          63 max          43 min
Histogram: 1 0 3 1 1 2 2 2 1 3
Nghost:        518.500 ave         616 max         450 min
Histogram: 2 1 2 5 2 0 2 0 0 2
Neighs:         0.00000 ave           0 max           0 min
Histogram: 16 0 0 0 0 0 0 0 0 0
FullNghs:      2462.75 ave        3373 max        1615 min
Histogram: 1 3 2 1 1 2 2 1 2 1

Total # of neighbors = 39404
Ave neighs/atom = 45.606481
Ave special neighs/atom = 0.0000000
Neighbor list builds = 300
Dangerous builds = 300
Setting up Verlet run ...
  Unit style    : metal
  Current step  : 5000
  Time step     : 0.001
Per MPI rank memory allocation (min/avg/max) = 8.901 | 8.909 | 8.917 Mbytes
Step Temp PotEng TotEng Press Volume c_msd[4] 
    5000    926.25772   -6607.5912   -6504.2657    4235.3733    19204.303    6.3478333 
    5010    945.30606   -6609.7631   -6504.3128     3736.017    19206.418    6.3284448 
    5020    939.47659   -6609.2647   -6504.4646    3510.2588    19212.426    6.3203627 
    5030    931.41987   -6608.6193    -6504.718    3411.7674    19222.061    6.3316869 
    5040    930.81765   -6608.8929   -6505.0588     3097.924    19235.222    6.3577314 
    5050     935.0391   -6609.7895   -6505.4845    1870.6243    19251.518    6.3927829 
    5060    928.76998   -6609.5974   -6505.9917    883.75507    19269.809    6.4332972 
    5070    902.62208   -6607.2503   -6506.5614    964.36677    19289.173    6.4708982 
    5080    899.07267    -6607.439   -6507.1461    888.35184    19309.589    6.4936103 
    5090    912.34403   -6609.5171   -6507.7438    100.56585    19330.904    6.5026347 
    5100    912.66493   -6610.1645   -6508.3554   -655.28168    19352.371    6.5082993 
    5110    913.07953    -6610.844   -6508.9886   -1155.3852    19373.218    6.5212011 
    5120    890.83929   -6608.9866   -6509.6121   -855.40791    19392.976    6.5432906 
    5130    882.31592    -6608.616   -6510.1923   -353.91315    19411.887    6.5752292 
    5140    876.90905   -6608.5137   -6510.6932   -150.48649    19430.449    6.6214441 
    5150    881.21175   -6609.4046   -6511.1041   -789.15717    19448.816    6.6768385 
    5160    881.67066   -6609.7735   -6511.4219   -1531.3261    19466.395    6.7289234 
    5170    892.22737   -6611.1925   -6511.6632   -2185.2673    19482.385    6.7686963 
    5180    906.77641    -6613.015   -6511.8628   -2660.2343    19496.101    6.7975676 
    5190    893.16305   -6611.6793   -6512.0456   -2436.3403    19507.083    6.8234125 
    5200    882.85304   -6610.6771   -6512.1935    -2052.797    19515.514    6.8547291 
    5210    886.67064    -6611.209   -6512.2995   -2046.2285    19521.742     6.895804 
    5220    879.22754    -6610.438   -6512.3588   -1569.8128    19525.884    6.9424965 
    5230    902.27909   -6613.0432   -6512.3926   -1904.8974    19528.262    6.9892201 
    5240    880.90596   -6610.6719   -6512.4055   -1878.6838    19528.667    7.0383271 
    5250    850.46722    -6607.249   -6512.3781   -1385.9414    19527.119    7.0848743 
    5260    857.71742   -6607.9471   -6512.2674    -1064.443    19524.076    7.1197976 
    5270    876.56403   -6609.8669   -6512.0849   -946.95163    19519.888    7.1472874 
    5280    896.91568   -6611.9314   -6511.8791    -1009.992     19514.68    7.1810471 
    5290    912.86842   -6613.5233   -6511.6915   -1240.9276    19508.382    7.2246795 
    5300    914.18916   -6613.5279   -6511.5488   -1264.8244    19500.773    7.2708438 
    5310    906.41078   -6612.5656   -6511.4541   -958.90704    19491.824     7.310749 
    5320    891.39922   -6610.8146   -6511.3776   -199.42874    19481.888    7.3396688 
    5330    876.83612   -6609.0941   -6511.2817    336.03996    19471.683    7.3581432 
    5340    893.36913   -6610.8163   -6511.1596     91.53439    19461.726    7.3681071 
    5350    916.37111   -6613.2525     -6511.03   -126.38719    19451.848    7.3779273 
    5360    903.90246   -6611.7616   -6510.9299    133.99129    19441.866    7.3949194 
    5370    887.97678   -6609.9021    -6510.847   -194.82227    19431.934    7.4172675 
    5380    890.21782   -6610.0569   -6510.7517   -420.50412    19421.775    7.4357762 
    5390    887.85923   -6609.6802   -6510.6382   -215.45224    19411.176    7.4501581 
    5400     879.7717   -6608.6439    -6510.504    385.90441     19400.36    7.4638353 
    5410    869.50979   -6607.3184   -6510.3233     828.4813     19389.91    7.4776999 
    5420    890.12247   -6609.3925    -6510.098    495.38028    19380.204    7.4910172 
    5430    885.94682   -6608.6754   -6509.8467    1022.2246    19371.077    7.5077034 
    5440     863.7214   -6605.9122   -6509.5628    1634.5067    19362.998     7.533671 
    5450    881.65901   -6607.5772   -6509.2268    1143.6402    19356.481     7.566649 
    5460    871.24823   -6606.0194   -6508.8304    1154.4757    19351.196    7.6033736 
    5470    882.65119   -6606.8562   -6508.3951    1036.5025    19347.085    7.6335623 
    5480    911.80441   -6609.6409   -6507.9277    85.334868    19343.959    7.6489449 
    5490     904.1449   -6608.3352   -6507.4765   -120.28169    19340.981    7.6538678 
    5500    901.84396   -6607.6656   -6507.0635    412.75707    19337.929    7.6596126 
    5510    905.12086   -6607.6367   -6506.6691    589.26351    19335.263    7.6730674 
    5520    921.70769   -6609.1245   -6506.3066    162.41908    19333.135    7.6981225 
    5530    934.41468   -6610.2384   -6506.0031    86.536176    19331.214    7.7363426 
    5540    927.99183    -6609.298   -6505.7791   -150.11934    19329.342     7.787485 
    5550    927.19191   -6609.0737   -6505.6441   -286.49698     19327.29    7.8448708 
    5560    902.19751   -6606.2022   -6505.5608    398.73383    19325.015    7.8938692 
    5570    904.63425   -6606.4096   -6505.4962    441.15175    19323.067    7.9258396 
    5580    930.39168   -6609.2432   -6505.4566     78.21195    19321.525    7.9492371 
    5590    928.09803   -6609.0034   -6505.4727    187.19168    19320.113    7.9781473 
    5600    909.20355   -6606.9728   -6505.5498    629.57779    19318.906    8.0163842 
    5610    884.48284   -6604.2983   -6505.6329    1510.3732    19318.413     8.056809 
    5620    899.47218   -6606.0351   -6505.6976    1689.0382    19319.433    8.0864044 
    5630     910.2704   -6607.2929   -6505.7508    1556.5544    19322.222    8.1016135 
    5640    919.69278   -6608.4228   -6505.8297     1324.424    19326.659    8.1103769 
    5650    919.23119   -6608.4802   -6505.9386    949.63793    19332.533    8.1207569 
    5660    920.59202   -6608.7776   -6506.0842    449.40929    19339.479    8.1333267 
    5670    918.95848   -6608.7617   -6506.2505   -63.116221    19347.004    8.1485165 
    5680    929.35887   -6610.1204    -6506.449   -622.70072    19354.551    8.1715869 
    5690    914.04633   -6608.6317   -6506.6685   -397.07029    19361.627    8.2030818 
    5700    904.87365   -6607.8185   -6506.8785   -346.11058    19368.358    8.2354428 
    5710    923.48282   -6610.0838   -6507.0679   -901.35511    19374.764    8.2665657 
    5720    939.82002   -6612.1094   -6507.2711   -1398.5912    19380.325    8.2959013 
    5730    927.28791   -6610.9464    -6507.506   -973.49731    19384.585    8.3185745 
    5740    932.07605   -6611.7252   -6507.7507   -515.98972    19387.875    8.3316062 
    5750    923.49545   -6611.0279   -6508.0106    91.477331    19390.683    8.3459458 
    5760    893.95429   -6607.9778   -6508.2559    780.37909    19393.631    8.3700924 
    5770     891.7813   -6607.9321   -6508.4526     1217.118    19397.438    8.3943179 
    5780    900.77335   -6609.0818   -6508.5992    1572.4095    19402.611    8.4100272 
    5790    904.08048   -6609.5847   -6508.7332    1340.3561    19409.475     8.417819 
    5800    901.68847   -6609.4436   -6508.8589    882.65366    19417.849    8.4257036 
    5810    911.20796   -6610.6226    -6508.976    458.42883    19427.319    8.4443898 
    5820    914.95145   -6611.1707   -6509.1065   -13.949135    19437.422     8.478786 
    5830    910.97905   -6610.8766   -6509.2556   -305.88642     19447.67    8.5227579 
    5840    908.49992   -6610.7697   -6509.4252    173.82141    19457.843    8.5675307 
    5850    899.19819   -6609.9279    -6509.621     1008.821    19468.396    8.6061347 
    5860    896.25723   -6609.8048   -6509.8259    1101.5685     19480.12    8.6371397 
    5870    898.20159   -6610.2221   -6510.0264    730.28464    19493.192     8.658834 
    5880    889.42537   -6609.4227    -6510.206    382.43003    19507.271    8.6690091 
    5890    887.21311   -6609.3273   -6510.3573    410.33374    19522.024    8.6796606 
    5900    873.47548   -6607.9033   -6510.4658    596.66383    19537.472     8.703181 
    5910    885.45169   -6609.3093   -6510.5359   -107.67409    19553.724    8.7409134 
    5920    899.10882   -6610.8678   -6510.5708   -1408.8108    19570.061    8.7837407 
    5930    884.56402   -6609.2481   -6510.5736   -2164.0068    19585.196    8.8239427 
    5940    892.52059   -6610.1194   -6510.5574   -2859.4279    19598.236     8.861044 
    5950     888.3981   -6609.6204   -6510.5183   -2495.9885    19608.506    8.8943507 
    5960    877.65394   -6608.3593   -6510.4556   -1563.1409    19616.279    8.9240629 
    5970    889.09969    -6609.539   -6510.3586   -1352.3759     19622.39     8.956236 
    5980    891.42471   -6609.6594   -6510.2197   -1478.9494    19627.109    8.9965651 
    5990    907.83617   -6611.3347   -6510.0642   -1799.4368    19630.298    9.0387627 
    6000    917.61561   -6612.2709   -6509.9095   -1884.2589    19631.626    9.0712067 
    6010    904.03301   -6610.6187   -6509.7724   -1372.4301    19630.992     9.093059 
    6020    883.01285   -6608.1239   -6509.6225   -717.04233    19628.889    9.1116327 
    6030    903.84221   -6610.2554   -6509.4305   -1223.1593    19625.867    9.1319121 
    6040    924.44658   -6612.3482   -6509.2248   -1977.1216    19621.461    9.1630996 
    6050    889.89747   -6608.3025   -6509.0331   -1302.5407    19615.003    9.2071967 
    6060    873.74948   -6606.2803   -6508.8123   -366.08652    19607.048    9.2572197 
    6070    872.32289   -6605.8095   -6508.5005    3.7007582    19598.522     9.303953 
    6080    886.51153   -6606.9774   -6508.0858   -163.93679    19589.823    9.3378641 
    6090    890.97048   -6606.9665   -6507.5774   -139.64945    19580.823    9.3618366 
    6100    868.72444   -6603.8827   -6506.9752    534.43154    19571.618    9.3861843 
    6110    905.56082   -6607.2954   -6506.2787    373.16295    19562.749    9.4147053 
    6120    911.76593    -6607.211   -6505.5021     372.3179    19554.184    9.4543107 
    6130    927.04778   -6608.1505   -6504.7369   -265.95454    19545.833    9.5029673 
    6140    958.24227   -6610.9169   -6504.0235   -1154.4268    19537.058    9.5527985 
    6150    954.40595   -6609.8976   -6503.4321   -906.02998    19527.043    9.5965388 
    6160     955.0578   -6609.5221    -6502.984   -223.71049    19515.938     9.627401 
    6170    961.61022   -6609.9353   -6502.6662    61.142351    19504.399    9.6475574 
    6180    944.24935   -6607.8207   -6502.4883    170.04526    19492.751    9.6600846 
    6190    913.25314   -6604.2868    -6502.412    795.09396    19481.167    9.6650012 
    6200    893.41977   -6602.0296   -6502.3673    1592.1567    19470.293    9.6717238 
    6210    903.52628   -6603.1056   -6502.3159    1477.7138    19460.879    9.6885883 
    6220    934.90701   -6606.5734   -6502.2831    652.87144    19452.853    9.7134835 
    6230    946.08626   -6607.8641   -6502.3267    191.79566    19445.462    9.7460596 
    6240    942.13432   -6607.5794   -6502.4829    16.824646    19438.189    9.7875808 
    6250    941.76371   -6607.8089   -6502.7537    256.25374    19430.869     9.834871 
    6260    926.85832   -6606.5265   -6503.1341    1564.7085    19423.824    9.8819161 
    6270    885.79808   -6602.3749   -6503.5628    3321.8005    19418.391    9.9212765 
    6280    887.22329    -6602.975   -6504.0039    3758.0235    19416.286    9.9486121 
    6290    903.71741   -6605.2701   -6504.4591    2915.5258    19418.029    9.9685463 
    6300     932.2484   -6608.9688   -6504.9751    1613.2073    19422.869    9.9901161 
    6310    963.28511   -6613.0837   -6505.6278    286.84942    19429.496    10.028169 
    6320    962.82167   -6613.8815   -6506.4773    96.991737    19436.642    10.079554 
    6330     928.1708    -6611.022   -6507.4831    775.66085    19444.073    10.126162 
    6340    882.59252   -6606.9582   -6508.5037    1245.8751    19452.423    10.159289 
    6350    850.83785   -6604.2939   -6509.3816    1223.9069    19462.208    10.181472 
    6360     873.6094   -6607.5247   -6510.0722    334.90951    19473.375    10.199266 
    6370    885.29156   -6609.3612   -6510.6056   -482.24354    19485.097     10.21788 
    6380    860.63573   -6606.9978   -6510.9925   -631.21779    19496.569    10.229961 
    6390    848.69995   -6605.8917   -6511.2179   -847.09385    19507.556    10.234764 
    6400    869.52007   -6608.3111   -6511.3149   -1504.6476    19517.763    10.239934 
    6410    880.80074   -6609.5854   -6511.3308   -1687.0799    19526.591    10.248689 
    6420    887.67054   -6610.3222   -6511.3012   -1838.1943    19533.757    10.266344 
    6430    903.81192   -6612.0797   -6511.2581   -2215.7755    19539.031    10.298041 
    6440    903.97337   -6612.0616    -6511.222   -2219.4685    19542.056    10.340124 
    6450    898.85401    -6611.467   -6511.1985   -2017.3586    19542.767    10.385848 
    6460    902.82834    -6611.893   -6511.1812   -1915.2008    19541.299    10.427539 
    6470    896.44306   -6611.1721   -6511.1726   -1422.9684    19537.783    10.455944 
    6480    877.32129   -6609.0187   -6511.1522   -432.97297    19532.734    10.474583 
    6490    878.35709    -6609.076   -6511.0939    55.769597    19527.099    10.492329 
    6500    881.14586   -6609.2758   -6510.9827   -209.53585    19521.351    10.507105 
    6510    873.93256   -6608.3157   -6510.8272   -220.17489    19515.326    10.514737 
    6520    868.02173   -6607.4478   -6510.6187   -618.17494    19508.945    10.518869 
    6530    871.20783   -6607.5349   -6510.3503   -1328.8986    19501.783    10.525376 
    6540    877.27882   -6607.8861   -6510.0244   -1852.0131    19493.096    10.539805 
    6550    893.62593   -6609.3427   -6509.6574    -2160.108    19482.297    10.564843 
    6560    894.71328     -6609.08   -6509.2734   -1900.4706    19469.072     10.59681 
    6570    867.86428   -6605.6845    -6508.873   -1149.5586    19453.652    10.629066 
    6580    876.64822   -6606.2146   -6508.4232   -837.93511     19436.71    10.652808 
    6590    908.56698   -6609.2725   -6507.9205   -677.48587    19418.598    10.664427 
    6600    916.35258   -6609.6412   -6507.4207     288.8624    19399.566    10.664588 
    6610    913.07568   -6608.8059   -6506.9509    1496.6119    19380.575    10.658296 
    6620    937.43209   -6611.1028   -6506.5308    1563.3752     19362.75    10.652483 
    6630    928.95482   -6609.8114   -6506.1851     1466.833    19346.299     10.65006 
    6640    910.99674   -6607.5496   -6505.9265    1797.3248    19331.165    10.646053 
    6650    908.70314   -6607.0601   -6505.6929      2440.65    19317.736    10.634629 
    6660     950.7803   -6611.5591   -6505.4981    2345.2871    19306.577    10.624879 
    6670    972.76096   -6613.9155   -6505.4025     2335.189    19297.723    10.633585 
    6680    967.01747   -6613.3538   -6505.4816     2589.677    19291.209    10.661188 
    6690    935.13358   -6610.0215    -6505.706    3087.3841    19287.347    10.695362 
    6700    935.06559   -6610.3376   -6506.0296    2897.9003    19286.595    10.724879 
    6710    946.64873   -6612.0658   -6506.4657    2123.6464    19288.807    10.743258 
    6720    905.02814   -6607.9479   -6506.9907    1987.0369    19293.353    10.755577 
    6730    879.54405     -6605.64   -6507.5255    1610.4635    19300.032    10.766236 
    6740    895.51137   -6607.9271   -6508.0315    812.86567    19308.468    10.780805 
    6750    917.34286   -6610.8866   -6508.5557     620.0589    19317.949    10.807705 
    6760    902.28246   -6609.7641   -6509.1131    1480.8669    19328.344    10.844391 
    6770    879.55501   -6607.7935   -6509.6778    2177.8307    19340.449     10.88012 
    6780    875.99816   -6607.9159    -6510.197    2191.2464     19354.99    10.913199 
    6790    889.02417   -6609.8383   -6510.6663    1956.2238    19372.046    10.953768 
    6800    884.35409   -6609.7441    -6511.093    1766.7329     19391.44    11.005124 
    6810    886.32719   -6610.3574   -6511.4863    1319.9294    19412.978     11.04986 
    6820    880.92905   -6610.1018   -6511.8328     908.8656    19436.237    11.076052 
    6830    883.78158   -6610.7125   -6512.1254    210.35638    19460.757    11.088805 
    6840    896.11756   -6612.3275   -6512.3642   -578.43512    19485.829    11.100093 
    6850    879.86542   -6610.7026   -6512.5523   -640.52441    19510.696    11.111074 
    6860    866.28025   -6609.3086   -6512.6737   -837.62696    19535.158    11.122539 
    6870    873.79841   -6610.1877   -6512.7142   -1480.1971    19558.945    11.140172 
    6880    874.72476   -6610.2573   -6512.6804   -1704.0173     19581.45    11.164166 
    6890    870.69655   -6609.7202   -6512.5927     -1754.19    19602.367    11.188509 
    6900    886.16844   -6611.3124   -6512.4589   -2343.4108    19621.524    11.206352 
    6910    888.66123   -6611.4241   -6512.2926   -2654.8998    19638.344    11.222776 
    6920    884.53744   -6610.7963   -6512.1248   -2630.8155    19652.473    11.245152 
    6930    875.35778    -6609.598   -6511.9505     -2831.44    19663.844    11.271989 
    6940    875.65045   -6609.4516   -6511.7715   -3133.6398    19672.235    11.296257 
    6950    872.92948   -6608.9686    -6511.592   -3154.6249    19677.311    11.315673 
    6960    864.83624   -6607.8834   -6511.4096    -2933.965    19679.028    11.331099 
    6970    881.28468   -6609.5319   -6511.2233   -3047.9943    19677.534    11.343835 
    6980    868.66971   -6607.9411   -6511.0397   -2410.2488    19672.818    11.358297 
    6990    846.35403   -6605.2404   -6510.8284   -1897.1373    19665.453    11.375385 
    7000    886.82648   -6609.5084   -6510.5816    -2702.878    19655.839     11.38915 
    7010    900.40208   -6610.7689   -6510.3277    -2608.919    19643.374    11.399833 
    7020    877.44045   -6607.9861   -6510.1063   -1358.5121    19628.133    11.413027 
    7030     850.5552   -6604.7346   -6509.8539   -50.678828    19611.363    11.424411 
    7040    887.31548   -6608.5292   -6509.5479   -91.238248    19594.325    11.428162 
    7050    897.35533    -6609.302   -6509.2007   -147.20268    19577.129    11.430315 
    7060    902.65536   -6609.5604   -6508.8678   -264.99864    19559.689    11.434976 
    7070    898.90415   -6608.8306   -6508.5565   -717.59753     19541.86    11.438592 
    7080    875.34859   -6605.8915    -6508.245   -482.47902    19523.273    11.439602 
    7090    893.92767   -6607.6271   -6507.9081   -484.32556    19504.065    11.440639 
    7100    913.46589   -6609.4506   -6507.5521   -827.91657    19484.239     11.44247 
    7110    928.20046   -6610.7682    -6507.226   -630.99905    19463.544    11.443405 
    7120    948.34837   -6612.7527    -6506.963    115.16277    19442.175    11.448211 
    7130    935.08407   -6611.0835   -6506.7735    1844.6503    19420.996     11.45702 
    7140    925.02215   -6609.8409   -6506.6533    2835.3522    19401.636    11.461604 
    7150    924.17095   -6609.6816   -6506.5889    3095.8394    19385.166    11.458504 
    7160    913.39108   -6608.4629   -6506.5728    3431.4857    19371.957    11.452479 
    7170    906.29577   -6607.7012   -6506.6026    3089.5369    19362.267    11.451428 
    7180    905.66157   -6607.6898   -6506.6619    2145.4381    19355.727    11.462097 
    7190    910.31504   -6608.2931   -6506.7461    1622.8233    19351.479    11.481313 
    7200     910.9354   -6608.4669   -6506.8507    1450.4412    19348.971    11.505355 
    7210    917.47051   -6609.3413    -6506.996    1342.1235    19347.982    11.531575 
    7220    907.96488   -6608.4686   -6507.1838    1564.9435    19348.427     11.55125 
    7230    890.52761   -6606.7403   -6507.4006    2028.2091    19350.534    11.557787 
    7240    895.80341   -6607.5518   -6507.6236    2316.3799    19354.753    11.557229 
    7250     902.7804   -6608.5678   -6507.8613    2315.6946    19361.373    11.562983 
    7260    896.09414   -6608.0931   -6508.1325    2664.2347    19370.477    11.577621 
    7270    873.17604   -6605.8139   -6508.4098    3037.4647    19382.415    11.596087 
    7280    889.32862    -6607.877   -6508.6711    2283.4158    19397.476     11.61921 
    7290    904.01497   -6609.7671   -6508.9229    1175.0996    19414.945    11.654646 
    7300    884.78995    -6607.876   -6509.1764    1006.4068     19433.81    11.697016 
    7310    884.50789   -6608.0995   -6509.4313    807.66624    19453.769    11.735804 
    7320    877.73057   -6607.5897   -6509.6775    905.75786    19474.676     11.77132 
    7330    857.94761   -6605.6054      -6509.9    829.66164    19496.574     11.80736 
    7340    865.34762   -6606.5926   -6510.0618    323.36727    19519.371    11.841379 
    7350    882.55422   -6608.6067   -6510.1565   -554.09827    19542.525    11.872217 
    7360    883.23186   -6608.7318    -6510.206   -1139.5575    19565.157    11.906856 
    7370     886.6317   -6609.1243   -6510.2192   -966.38761    19586.673    11.956874 
    7380    894.03158    -6609.939   -6510.2084    -736.4253    19607.179    12.028087 
    7390    891.62597   -6609.6381   -6510.1758   -956.94043    19626.861    12.105633 
    7400    877.39206   -6607.9835   -6510.1091   -1384.0665    19645.509    12.172943 
    7410    881.75284   -6608.3455   -6509.9847   -2177.4936    19662.632    12.229859 
    7420    886.54975    -6608.688    -6509.792   -2566.4316    19677.448    12.279561 
    7430    880.85608   -6607.8107   -6509.5499   -2643.9084    19689.495    12.313375 
    7440    863.72996   -6605.5872   -6509.2368     -2140.51    19698.736    12.325608 
    7450    878.67492   -6606.8418   -6508.8243   -1894.2177    19705.614    12.327603 
    7460    897.91689    -6608.458    -6508.294   -1404.9912    19710.488    12.337224 
    7470     903.7651   -6608.5099   -6507.6935   -1070.2317    19713.819    12.364515 
    7480    912.69446   -6608.8701   -6507.0576   -671.37601    19715.995    12.408722 
    7490    915.37759   -6608.5215   -6506.4097    45.101878    19717.487    12.459484 
    7500    929.75394   -6609.4979   -6505.7825    310.48397    19718.985    12.509008 
    7510    934.20129   -6609.4187   -6505.2071   -49.950921    19720.751    12.554082 
    7520    913.98426   -6606.6606   -6504.7043   -324.86459    19722.469    12.591158 
    7530    891.22352   -6603.6576   -6504.2403   -635.99809    19723.834    12.618023 
    7540      889.917   -6603.0467   -6503.7751   -883.59059    19724.527    12.636028 
    7550    902.30025   -6603.9532   -6503.3003   -637.26365    19724.322    12.657883 
    7560     894.5802   -6602.6216   -6502.8298    -537.6646    19723.422    12.695771 
    7570    903.03101   -6603.0999   -6502.3654   -1114.9049     19721.89    12.747226 
    7580    913.07504   -6603.7605   -6501.9056   -1429.7876    19719.192     12.80098 
    7590    900.07742   -6601.8753   -6501.4703   -1118.9125    19715.016    12.845907 
    7600    902.37634   -6601.7231   -6501.0617   -1215.7052    19709.574    12.875361 
    7610    897.00758   -6600.7216   -6500.6591   -1518.0123    19702.821    12.889501 
    7620    933.11285   -6604.3704   -6500.2803   -2318.9197    19694.382    12.894881 
    7630    946.76562   -6605.5863   -6499.9732   -2787.6028    19683.489    12.898921 
    7640    915.35326   -6601.8799   -6499.7708   -2291.3164    19669.703    12.899832 
    7650    897.41779   -6599.7321   -6499.6238   -1729.4919    19653.466    12.892315 
    7660    924.78685   -6602.6481   -6499.4867   -1578.8917    19635.356    12.885201 
    7670    946.81228   -6605.0164    -6499.398   -1096.8736    19615.613    12.891748 
    7680     925.8339   -6602.6687   -6499.3905    77.843621    19594.803    12.910646 
    7690    909.94886   -6600.9432    -6499.437    954.08493     19574.08    12.930333 
    7700     894.4558   -6599.2667   -6499.4888    1469.8083    19554.401    12.941427 
    7710    911.13453   -6601.1886   -6499.5502    1280.9897    19536.239    12.943495 
    7720    925.52296   -6602.8797   -6499.6363    1554.0083    19519.531    12.947515 
    7730    928.23727    -6603.337   -6499.7907    2062.6144    19504.516    12.962519 
    7740    929.05867   -6603.6565   -6500.0186    2159.3904    19491.687    12.979568 
    7750    963.16185   -6607.8319   -6500.3897    1228.4442    19481.062    12.985468 
    7760    959.74517   -6608.0328   -6500.9718    758.87158    19471.803    12.981061 
    7770    944.91999   -6607.1943   -6501.7871    1030.1635    19463.422    12.970012 
    7780    937.73035    -6607.424   -6502.8188    1758.6302    19456.177     12.95682 
    7790    924.50494   -6607.1513   -6504.0214    2149.6632    19450.745    12.946953 
    7800    895.08158   -6605.1005   -6505.2528    1980.0037    19447.552    12.945949 
    7810    885.32204   -6605.1465   -6506.3875    946.28235    19446.352    12.957917 
    7820    850.39581   -6602.1378   -6507.2749    443.88774    19446.227    12.985363 
    7830    870.66248   -6605.0255   -6507.9018   -412.11268    19446.536    13.019846 
    7840    908.60229   -6609.7145   -6508.3586   -1165.6023    19446.419     13.04984 
    7850    920.23789    -6611.385    -6508.731   -1295.7529     19445.13    13.076776 
    7860     916.2029   -6611.2754   -6509.0716   -894.64359    19442.514    13.103625 
    7870    890.52235   -6608.7017   -6509.3626   -15.670569    19439.006    13.136648 
    7880    893.83227    -6609.302   -6509.5937    146.57063    19435.403    13.185695 
    7890    903.63904   -6610.5852   -6509.7829    58.693796    19431.912    13.245001 
    7900    895.88153   -6609.8852   -6509.9482    536.06279    19428.537    13.291668 
    7910    899.95088   -6610.4837   -6510.0929    919.23183    19425.711    13.309472 
    7920    915.24209   -6612.3263   -6510.2296    1043.3075    19423.824     13.30407 
    7930    919.78104   -6612.9934   -6510.3904    1526.5784    19423.087    13.290101 
    7940    910.94003   -6612.1965   -6510.5798    2086.9883    19423.969    13.278713 
    7950    925.24396   -6614.0197   -6510.8073    2197.5302    19427.023    13.274642 
    7960    942.33118   -6616.2194   -6511.1009     2014.783     19432.39    13.284927 
    7970     918.8801   -6613.9815   -6511.4791    2282.9482    19439.975    13.312704 
    7980    891.13197   -6611.2953   -6511.8882    1827.2993    19449.946    13.355195 
    7990    895.62477    -6612.196   -6512.2877    687.52309    19461.842    13.404993 
    8000    884.08355   -6611.2744   -6512.6535   -41.326915    19474.592    13.451875 
    8010     884.7397   -6611.6813   -6512.9873   -301.79996    19487.409    13.496548 
    8020    872.76949   -6610.6336   -6513.2749    66.494183    19500.038    13.539663 
    8030    863.80433   -6609.8692   -6513.5105    299.85537    19512.814    13.571863 
    8040    845.85659   -6608.0181   -6513.6615    171.74903    19525.962    13.585847 
    8050    856.49383   -6609.2535   -6513.7103   -582.78237    19539.303    13.589852 
    8060    885.51441   -6612.4459   -6513.6654   -1497.7154    19552.112    13.601476 
    8070    897.97679   -6613.7461   -6513.5754   -2260.6182    19563.413    13.627365 
    8080    888.12758   -6612.5432   -6513.4712   -2314.8324    19572.418    13.659509 
    8090    882.13363   -6611.7409   -6513.3376    -1863.018    19579.043    13.686002 
    8100    894.24878   -6612.9269   -6513.1721   -1110.9799    19583.741     13.69918 
    8110      876.049     -6610.69   -6512.9654   -139.66161    19587.317    13.700419 
    8120    865.87963   -6609.2951   -6512.7049    299.97082    19590.724    13.700531 
    8130     881.0097   -6610.6257   -6512.3478    283.88257    19594.434    13.708489 
    8140    893.86216    -6611.622   -6511.9104   -190.20954    19598.435    13.722792 
    8150    894.71611   -6611.2248   -6511.4179   -622.91515    19602.271    13.736025 
    8160    881.88172   -6609.2506   -6510.8753   -646.33006    19605.508    13.753002 
    8170    884.84216   -6608.9674   -6510.2619   -523.36363    19608.099    13.772863 
    8180    915.80178   -6611.7467   -6509.5877   -657.97889    19610.116    13.778049 
    8190    918.70272   -6611.3775   -6508.8948   -298.86851    19611.494    13.769625 
    8200    910.50056   -6609.8071   -6508.2394    387.31785    19612.602    13.754735 
    8210    890.56984   -6606.9587   -6507.6143    416.43343    19614.076    13.749981 
    8220    904.68107   -6607.9211   -6507.0025    -339.5937     19615.92    13.767327 
    8230     916.3126   -6608.6177   -6506.4016   -593.53119    19617.487    13.804626 
    8240    922.29897   -6608.7495   -6505.8657   -1057.6417    19618.402    13.848128 
    8250    920.56093   -6608.0926   -6505.4026   -1384.4944    19618.226    13.888516 
    8260    925.24486   -6608.2367   -6505.0243    -1212.053    19616.601    13.921829 
    8270    924.65638   -6607.8742   -6504.7274   -415.38697    19613.726    13.941361 
    8280    912.56467   -6606.2962   -6504.4983    82.173814     19610.34    13.938163 
    8290    911.01199   -6605.9481   -6504.3234    331.75118    19606.987    13.921614 
    8300    912.31431   -6605.9514   -6504.1814    518.09711    19603.974    13.917699 
    8310    929.41137   -6607.7634   -6504.0862   -174.59655    19601.403    13.933686 
    8320    917.53001   -6606.3939    -6504.042   -853.35676    19598.639     13.95632 
    8330    916.75146   -6606.3128   -6504.0478   -1007.0272    19594.993    13.975683 
    8340    925.43609   -6607.3319   -6504.0982   -848.63821    19590.243    13.987943 
    8350    902.09953   -6604.8141   -6504.1835      199.292    19584.647    13.998924 
    8360    886.84897   -6603.1963    -6504.267    603.94292     19579.15    14.007583 
    8370    902.80215   -6605.0389   -6504.3299    428.91848    19574.202    14.010835 
    8380    908.22075   -6605.7041   -6504.3907    743.32705    19569.726    14.010075 
    8390    883.69778   -6603.0297   -6504.4518    1164.8536    19566.007    14.001319 
    8400    857.93703   -6600.1775   -6504.4733    1470.3832    19563.495    13.983372 
    8410    855.50421   -6599.8489   -6504.4161    1635.2417    19562.526    13.963863 
    8420    880.28204   -6602.4789   -6504.2821    1671.2957    19563.318    13.952186 
    8430    902.91622   -6604.8406    -6504.119    1459.1381    19565.901    13.951722 
    8440    891.19391   -6603.3779   -6503.9639    1218.6885    19570.091    13.961433 
    8450    904.57321   -6604.7275    -6503.821    140.09678    19575.551    13.974415 
    8460    921.23759   -6606.4632   -6503.6977   -1013.4917    19581.231    13.987123 
    8470    907.21697   -6604.8209   -6503.6194   -1125.2884    19585.989     14.00464 
    8480    925.13499   -6606.7812    -6503.581   -1114.1903    19589.572      14.0316 
    8490    951.24131   -6609.7169   -6503.6045   -822.50171    19592.052    14.068715 
    8500    937.11158   -6608.2567   -6503.7205   -781.93528     19593.65    14.105611 
    8510    923.30682   -6606.8967   -6503.9004   -1060.5377    19594.403    14.132708 
    8520    915.59729   -6606.2404   -6504.1042   -1115.9261     19594.05     14.15264 
    8530    889.81676   -6603.5555   -6504.2951   -523.23351    19592.574     14.17331 
    8540    881.20412   -6602.7359   -6504.4362   -392.10164    19590.468    14.198869 
    8550    890.77433   -6603.8926   -6504.5254   -406.54184    19587.906    14.227772 
    8560    891.38603   -6604.0192   -6504.5837   -106.98495    19584.915     14.25899 
    8570    888.59845   -6603.7453   -6504.6208   -94.095404    19581.763    14.301813 
[...]
   22890    864.74191   -6594.3313   -6497.8681   -1981.8931    20177.059    47.404909 
   22900    829.41418   -6590.9813   -6498.4589   -1043.0819    20167.512    47.381979 
   22910    838.27028   -6592.3902   -6498.8798   -225.46009     20156.62    47.373511 
   22920    880.09645   -6597.3381    -6499.162    190.54118    20145.295    47.382065 
   22930    897.19083   -6599.4682   -6499.3852    232.06952    20134.025    47.405994 
   22940    878.81663    -6597.615   -6499.5817   -40.090344    20122.852     47.42985 
   22950    877.39711   -6597.6081   -6499.7332   -379.97234    20111.513    47.433285 
   22960     889.9926   -6599.1216   -6499.8416   -696.18545    20099.623    47.412029 
   22970     885.6071   -6598.7096   -6499.9188   -921.82369    20086.839    47.374917 
   22980    877.50265   -6597.8668   -6499.9801   -879.05179    20072.894    47.336864 
   22990    839.02011   -6593.5669    -6499.973    63.748063    20057.951    47.308829 
   23000    849.66387   -6594.6455   -6499.8642    98.743296    20042.836    47.307596 
   23010    879.41088   -6597.7497   -6499.6501    517.10795    20027.734    47.338489 
   23020    883.65324   -6597.9355   -6499.3627    1596.0554    20013.147    47.381721 
   23030    893.76239   -6598.7398   -6499.0392    2575.9589    20000.212     47.43395 
   23040    894.57286   -6598.4833   -6498.6923    3464.2309    19990.065    47.500974 
   23050    895.76188   -6598.2638   -6498.3402    3449.3588    19983.623    47.558598 
   23060    905.28928   -6598.9794    -6497.993    2633.6122    19980.899    47.603938 
   23070    919.19043   -6600.2108   -6497.6738    2110.7267    19981.142    47.661449 
   23080    900.41196   -6597.8332   -6497.3909    2361.3613    19983.839    47.740557 
   23090    910.64005   -6598.7265   -6497.1433    2126.4167    19989.139    47.845445 
   23100    915.04748   -6598.9906   -6496.9157    1661.6225    19996.835    47.974292 
   23110    890.71109   -6596.0828   -6496.7226    2174.5476    20006.584    48.096784 
   23120    894.75808    -6596.347   -6496.5354    2207.9484    20018.796    48.189728 
   23130     914.6375   -6598.3799   -6496.3507    2153.3709    20033.598    48.252902 
   23140    917.26881   -6598.5215   -6496.1988    2287.5252    20050.972    48.304585 
   23150    912.49456   -6597.8824   -6496.0922    2365.7032    20071.074    48.372062 
   23160    913.78578   -6597.9589   -6496.0247    1770.1517    20093.932    48.465281 
   23170    902.28356   -6596.6316   -6495.9805    924.29865    20118.962     48.58179 
   23180    888.05956   -6594.9988   -6495.9344    112.60826    20145.246    48.706845 
   23190    898.45742   -6596.0864   -6495.8622   -1117.2243    20171.795     48.82698 
   23200    910.81201   -6597.3822   -6495.7798   -2152.4233    20197.274    48.933724 
   23210    892.42226   -6595.2578   -6495.7067   -2491.8311    20220.527    49.018132 
   23220    899.95795   -6596.0385   -6495.6468   -2816.0846    20241.048     49.08129 
   23230    902.41836   -6596.2611   -6495.5949   -2730.8159    20258.514    49.141618 
   23240    894.02644   -6595.2979   -6495.5679   -2207.8861    20272.987    49.209892 
   23250    874.59899   -6593.1041   -6495.5413   -1585.8293        20285    49.300876 
   23260    867.96361   -6592.3014   -6495.4787   -1445.2255    20295.217     49.41433 
   23270    879.65905   -6593.4876   -6495.3603    -1796.194     20303.78    49.528681 
   23280    884.89147   -6593.9161   -6495.2051   -1886.3028    20310.353    49.626331 
   23290    873.86065   -6592.5035    -6495.023   -2003.8562    20314.791     49.69699 
   23300    878.99473   -6592.8576   -6494.8044    -2463.373      20316.9    49.729277 
   23310    888.28139   -6593.6357   -6494.5466   -2589.1338    20316.226    49.720985 
   23320    897.28897   -6594.3682   -6494.2742   -2416.8094    20312.576    49.691881 
   23330    890.26104   -6593.2972   -6493.9872   -2036.2318    20306.135    49.671587 
   23340    901.35315    -6594.234   -6493.6867   -1786.7127    20297.304    49.656911 
   23350    898.54693   -6593.6129   -6493.3786   -1082.4121    20286.447    49.633326 
   23360    876.43502   -6590.8306   -6493.0629   -109.97803     20274.34    49.597402 
   23370     876.6878    -6590.499   -6492.7032    542.57322     20262.02     49.55676 
   23380    891.87368   -6591.7749    -6492.285    1018.8037    20250.274    49.534469 
   23390     898.7226   -6592.0908    -6491.837    1386.2689    20239.658    49.538719 
   23400     884.6388   -6590.0565   -6491.3737    1876.6772    20230.632    49.554464 
   23410    892.53624   -6590.4589   -6490.8952     1691.491    20223.642    49.561649 
   23420    899.86783   -6590.7828   -6490.4012    1428.6471    20218.585    49.555388 
   23430    912.09006   -6591.6591   -6489.9141    816.11485    20215.112    49.556627 
   23440    915.56886   -6591.5829   -6489.4499    367.34277    20212.594    49.577045 
   23450    906.70439    -6590.173   -6489.0287   -49.851156    20210.468    49.629181 
   23460    907.45207   -6589.8591   -6488.6315   -142.51104     20208.33    49.723218 
   23470    921.50163   -6591.0547   -6488.2598   -283.09058    20206.023    49.830107 
   23480    926.23932   -6591.2598   -6487.9364   -64.137526    20203.426    49.909949 
   23490    913.49785    -6589.579    -6487.677    169.30239    20200.744     49.94076 
   23500    911.27181   -6589.1193   -6487.4655    -45.72809    20198.205    49.928112 
   23510    912.85447   -6589.0985   -6487.2683   -230.32875    20195.625    49.904779 
   23520    925.47874   -6590.3325    -6487.094   -294.12557    20192.786    49.906429 
   23530    925.38773   -6590.1842   -6486.9558    171.60844    20189.674    49.949547 
   23540    918.39226   -6589.3164   -6486.8683    832.25616    20186.777    50.036342 
   23550    923.69605   -6589.8689   -6486.8292    1058.6935    20184.771    50.142578 
   23560    926.79042   -6590.2331   -6486.8482    1211.3196    20183.958    50.239511 
   23570     911.9572   -6588.6542    -6486.924    1505.9415    20184.537    50.319792 
   23580    914.68706   -6589.0764   -6487.0417    1778.2456    20186.844    50.389903 
   23590     931.3089   -6591.0985   -6487.2096    1978.1854    20191.182    50.468734 
   23600    928.69465   -6591.0501   -6487.4528    1869.7577    20197.734    50.555667 
   23610    911.82837   -6589.4703   -6487.7544    1787.3214    20206.443    50.633196 
   23620    918.43408   -6590.5783   -6488.1256    1404.6516    20217.153    50.691724 
   23630    901.27316    -6589.075   -6488.5366    1187.8651    20229.508    50.736985 
   23640    909.00991      -6590.4   -6488.9985    470.21542     20243.17    50.770424 
   23650    898.24427   -6589.6899   -6489.4894   -318.65436    20257.384    50.807506 
   23660    891.07665   -6589.3893   -6489.9884   -1143.6371    20271.208     50.86724 
   23670    883.32632   -6589.0087   -6490.4723   -1537.8934    20283.756    50.945433 
   23680    888.20746   -6590.0176   -6490.9367   -1928.6636    20294.535    51.041469 
   23690    884.12046   -6590.0049   -6491.3799   -2276.4078    20303.097    51.164407 
   23700    881.96111    -6590.194   -6491.8099   -2149.5286    20309.105    51.303315 
   23710    876.85684   -6590.0249   -6492.2102   -2074.3409    20312.625    51.425472 
   23720     881.0575   -6590.8612   -6492.5779   -1930.9685    20313.753      51.5185 
   23730     886.5561   -6591.8022   -6492.9056   -1637.8045    20312.672    51.592293 
   23740    891.16919   -6592.6289   -6493.2177   -992.05878    20309.753    51.660728 
   23750    888.81121   -6592.6664   -6493.5182   -455.05612     20305.68    51.738088 
   23760    880.48858    -6592.019   -6493.7992   -48.070268    20301.101    51.820748 
   23770    884.17984   -6592.6861   -6494.0545   -704.12209    20296.375     51.88703 
   23780    891.18431     -6593.71   -6494.2971   -2318.6924    20290.758    51.927573 
   23790    881.15911   -6592.8325   -6494.5378   -3046.3269    20282.595    51.955943 
   23800    866.42304   -6591.4096   -6494.7588   -2443.9965    20271.097    51.982917 
   23810    859.77403   -6590.8255   -6494.9164   -1510.1224    20256.859    52.018419 
   23820    861.19285   -6591.0539   -6494.9865   -535.32753    20240.952    52.071035 
   23830    883.15233     -6593.49    -6494.973   -169.98493    20224.422    52.123624 
   23840    914.41771   -6596.9274   -6494.9227   -20.819589    20207.731    52.157125 
   23850    911.97304   -6596.6096   -6494.8776    801.31264    20191.145    52.163705 
   23860    903.92849   -6595.6852   -6494.8506    1707.3373    20175.539    52.153282 
   23870    899.23977   -6595.1423   -6494.8308    1923.9183    20161.839    52.161883 
   23880    909.38089    -6596.264   -6494.8212    1915.4854    20150.352    52.199397 
   23890    900.53726   -6595.2881   -6494.8318    2055.5632    20141.071     52.25126 
   23900    894.60284    -6594.649   -6494.8547    1948.1948    20134.121    52.322303 
   23910     907.7513   -6596.1422   -6494.8812      1186.56    20129.318     52.40331 
   23920    911.69637   -6596.6226   -6494.9215    913.76051    20125.921    52.448673 
   23930    905.22004   -6595.9688   -6494.9901    1204.6524    20123.618    52.456523 
   23940    892.58675    -6594.643   -6495.0736    1515.0884    20122.689    52.476916 
   23950    900.50544   -6595.6178   -6495.1651    1333.5216    20123.433    52.529055 
   23960    887.83995   -6594.2981   -6495.2583    1169.3195    20125.701    52.606802 
   23970    866.73994   -6592.0266   -6495.3405    1074.7535    20129.284    52.702349 
   23980    859.91743   -6591.2905   -6495.3654    859.87688    20134.057    52.794554 
   23990    876.89059   -6593.1374   -6495.3189    318.84634    20139.772    52.858138 
   24000    875.50603   -6592.8683   -6495.2043   -373.57291    20145.827    52.896268 
   24010     878.2237   -6592.9983   -6495.0311   -597.77285    20151.512    52.927096 
   24020    908.15468   -6596.1109   -6494.8049    -476.1645    20156.551    52.962636 
   24030    917.86914   -6596.9484   -6494.5587   -45.893887    20161.088     52.99634 
   24040    904.10003   -6595.1803   -6494.3266    581.16951    20165.598    53.031088 
   24050    903.74994   -6594.9246     -6494.11    411.92463    20170.668    53.069223 
   24060    895.61243   -6593.7937   -6493.8868   -307.97169    20176.141    53.101323 
   24070    876.47277   -6591.4066   -6493.6347   -148.76857     20181.34     53.12146 
   24080    873.03854   -6590.7161   -6493.3274    375.68948    20186.388    53.142532 
   24090    884.54177   -6591.6153   -6492.9434    550.23983    20191.806    53.167792 
   24100    884.08675   -6591.1153   -6492.4941    789.76508    20197.841    53.177964 
   24110    884.10735   -6590.6237   -6492.0002    591.27363    20204.712    53.154436 
   24120    906.38774   -6592.5814   -6491.4724    -460.2538    20212.127    53.096245 
   24130    922.77062   -6593.8625   -6490.9261   -1496.7185    20218.978    53.034429 
   24140    934.25422   -6594.6294   -6490.4119   -1503.4915    20224.175    52.994069 
   24150    910.15229   -6591.4875   -6489.9587   -118.75695    20227.769    52.969424 
   24160    882.79206   -6588.0339   -6489.5571    955.70179    20231.166    52.960293 
   24170    875.12221   -6586.7578   -6489.1366    837.47197    20235.497    52.979064 
   24180    906.09999    -6589.755   -6488.6782   -126.14845    20240.668    53.014195 
   24190    933.37124   -6592.3444   -6488.2255   -983.65467    20245.672    53.041332 
   24200    938.18974   -6592.5087   -6487.8522   -960.81579    20249.605    53.044852 
   24210    943.99847   -6592.8759   -6487.5714   -894.72138    20252.409    53.021447 
   24220    952.72185   -6593.6648   -6487.3872   -836.19064    20254.162    52.989088 
   24230    945.90882   -6592.8209   -6487.3033   -683.94442    20254.958    52.967681 
   24240     946.9632   -6592.9707   -6487.3356    -787.0026    20254.938    52.956463 
   24250    943.87652   -6592.7688    -6487.478   -962.39322    20254.037    52.951541 
   24260    941.12206   -6592.7099   -6487.7263   -1146.5874    20252.049    52.958779 
   24270    934.66428   -6592.3353   -6488.0721    -958.5075    20248.827    52.966098 
   24280    920.44773   -6591.1822   -6488.5049    -453.0433    20244.602    52.957623 
   24290    898.04878   -6589.1711   -6488.9924    53.703792    20239.917    52.951588 
   24300    890.10001   -6588.7838   -6489.4918    476.10542    20235.362    52.963819 
   24310    917.83014   -6592.3864    -6490.001    337.21886    20231.354    52.987037 
   24320    940.08676   -6595.4527   -6490.5846    35.045044    20227.773    53.014021 
   24330    909.78648   -6592.7264   -6491.2384    347.78991    20224.366    53.043248 
   24340    909.55835   -6593.3851   -6491.9225    583.85539    20221.407    53.070456 
   24350    918.08939   -6595.0251   -6492.6109    763.84121    20219.159    53.078687 
   24360    930.40135   -6597.1037    -6493.316    694.80844    20217.787    53.053553 
   24370    923.65587   -6597.0775   -6494.0423    323.02915    20217.194    53.021475 
   24380    905.11272   -6595.6919   -6494.7252    105.15412    20217.003    53.027692 
   24390    905.84892   -6596.3826   -6495.3338    210.82677    20216.973    53.084045 
   24400    893.59645   -6595.5225   -6495.8405    671.29662    20217.237    53.166177 
   24410     886.4899   -6595.1285   -6496.2393    847.89116    20218.216    53.248968 
   24420     863.7314   -6592.8649   -6496.5144    1250.7123    20220.189    53.315605 
   24430    866.00939   -6593.2773   -6496.6726    1009.4749    20223.481    53.365284 
   24440     880.9798   -6595.0148   -6496.7401    312.28977    20227.839    53.405818 
   24450    883.52807   -6595.3084   -6496.7495   -471.30311    20232.495    53.439217 
   24460    896.03052   -6596.6907   -6496.7371   -1403.6856    20236.523    53.473613 
   24470    880.65982   -6594.9436   -6496.7046   -1467.0389    20239.001    53.534457 
   24480     872.5003   -6593.9756   -6496.6469    -885.7442    20239.856    53.635424 
   24490    882.26717   -6594.9637   -6496.5455   -865.44866    20239.636     53.75328 
   24500    876.40214   -6594.1783   -6496.4143   -1290.8663    20238.387    53.860199 
   24510    862.57327    -6592.467   -6496.2457   -1896.3055    20235.674    53.943795 
   24520    873.38053   -6593.4518   -6496.0249   -2429.1584    20230.849    53.998954 
   24530    882.17505   -6594.1656   -6495.7576   -2446.5622    20223.373    54.037762 
   24540    884.63824   -6594.1434   -6495.4607    -2135.746    20213.244    54.068348 
   24550    885.98833   -6593.9796   -6495.1463   -1726.3634    20200.809    54.086999 
   24560    878.62018   -6592.8135   -6494.8021    -1218.616    20186.577     54.09634 
   24570    900.62041   -6594.9036   -6494.4381   -1219.0102    20171.068    54.097403 
   24580    899.50646   -6594.4038   -6494.0625   -1012.7888    20154.392    54.098935 
   24590    891.13693   -6593.1006   -6493.6929    -824.3747    20136.765    54.112853 
   24600    900.91222   -6593.8129   -6493.3148   -1032.2258     20118.37    54.142294 
   24610    906.16227   -6594.0256   -6492.9418   -1130.6177     20099.05    54.187039 
   24620    886.69229   -6591.4965   -6492.5847   -676.72201    20078.766    54.240695 
   24630    902.45887   -6592.9037   -6492.2331   -68.206938     20057.98    54.298017 
   24640    904.32907   -6592.7395   -6491.8602    1093.3362    20037.455    54.354893 
   24650    917.77638   -6593.8694   -6491.4901    1802.3651    20018.366    54.393801 
   24660     937.1488   -6595.6962   -6491.1559    1956.7535    20001.491    54.411448 
   24670    922.23311   -6593.7766   -6490.9002    2348.6397    19987.052    54.427479 
   24680    922.53434   -6593.6218   -6490.7117     2494.857    19975.378    54.452194 
   24690    932.61639   -6594.6071   -6490.5723    2165.7298    19966.579    54.486344 
   24700    940.35273   -6595.4105   -6490.5127    2016.2177     19960.32    54.540427 
   24710    940.12202   -6595.4236   -6490.5516    1872.2401    19956.376    54.613863 
   24720    935.72935   -6595.0727   -6490.6907    1714.5289    19954.578    54.688429 
   24730    918.66887   -6593.3937   -6490.9148    1742.3432    19954.726    54.764051 
   24740    892.44922   -6590.7376   -6491.1836    2164.4502    19956.829    54.838491 
   24750    889.85001     -6590.72   -6491.4558    2466.8408    19961.283    54.915284 
   24760    907.54884   -6592.9801   -6491.7417    2227.0293    19968.353    55.006829 
   24770    898.96108   -6592.3472   -6492.0667    1884.8475    19977.809    55.121435 
   24780    906.60327   -6593.5686   -6492.4357    974.58602     19989.18    55.255451 
   24790    915.77047   -6595.0259   -6492.8703    156.59073    20001.506    55.380567 
   24800    900.90943   -6593.8855   -6493.3877   -284.36372    20013.883    55.465355 
   24810    901.64608   -6594.5751   -6493.9951   -774.28019    20025.772    55.489182 
   24820    897.86265   -6594.8586   -6494.7007   -989.18119    20036.685    55.467914 
   24830    895.47763   -6595.4024   -6495.5105   -1024.2373    20046.386    55.448072 
   24840      888.109   -6595.4849    -6496.415   -1129.4366    20054.809    55.471524 
   24850    864.46993   -6593.7866   -6497.3537    -704.6398    20061.924    55.543511 
   24860    839.52119   -6591.8692   -6498.2193   -422.26015    20068.152    55.649854 
   24870     835.3131   -6592.1339   -6498.9535   -982.87658    20073.748    55.772586 
   24880    837.15908   -6592.9112   -6499.5248   -1903.1422    20078.133     55.89766 
   24890    850.55797   -6594.8261    -6499.945   -2302.4336    20080.393    56.015743 
   24900    863.84312   -6596.6248   -6500.2618   -2179.5275    20080.107    56.115273 
   24910    856.40328   -6596.0169   -6500.4838   -1592.8013    20077.447    56.187191 
   24920     863.3474   -6596.9238   -6500.6161   -1279.2545    20073.019    56.246184 
   24930    871.16244   -6597.8443   -6500.6648   -1294.3273    20067.194    56.313748 
   24940    862.27583   -6596.8313   -6500.6431   -820.90813    20060.056    56.396131 
   24950    841.86126   -6594.4353   -6500.5244   -77.476563    20052.141    56.487868 
   24960    846.81957   -6594.7563   -6500.2923    89.133357    20044.185    56.569201 
   24970    853.70435   -6595.1911   -6499.9591    329.59112    20036.454    56.610361 
   24980    838.07676   -6593.0345   -6499.5457     884.1133    20029.245    56.601682 
   24990     832.1013   -6591.8752   -6499.0531    1035.2105    20023.097    56.567418 
   25000    855.10611   -6593.8696   -6498.4812    640.13085    20018.136    56.545877 
Loop time of 11903.7 on 16 procs for 20000 steps with 864 atoms

Performance: 0.145 ns/day, 165.329 hours/ns, 1.680 timesteps/s
97.4% CPU use with 16 MPI tasks x 1 OpenMP threads

MPI task timing breakdown:
Section |  min time  |  avg time  |  max time  |%varavg| %total
---------------------------------------------------------------
Pair    | 7501.2     | 9815.1     | 11740      |1219.6 | 82.45
Bond    | 0.0022776  | 0.0046102  | 0.010692   |   3.4 |  0.00
Neigh   | 0.23878    | 0.29367    | 0.35464    |   6.7 |  0.00
Comm    | 117.51     | 1772.3     | 3926.5     |2617.4 | 14.89
Output  | 1.1801     | 1.2001     | 1.4933     |   6.9 |  0.01
Modify  | 44.849     | 314.73     | 607.31     |1156.2 |  2.64
Other   |            | 0.08994    |            |       |  0.00

Nlocal:        54.0000 ave          65 max          43 min
Histogram: 3 0 1 0 2 4 1 3 1 1
Nghost:        500.875 ave         533 max         440 min
Histogram: 1 0 1 1 1 2 1 3 4 2
Neighs:         0.00000 ave           0 max           0 min
Histogram: 16 0 0 0 0 0 0 0 0 0
FullNghs:      2326.12 ave        3032 max        1604 min
Histogram: 3 0 1 1 2 3 1 2 1 2

Total # of neighbors = 37218
Ave neighs/atom = 43.076389
Ave special neighs/atom = 0.0000000
Neighbor list builds = 2000
Dangerous builds = 2000
Total wall time: 4:08:43
