LAMMPS (29 Sep 2021 - Update 3)
OMP_NUM_THREADS environment is not set. Defaulting to 1 thread. (src/comm.cpp:98)
  using 1 OpenMP thread(s) per MPI task
Reading data file ...
  orthogonal box = (-0.86807005 -0.36582790 -1.2911651) to (18.279900 17.777658 36.114826)
  2 by 2 by 4 MPI processor grid
  reading atoms ...
  432 atoms
  reading velocities ...
  432 velocities
Finding 1-2 1-3 1-4 neighbors ...
  special bond factors lj:    0        0        0       
  special bond factors coul:  0        0        0       
     0 = max # of 1-2 neighbors
     0 = max # of 1-3 neighbors
     0 = max # of 1-4 neighbors
     1 = max # of special neighbors
  special bonds CPU = 0.001 seconds
  read_data CPU = 0.017 seconds
Neighbor list info ...
  update every 1 steps, delay 10 steps, check yes
  max neighbors/atom: 2000, page size: 100000
  master list distance cutoff = 6.22
  ghost atom cutoff = 6.22
  binsize = 3.11, bins = 7 6 13
  1 neighbor lists, perpetual/occasional/extra = 1 0 0
  (1) pair quip, perpetual
      attributes: full, newton on
      pair build: full/bin
      stencil: full/bin/3d
      bin: standard
Setting up Verlet run ...
  Unit style    : metal
  Current step  : 0
  Time step     : 0.001
Per MPI rank memory allocation (min/avg/max) = 8.882 | 8.882 | 8.883 Mbytes
Step Temp PotEng TotEng Press Volume c_msd[4] 
       0    288.61255   -3869.7899    -3853.711   -276.54284     12995.25            0 
      10    280.71536   -3869.3412   -3853.7022   -164.07974    12995.738 0.0035144269 
      20    285.81589   -3869.5965   -3853.6734   -224.57921    12997.374  0.012743849 
      30    295.66835   -3870.0936   -3853.6216    -444.7492    13000.165  0.026298691 
      40    292.39936   -3869.8392   -3853.5494   -612.36767    13003.815  0.042912791 
      50     282.9718   -3869.2183   -3853.4536   -780.43338    13008.025  0.060054883 
      60    283.73917   -3869.1309   -3853.3235   -979.44051    13012.579  0.075213491 
      70    292.29779   -3869.4359   -3853.1517   -984.94695    13017.245  0.088198299 
      80    293.28786   -3869.2843   -3852.9449   -751.61788    13021.817   0.10073354 
      90    286.32758   -3868.6695   -3852.7179   -347.61457    13026.259   0.11399264 
     100    286.66473   -3868.4499   -3852.4795   -35.010697    13030.721   0.12776714 
     110    304.53645    -3869.202   -3852.2359   -135.88245    13035.362   0.14190716 
     120    318.96293   -3869.7747   -3852.0049    -479.0496    13040.149   0.15735231 
     130    313.28114   -3869.2615   -3851.8083   -789.62202    13044.943   0.17396384 
     140    306.57603   -3868.7189   -3851.6392   -1019.1233    13049.541   0.18957911 
     150    307.82739   -3868.6263   -3851.4769    -1036.883    13053.674   0.20284325 
     160    308.12348   -3868.4755   -3851.3095   -966.05127    13057.231   0.21423284 
     170    309.39655    -3868.368   -3851.1312   -816.45313    13060.329   0.22456543 
     180    311.52911   -3868.2915   -3850.9359   -603.95342    13063.097   0.23440831 
     190    315.24995   -3868.2835   -3850.7206   -489.05599    13065.454   0.24397925 
     200    318.46156   -3868.2274   -3850.4856   -472.06119    13067.107   0.25356052 
     210    318.65149   -3867.9869   -3850.2345   -377.62214    13067.811   0.26370554 
     220    320.97586   -3867.8515   -3849.9695   -274.21257    13067.662   0.27464968 
     230     325.6988   -3867.8358   -3849.6908   -197.43011    13067.049   0.28603401 
     240    324.78521   -3867.4977   -3849.4035   -96.640433    13066.361   0.29673166 
     250    330.76137    -3867.537   -3849.1099    98.656337    13065.699   0.30534617 
     260    340.20094   -3867.7607   -3848.8077    369.72224    13065.045   0.31233348 
     270    337.66035   -3867.3159   -3848.5045    549.93633    13064.495   0.31914067 
     280    329.96508   -3866.5878   -3848.2051     581.5614    13064.166    0.3258052 
     290    332.91199   -3866.4453   -3847.8984    572.87267    13064.048   0.33242348 
     300    318.75849   -3865.3408   -3847.5824    849.02515    13064.042   0.34048576 
     310    317.06635   -3864.9237   -3847.2596    1031.4957    13064.109   0.34917078 
     320    338.53198   -3865.7694   -3846.9094     974.0206    13064.329   0.35776646 
     330    351.07144   -3866.0986     -3846.54    831.13009    13064.657   0.36638951 
     340    352.79557   -3865.8287   -3846.1741    670.55917    13064.829    0.3738067 
     350    358.39981   -3865.7793   -3845.8125    489.97029    13064.631   0.37904773 
     360    374.51806   -3866.3109    -3845.446    99.365571    13063.905    0.3829532 
     370    374.51493    -3865.944   -3845.0793   -28.717668    13062.264   0.38765747 
     380    365.30546   -3865.0746    -3844.723    39.802183    13059.455   0.39330496 
     390    370.29369   -3864.9909   -3844.3614    219.03055    13055.638   0.39822941 
     400    387.61775   -3865.5752   -3843.9806    455.66384     13051.25   0.40202436 
     410    403.64005   -3866.0737   -3843.5865    661.68462    13046.807   0.40589769 
     420    403.20711   -3865.6603   -3843.1972    927.83745    13042.857   0.41097548 
     430     395.4624   -3864.8532   -3842.8215    1229.9069    13039.831   0.41770422 
     440    384.73524    -3863.884   -3842.4499    1397.5496    13037.775   0.42657666 
     450    377.54435   -3863.1056   -3842.0722    1476.5414    13036.472   0.43756922 
     460    374.79637   -3862.5573   -3841.6769    1501.7542    13035.832    0.4499983 
     470    384.88236   -3862.7035   -3841.2613     1605.572    13036.145   0.46287341 
     480    403.34437   -3863.2953   -3840.8246    1543.3718     13038.11   0.47573752 
     490    411.16808   -3863.2911   -3840.3845    1272.5352    13042.327   0.48800515 
     500     421.6146   -3863.4404   -3839.9517    933.49497    13048.728   0.49800342 
     510    417.85963   -3862.8017   -3839.5223    948.28142    13056.512   0.50661278 
     520    418.01049   -3862.3892   -3839.1013    980.95725    13065.048   0.51480322 
     530    421.90825   -3862.1809   -3838.6759    1072.9447    13074.283   0.52367453 
     540    415.08693    -3861.375   -3838.2501    1284.0477    13084.478   0.53440728 
     550    416.45878   -3861.0218   -3837.8205    1322.3837    13095.814    0.5465597 
     560    426.87871    -3861.155   -3837.3731    993.99818     13108.18   0.55906242 
     570    427.71872   -3860.7412   -3836.9125    706.33815    13121.157   0.57068549 
     580    425.57828   -3860.1581   -3836.4487    590.38518    13134.297   0.58031429 
     590    429.80901   -3859.9204   -3835.9753    397.53277     13147.18   0.58778944 
     600    436.39521   -3859.8018   -3835.4897    74.176939    13159.331   0.59374548 
     610    439.55307   -3859.4848   -3834.9968   -190.75395    13170.404   0.59898531 
     620    438.59527   -3858.9382   -3834.5035   -286.83576    13180.188   0.60407763 
     630    457.82716   -3859.5093   -3834.0032   -439.99761    13188.635   0.60944834 
     640    463.51265   -3859.3195   -3833.4967   -403.00912    13195.949   0.61592772 
     650    458.46282   -3858.5443   -3833.0028   -168.86344    13202.442   0.62250416 
     660    461.14997   -3858.2041    -3832.513   -160.68382    13208.346   0.62795143 
     670     478.1654   -3858.6514   -3832.0123   -427.83213    13213.695   0.63304499 
     680    485.05651   -3858.5287   -3831.5057   -313.62274    13218.466   0.63947014 
     690    496.29161   -3858.6552   -3831.0062   -186.72818    13222.927   0.64699445 
     700    504.37878   -3858.6097   -3830.5102    8.0414241    13227.276   0.65518535 
     710    499.17257   -3857.8371   -3830.0276    217.63996     13231.54    0.6638643 
     720      502.886   -3857.5674   -3829.5511    136.23886    13235.495   0.67248032 
     730    504.48817    -3857.177   -3829.0713   -135.43903    13238.703   0.68124835 
     740    506.43081   -3856.8042   -3828.5904    -315.1968    13240.648   0.68999992 
     750    513.19506   -3856.6966   -3828.1059   -123.35056    13240.971   0.69860074 
     760    518.77932   -3856.5194   -3827.6176    531.23371    13239.783   0.70781335 
     770    519.86492   -3856.0923     -3827.13    1268.7485    13237.665   0.71888668 
     780    520.02327   -3855.6123   -3826.6412    1700.5109    13235.344   0.73217981 
     790     524.8149    -3855.388   -3826.1499    1866.8152     13233.38   0.74643321 
     800    530.98576   -3855.2341   -3825.6523    1941.2818    13231.935   0.76034357 
     810    537.18782   -3855.0791   -3825.1517    2103.0032    13231.064    0.7730656 
     820    560.80767   -3855.8915   -3824.6483    2159.1698    13230.989   0.78333862 
     830    572.00275    -3856.015    -3824.148    1931.7674    13231.942   0.79229607 
     840    563.23785   -3855.0546    -3823.676    1708.5156    13234.004   0.80173744 
     850    554.73972   -3854.1286   -3823.2234    1638.8093    13237.199   0.81218039 
     860    548.70515   -3853.3427   -3822.7737    1542.2608    13241.518   0.82407473 
     870    552.63871   -3853.1013   -3822.3132    1315.2741    13246.874    0.8364245 
     880    555.43036   -3852.7808   -3821.8371    1115.7266    13253.069   0.84887002 
     890    556.75203   -3852.3684   -3821.3512    1346.4268    13260.027   0.86253485 
     900    555.67542   -3851.8168   -3820.8595    1701.7587    13268.057    0.8780136 
     910    558.83674   -3851.4914    -3820.358    1585.8841    13277.402   0.89480069 
     920    575.44582   -3851.8995   -3819.8407    1307.0439    13287.843   0.91366071 
     930    584.55432   -3851.8792    -3819.313    1323.6097    13298.848   0.93528447 
     940    576.87501   -3850.9342   -3818.7958    1633.4094    13310.171   0.95763708 
     950    580.83003   -3850.6483   -3818.2896    1856.4848    13322.171   0.97748859 
     960    582.07018   -3850.2051   -3817.7774    2135.0162     13335.11   0.99477531 
     970    600.84768   -3850.7303   -3817.2564    2143.0263    13348.737    1.0100435 
     980    614.45459   -3850.9559    -3816.724    2071.2682    13362.342    1.0243975 
     990    625.38188   -3851.0435   -3816.2028    1950.4305    13375.335    1.0390928 
    1000    612.16171   -3849.8084   -3815.7042    1981.3128    13387.516    1.0556549 
    1010    588.70105   -3848.0267   -3815.2295    1795.4603    13399.219    1.0741357 
    1020    580.74704   -3847.1043   -3814.7502    1601.4483    13410.952    1.0925726 
    1030    592.13644   -3847.2322   -3814.2436    1454.2802    13423.177    1.1097458 
    1040    612.70401   -3847.8424    -3813.708    1281.8505    13436.249    1.1259692 
    1050    620.28584    -3847.719   -3813.1622    1177.1154    13450.362    1.1422475 
    1060    616.18767   -3846.9497   -3812.6212    974.04983    13465.403    1.1588723 
    1070    607.20142   -3845.9076   -3812.0798    912.98294    13480.777    1.1746862 
    1080    612.74847   -3845.6618   -3811.5249    654.85965     13495.65    1.1882619 
    1090    623.97944   -3845.7123   -3810.9497    426.70898    13509.111    1.2002526 
    1100    633.02091   -3845.6353    -3810.369    306.71159     13520.68    1.2123006 
    1110    647.12987   -3845.8436   -3809.7913    366.43872    13530.301    1.2249095 
    1120    663.01959   -3846.1593   -3809.2217     572.3124    13538.062    1.2375678 
    1130     666.5678   -3845.8092    -3808.674    561.91767    13544.372      1.24937 
    1140    662.83804   -3845.0781   -3808.1507     186.7921    13549.775     1.258891 
    1150    669.09549   -3844.9157   -3807.6396   -92.238843    13554.263    1.2656216 
    1160    670.85829   -3844.5086   -3807.1343    21.506802    13557.513    1.2721111 
    1170    656.41292    -3843.209   -3806.6395    492.19565    13559.739    1.2801815 
    1180    649.73405   -3842.3419   -3806.1444    867.75291    13561.568    1.2880806 
    1190    664.01847   -3842.6209   -3805.6277    821.34991    13563.137    1.2919541 
    1200     672.8984   -3842.5793   -3805.0913    713.46251     13564.17    1.2912018 
    1210    684.46232    -3842.683   -3804.5508    544.02248    13564.738     1.289516 
    1220    704.91881   -3843.2796   -3804.0078    504.59046    13565.024    1.2902334 
    1230    722.82524   -3843.7476   -3803.4782    598.66051    13565.173    1.2942161 
    1240     718.7761   -3843.0228    -3802.979    808.56617    13565.696    1.3015641 
    1250    693.65748    -3841.157   -3802.5125    1143.7417    13567.124    1.3118844 
    1260    706.55425   -3841.4156   -3802.0526    1111.4018    13569.517    1.3241839 
    1270    732.31092   -3842.3739    -3801.576    842.03822    13572.631    1.3398397 
    1280       745.87   -3842.6626   -3801.1093    711.11598    13576.212    1.3589235 
    1290    757.44755   -3842.8663   -3800.6681    585.64383    13580.001    1.3802254 
    1300    754.96998   -3842.3205   -3800.2603    603.40119    13583.812     1.403386 
    1310    757.08619   -3842.0622   -3799.8841    679.99478    13587.636    1.4260413 
    1320    742.66272   -3840.9042   -3799.5297    958.78264    13591.524    1.4490375 
    1330    729.07842   -3839.8049   -3799.1871    1403.6851    13595.672    1.4734916 
    1340    716.40143   -3838.7445    -3798.833    1623.4565    13600.432     1.497563 
    1350    722.29657   -3838.6901   -3798.4501    1498.5017    13605.965    1.5190765 
    1360    745.96104   -3839.5913    -3798.033    1207.9668    13612.093     1.536511 
    1370     744.0035    -3839.047   -3797.5978    1381.2637    13618.628    1.5489754 
    1380      728.872   -3837.7659   -3797.1596    1332.7621    13625.633    1.5564231 
    1390    741.22356   -3837.9944      -3796.7    887.01529    13632.745    1.5599366 
    1400     754.4228   -3838.2449   -3796.2151    595.45405    13639.302    1.5633046 
    1410    749.34623   -3837.4714   -3795.7245    751.62617    13644.886    1.5700737 
    1420    747.64665    -3836.886   -3795.2337      823.985    13649.494    1.5803538 
    1430    753.84933   -3836.7291   -3794.7313    702.18612    13653.441    1.5931227 
    1440    767.77079   -3836.9941   -3794.2207    597.63464    13657.195    1.6090422 
    1450    769.98584   -3836.6045   -3793.7077    780.37006    13661.067    1.6274567 
    1460    771.05076   -3836.1588   -3793.2027    913.63708    13665.267    1.6439662 
    1470    794.85845   -3836.9791   -3792.6966    620.15631    13669.836    1.6567895 
    1480    807.12292   -3837.1653   -3792.1996    478.18132    13674.479     1.668882 
    1490    799.25952   -3836.2574   -3791.7298    736.92476    13678.911    1.6835241 
    1500    785.41847   -3835.0402   -3791.2837    1044.4866    13682.898    1.7016391 
    1510    761.61675   -3833.2709   -3790.8403    1350.4364    13686.676    1.7223854 
    1520    777.70661   -3833.7057   -3790.3788    1446.8424    13690.962    1.7427413 
    1530    776.32515   -3833.1369    -3789.887    1496.2544    13696.272    1.7641438 
    1540    770.22546   -3832.2923   -3789.3822    1399.0326    13702.708    1.7875019 
    1550    773.45591   -3831.9437   -3788.8536    1107.0173    13710.068    1.8127254 
    1560    785.16926   -3832.0459   -3788.3033    940.06542    13718.274    1.8396497 
    1570    796.18548   -3832.0947   -3787.7383    865.88844    13727.556    1.8673604 
    1580     815.0636   -3832.5843   -3787.1762    715.89569    13738.355    1.8934239 
    1590    825.64714   -3832.6253   -3786.6275    475.22084    13751.248    1.9194331 
    1600    836.22881   -3832.6925   -3786.1052    266.98409    13766.588    1.9492831 
    1610    842.54373   -3832.5422   -3785.6032   -83.505563    13784.183    1.9831847 
    1620    833.37289   -3831.5475   -3785.1194   -473.36244    13803.117    2.0188856 
    1630    807.38715    -3829.628   -3784.6476   -602.55465    13822.589    2.0562914 
    1640    796.58189     -3828.55   -3784.1715   -414.39025    13842.458    2.0952503 
    1650    823.28962   -3829.5309   -3783.6645   -243.24684    13863.007    2.1337142 
    1660    833.79671   -3829.5845   -3783.1328   -177.79671    13884.482    2.1706875 
    1670    856.30212   -3830.3155   -3782.6099   -420.34415    13907.379    2.2056473 
    1680    883.95566   -3831.3259   -3782.0798   -1048.1506    13931.646    2.2407066 
    1690    875.03311   -3830.3125   -3781.5635   -1200.6866    13955.897    2.2773742 
    1700    865.61146   -3829.2981    -3781.074   -1114.5617    13978.709    2.3145274 
    1710    863.29989   -3828.6872   -3780.5918   -803.73775    13999.155    2.3534253 
    1720    850.57321   -3827.5078   -3780.1214   -529.02376     14016.74    2.3969732 
    1730    860.01659   -3827.5631   -3779.6506   -563.05162    14031.777    2.4449754 
    1740    871.21056    -3827.703   -3779.1669    -584.0613    14044.606    2.4951785 
    1750    871.80253   -3827.2581    -3778.689   -503.86175    14055.735    2.5420403 
    1760    881.78776   -3827.3402   -3778.2148    -593.5151    14066.136    2.5814349 
    1770    879.26381   -3826.7301   -3777.7454   -542.30338    14076.758    2.6148884 
    1780    888.50594   -3826.7801   -3777.2805   -364.88768    14088.246    2.6455589 
    1790    889.45465   -3826.3657   -3776.8132   -262.29744     14100.62     2.675075 
    1800    893.12382   -3826.1047   -3776.3478    -452.7886     14113.57    2.7017924 
    1810    916.00528   -3826.9083   -3775.8766   -895.29644    14126.616    2.7247834 
    1820     935.2819   -3827.5183   -3775.4127   -1387.5361    14138.933    2.7444963 
    1830    922.98243   -3826.3987   -3774.9784   -1440.4858    14149.561    2.7620138 
    1840    900.08246   -3824.7165   -3774.5719   -1072.9318    14157.969      2.77826 
    1850     913.0855   -3825.0382   -3774.1692   -807.25717    14164.269    2.7961865 
    1860     912.5507   -3824.5961   -3773.7569    40.772712    14168.734    2.8190882 
    1870     924.0866   -3824.8267   -3773.3448    598.29125    14172.174    2.8456822 
    1880    921.22327   -3824.2511   -3772.9288    830.80297    14175.206    2.8744328 
    1890    920.58397   -3823.8006   -3772.5138    549.11583    14178.392    2.9020342 
    1900    930.14432   -3823.9074    -3772.088   -272.55514    14181.815    2.9246245 
    1910    894.87303   -3821.5116   -3771.6572   -552.51838    14184.443    2.9440205 
    1920     863.4656   -3819.3139   -3771.2093   -492.71694    14186.065    2.9619244 
    1930    883.94028   -3819.9503    -3770.705   -744.00998    14187.364    2.9781274 
    1940    913.56127   -3821.0333   -3770.1378   -1084.7836    14188.409    2.9945485 
    1950    954.05373   -3822.7001   -3769.5486   -1333.0531    14188.782    3.0132322 
    1960    956.67604   -3822.2743   -3768.9768   -1077.3895    14188.353    3.0355847 
    1970    947.76325   -3821.2505   -3768.4495   -764.83829    14187.109    3.0596223 
    1980    955.64004   -3821.1916   -3767.9518    -476.9237    14184.271    3.0784278 
    1990     962.3853   -3821.0937   -3767.4781    10.767224    14178.745    3.0841889 
    2000    988.34803   -3822.0952   -3767.0332    404.96785    14170.083    3.0771951 
    2010    974.93645   -3820.9332   -3766.6184    824.80345    14158.755    3.0660064 
    2020    969.16298   -3820.2188   -3766.2257    1036.8765    14145.941    3.0558631 
    2030    981.56927   -3820.5153    -3765.831    1115.3114     14132.96    3.0516732 
    2040     995.3272   -3820.8935   -3765.4427    1539.8502    14120.457    3.0557221 
    2050    1004.7279    -3821.051   -3765.0765    1898.6916    14108.057    3.0638624 
    2060    1018.3751   -3821.4749   -3764.7401    1934.0233     14094.84    3.0701438 
    2070    1021.3714   -3821.3404   -3764.4387    1596.2822    14080.059    3.0752366 
    2080    1004.9642   -3820.1515   -3764.1638    1445.7072    14063.481    3.0823924 
    2090    1010.9794   -3820.2185   -3763.8957    1399.7321    14045.624    3.0905106 
    2100    1024.1916   -3820.6838    -3763.625    1139.4326    14027.187    3.0995968 
    2110    1019.7897   -3820.1712   -3763.3576    1209.1699    14008.696    3.1112523 
    2120    1010.3238   -3819.3734   -3763.0871    1942.3297    13991.084     3.126808 
    2130    999.72495   -3818.4932   -3762.7974    2599.3056    13975.753    3.1431462 
    2140     1022.385    -3819.448   -3762.4898    2313.0882     13963.54    3.1521768 
    2150    1031.2074   -3819.6265   -3762.1768     2088.523    13954.389    3.1567283 
    2160    1004.4694   -3817.8257   -3761.8656    2418.0087    13947.887    3.1688256 
    2170      991.238   -3816.7582   -3761.5352    2709.2325    13944.382    3.1934276 
    2180    1005.7979   -3817.1974   -3761.1633    2638.1029     13944.28    3.2268356 
    2190    1028.5973   -3818.0589   -3760.7546    1960.2481    13947.272    3.2686393 
    2200     1020.367   -3817.1665   -3760.3207    1937.4171    13952.429    3.3182082 
    2210    1024.3699   -3816.9421   -3759.8733    1721.4292    13959.075    3.3688974 
    2220    1038.5171    -3817.258    -3759.401    952.57564    13966.511    3.4173378 
    2230    1034.6566   -3816.5603   -3758.9184    565.61458    13973.473    3.4655856 
    2240    1021.8481   -3815.3616   -3758.4333    477.84926    13978.725    3.5113274 
    2250    1043.6918   -3816.0893    -3757.944    529.90861    13981.336    3.5501969 
    2260    1063.8649   -3816.7267   -3757.4576    666.96875    13981.308    3.5818041 
    2270    1051.7898   -3815.5961   -3756.9997    1213.8871     13979.37    3.6096503 
    2280    1032.7571   -3814.1059   -3756.5699    1604.2703    13976.596    3.6353793 
    2290    1023.9762   -3813.1877   -3756.1408     1666.281    13973.545    3.6575386 
    2300    1043.3219    -3813.834   -3755.7094    1537.8213    13969.542    3.6789295 
    2310    1039.9663   -3813.2159   -3755.2782    1240.6072    13963.516    3.6988896 
    2320    1045.6992   -3813.1213   -3754.8642    944.59655    13954.757    3.7124884 
    2330    1048.1635   -3812.8491   -3754.4547    1122.3667    13943.144    3.7179344 
    2340    1061.7978   -3813.2015   -3754.0476    1480.7816    13929.524     3.716084 
    2350    1085.8789   -3814.1369   -3753.6414    1590.4248    13915.153    3.7129703 
    2360    1104.6685   -3814.7966   -3753.2542    1431.7173    13901.445    3.7188798 
    2370    1100.5244   -3814.2182   -3752.9068    1407.0791     13889.49    3.7379989 
    2380    1071.9034   -3812.3115   -3752.5946     1660.531    13879.659    3.7652006 
    2390    1078.6663   -3812.3825   -3752.2888    1713.0999    13872.053     3.785629 
    2400    1114.5457   -3814.0729   -3751.9803    1804.4302    13866.353    3.7911972 
    2410    1125.2134   -3814.3766   -3751.6897    2059.9932    13861.771    3.7934581 
    2420     1116.105    -3813.611   -3751.4316     2258.836    13857.486    3.8001684 
    2430      1086.53   -3811.7173   -3751.1855    2626.0038    13852.771    3.8149975 
    2440    1083.8005    -3811.305   -3750.9252    2900.4508    13847.911    3.8338505 
    2450     1052.862   -3809.2776   -3750.6214     3239.945    13844.006    3.8510995 
    2460    1060.5644   -3809.3583    -3750.273    2579.6627    13842.181    3.8692606 
    2470    1070.8933   -3809.5206   -3749.8599    2037.8234    13842.317     3.892533 
    2480    1073.2623   -3809.1961   -3749.4034     1769.876    13843.969    3.9238067 
    2490    1031.3366    -3806.362   -3748.9051    2137.9327    13847.089     3.963601 
    2500    1046.6232   -3806.6697   -3748.3611    2336.3692    13852.411    4.0093921 
    2510    1101.7438   -3809.1375   -3747.7581    2586.6208    13860.873    4.0627641 
    2520     1149.398   -3811.1924   -3747.1581    2960.3108    13873.305    4.1274125 
    2530    1152.3994   -3810.8274    -3746.626    3364.5051    13890.102    4.2057119 
    2540    1127.5327   -3808.9931    -3746.177    3133.7379    13911.527    4.2897427 
    2550    1114.8989   -3807.8852   -3745.7729    2889.8242    13937.125    4.3635353 
    2560    1118.4493   -3807.6866   -3745.3765    2722.3511     13965.89    4.4223166 
    2570    1107.0607   -3806.6616    -3744.986    2505.4303    13997.178    4.4762641 
    2580    1122.0436    -3807.103   -3744.5926    1902.0279    14030.971    4.5389935 
    2590     1154.044   -3808.4625   -3744.1694    1325.7134    14066.622    4.6254233 
    2600     1159.028   -3808.3209   -3743.7501    938.60675    14103.063    4.7397989 
    2610     1160.196   -3807.9824   -3743.3465    119.46995    14139.818     4.879605 
    2620    1121.2813   -3805.4037   -3742.9359   -407.49147    14176.192    5.0293053 
    2630    1137.4494   -3805.8618   -3742.4932   -1283.8612    14211.223    5.1642526 
    2640    1119.8825    -3804.389   -3741.9991   -1388.2124    14243.623    5.2828251 
    2650     1084.069     -3801.88   -3741.4853   -992.60042     14272.96    5.3954075 
    2660    1084.3976   -3801.3322   -3740.9192   -1187.7943    14299.617    5.5026303 
    2670    1131.6212   -3803.3226   -3740.2787   -1591.9909    14323.581    5.6012647 
    2680    1146.6995   -3803.4799    -3739.596   -1449.3139    14344.516    5.6891323 
    2690    1161.9671   -3803.6473   -3738.9128   -1393.8839    14361.725     5.761058 
    2700     1171.813   -3803.5292   -3738.2461   -1136.0454    14373.937    5.8146777 
    2710     1187.937   -3803.8036   -3737.6223   -1077.3246    14380.736    5.8606659 
    2720    1205.9903   -3804.2312   -3737.0441   -1011.0759    14381.849    5.9072632 
    2730    1204.9915    -3803.663   -3736.5316    -774.1201    14376.882    5.9463889 
    2740    1172.0252   -3801.3679   -3736.0731   -543.22342    14366.084    5.9786556 
    2750    1166.3325    -3800.599   -3735.6213   -526.93474    14350.492    5.9998496 
    2760    1218.1681   -3803.0124   -3735.1469   -731.97543    14331.298    6.0068224 
    2770    1266.0564   -3805.2125   -3734.6791   -774.65526    14309.043    6.0066686 
    2780       1269.3    -3804.966   -3734.2519   -233.84151    14284.612    6.0022912 
    2790    1283.3754   -3805.3736   -3733.8753    382.69008    14259.303    5.9968712 
    2800    1276.2139   -3804.6456   -3733.5463    901.50882    14234.147    6.0042041 
    2810    1229.9804   -3801.7715    -3733.248    1488.9099    14210.055     6.031503 
    2820    1220.3666   -3800.9345   -3732.9465     1715.591    14187.699    6.0755789 
    2830    1246.6144   -3802.0605   -3732.6102    1947.1229    14167.684    6.1393985 
    2840    1257.7312   -3802.3243   -3732.2546    1955.0094    14150.602    6.2186614 
    2850    1269.2578   -3802.6161   -3731.9043    1654.1345    14136.639    6.2938652 
    2860    1266.8361   -3802.1365   -3731.5597    1568.3993    14125.785    6.3554803 
    2870    1262.8128   -3801.5753   -3731.2225    1595.4766    14117.617    6.4038701 
    2880    1291.1502   -3802.8132   -3730.8818     1525.464    14111.382    6.4434504 
    2890    1285.4398   -3802.1639   -3730.5506    2007.9014     14106.82    6.4894041 
    2900    1234.0647   -3798.9728   -3730.2216     2601.346    14104.443    6.5556536 
    2910    1229.8133   -3798.3765   -3729.8623    2575.5076    14104.316    6.6407714 
    2920    1225.1373   -3797.6892   -3729.4354    2221.6482     14105.95    6.7323531 
    2930    1246.2206   -3798.3704   -3728.9421    1724.4795    14108.933    6.8177775 
    2940    1232.3125   -3797.0438   -3728.3903    2206.8385    14112.792    6.8944009 
    2950    1224.6267   -3796.0187   -3727.7933    2540.1641    14117.995    6.9698388 
    2960    1239.6069   -3796.2005   -3727.1406    2511.8338    14125.504    7.0486346 
    2970    1293.9219   -3798.5333   -3726.4475    2086.2274    14135.525    7.1248006 
    2980    1335.8389   -3800.1784   -3725.7573    2025.2834    14147.518    7.1982763 
    2990    1335.8565    -3799.566   -3725.1439    2216.4129    14160.873    7.2672336 
    3000    1320.1473   -3798.1619    -3724.615    2235.0439    14174.962     7.329956 
    3010    1308.7278   -3797.0616   -3724.1509    2098.7117    14189.247    7.3876769 
    3020    1307.7178   -3796.5819   -3723.7274    2118.6504    14203.137    7.4410186 
    3030     1286.977   -3795.0305   -3723.3315    2128.2488    14216.088    7.4883866 
    3040    1287.9345   -3794.7057   -3722.9535     1765.138    14228.432    7.5286345 
    3050    1318.1927   -3796.0121   -3722.5741    1094.9748    14240.479    7.5741638 
    3060    1318.7413   -3795.6717   -3722.2031    980.43906    14251.772    7.6308833 
    3070    1317.1244   -3795.2357   -3721.8572    827.40226    14262.254    7.7001585 
    3080    1297.1171   -3793.7872   -3721.5233    880.26214    14272.238     7.783244 
    3090    1254.5527   -3791.0714   -3721.1788    1256.8744     14282.15    7.8684603 
    3100    1257.3429   -3790.8402   -3720.7922    966.88995    14292.775    7.9423092 
    3110    1267.3818   -3790.9501   -3720.3429    633.37886    14304.271    8.0095513 
    3120    1232.3801   -3788.4952   -3719.8379    664.52484    14316.061    8.0840022 
    3130    1264.1138   -3789.6978   -3719.2726    233.67588    14327.387    8.1656904 
    3140    1296.0262   -3790.8461    -3718.643   -212.22835    14337.722    8.2538085 
    3150    1312.0818   -3791.1067   -3718.0091   -419.21028     14346.95     8.350233 
    3160    1320.8175   -3790.9656   -3717.3814   -989.04897    14354.842    8.4493442 
    3170    1329.6662   -3790.8579   -3716.7807   -1510.6474    14361.012    8.5369028 
    3180    1323.5801   -3789.9422   -3716.2041   -1697.3717    14365.358     8.612613 
    3190    1349.3848   -3790.8275   -3715.6517   -2021.4507    14367.669    8.6800483 
    3200    1369.7644   -3791.4394   -3715.1283   -2101.4196    14367.175    8.7353236 
    3210    1343.7581   -3789.5106   -3714.6483   -1509.6122    14363.397    8.7714713 
    3220    1313.4878   -3787.3659     -3714.19   -787.07658    14356.698    8.7924422 
    3230    1291.2018    -3785.645   -3713.7107   -89.331933    14347.893    8.8194963 
    3240    1310.7001   -3786.1941   -3713.1736    160.99195    14338.405    8.8671274 
    3250    1336.1821   -3787.0272    -3712.587    178.73232    14329.366    8.9348971 
    3260    1368.1158   -3788.2009   -3711.9817    -147.8846    14320.584    9.0101544 
    3270    1371.8052     -3787.82   -3711.3952   -69.755234    14310.503    9.0802474 
    3280    1336.9888   -3785.3094   -3710.8243    731.52732      14298.3    9.1339718 
    3290    1336.8899    -3784.718   -3710.2384    1678.3747     14285.26    9.1731691 
    3300    1318.6801   -3783.0736   -3709.6084    2522.9653    14273.512    9.2074909 
    3310    1312.7478   -3782.0783   -3708.9436    2707.4602    14264.486    9.2412593 
    3320    1368.2381   -3784.4646   -3708.2385    1919.9553    14258.309     9.278041 
    3330    1408.2684   -3785.9781   -3707.5219    1353.9277    14253.555    9.3286335 
    3340    1422.7556   -3786.1121   -3706.8488    1026.3315    14248.789    9.3916329 
    3350    1410.2459   -3784.7985   -3706.2321    1188.7651    14243.431    9.4613546 
    3360    1430.6803   -3785.3632   -3705.6584    1282.3537    14237.746    9.5361658 
    3370    1452.5969   -3786.0436   -3705.1178     1697.977    14232.144    9.6136824 
    3380    1466.5003   -3786.3267   -3704.6263    2411.2626    14227.013    9.6848135 
    3390    1482.8035   -3786.8042   -3704.1956    2678.4442    14223.262    9.7463991 
    3400    1465.1793   -3785.4477    -3703.821    2800.3524    14221.238    9.8059665 
    3410     1479.565   -3785.9184   -3703.4902    2200.1884     14220.91    9.8671467 
    3420    1489.2017    -3786.161   -3703.1959    2134.0685    14221.128    9.9252974 
    3430     1464.886    -3784.549   -3702.9386    2698.2511    14220.802    9.9805443 
    3440    1446.1061   -3783.2564   -3702.6922    3274.9785    14220.927    10.033237 
    3450    1451.3581   -3783.2955   -3702.4387    3578.7142    14223.472     10.09021 
    3460    1449.5054   -3782.9234   -3702.1698    3440.6222    14229.361    10.154558 
    3470    1435.7456    -3781.862    -3701.875    3482.6143    14238.526    10.230472 
    3480    1432.4128   -3781.3393    -3701.538    3783.2385    14250.633     10.31807 
    3490    1467.6226   -3782.9192   -3701.1563    3619.1189    14265.469    10.407018 
    3500    1472.1312   -3782.7638   -3700.7497    3747.6736    14283.584    10.497666 
    3510    1458.1554   -3781.5645    -3700.329    3342.8696    14305.485    10.588083 
    3520    1458.0455   -3781.1033    -3699.874     2721.713    14330.842    10.676641 
    3530    1458.6521   -3780.6277   -3699.3645    2004.6856    14358.869    10.768269 
    3540    1484.3469   -3781.4996    -3698.805    1158.0851    14388.791    10.869655 
    3550    1492.1391   -3781.3224   -3698.1937    548.56595    14419.637    10.987357 
    3560    1462.7615   -3779.0537   -3697.5616    344.39097    14450.144    11.117808 
    3570    1470.8545   -3778.8361   -3696.8931   -46.842625    14479.318    11.248719 
    3580    1523.1903   -3781.0366    -3696.178   -319.73976    14505.831    11.372824 
    3590    1524.1032   -3780.4007   -3695.4912    381.86623    14528.882    11.494666 
    3600    1474.0814   -3776.9909   -3694.8681    1021.2434    14549.745    11.620366 
    3610    1530.5614   -3779.5371   -3694.2678   -37.953023    14569.605    11.746475 
    3620     1517.506   -3778.2222   -3693.6803   -436.76806     14588.06    11.869623 
    3630    1525.6825   -3778.1465    -3693.149   -320.26971    14605.088    11.991384 
    3640    1548.4285   -3778.9236   -3692.6589   -161.75542    14620.932    12.116662 
    3650    1541.8959   -3778.1269   -3692.2262    565.23658    14635.611    12.240549 
    3660    1524.3825   -3776.7777   -3691.8526    1006.9593    14649.675    12.355756 
    3670    1522.1429   -3776.3085   -3691.5082     793.8337    14664.061     12.47037 
    3680    1559.5774   -3778.0602   -3691.1744   -189.04917    14678.537    12.593933 
    3690    1545.2829   -3776.9571   -3690.8677   -676.29646    14691.499    12.721009 
    3700    1515.7379   -3775.0253   -3690.5818   -991.66945    14701.864    12.840773 
    3710    1549.5504   -3776.6339   -3690.3067   -1422.8854    14709.662    12.939923 
    3720    1552.6191   -3776.5323   -3690.0341   -1494.8779    14714.155    13.014313 
    3730    1579.9598   -3777.8164   -3689.7951   -1491.9517    14714.612    13.076442 
    3740    1566.2845    -3776.845   -3689.5855   -1488.2785    14711.606    13.152056 
    3750    1596.0707   -3778.3246   -3689.4057   -2038.9835    14706.846    13.238252 
    3760    1587.4619   -3777.6904   -3689.2511   -2271.9046    14700.996    13.311676 
    3770    1529.6577   -3774.3388   -3689.1199   -1875.9037    14693.885    13.373044 
    3780    1519.3291   -3773.6047   -3688.9611   -2175.7441    14685.408    13.425659 
    3790    1548.4159   -3775.0223   -3688.7584    -2031.177    14674.319    13.462801 
    3800    1587.1214   -3776.9463    -3688.526   -837.47929    14659.892    13.484697 
    3810    1596.1277   -3777.2163   -3688.2942    675.96508    14642.936    13.498017 
    3820    1602.9161   -3777.3587   -3688.0584    1419.7931    14625.252    13.502598 
    3830    1619.8877   -3778.0789   -3687.8331    957.98254    14608.498    13.516836 
    3840    1592.0117   -3776.3126   -3687.6199    814.37684    14593.252    13.562161 
    3850    1651.4135   -3779.4397   -3687.4376   -11.333119    14579.408    13.621502 
    3860    1643.3371    -3778.844   -3687.2919    -3.821821    14565.628    13.681101 
    3870    1602.4951   -3776.4678    -3687.191    328.45596    14551.426     13.73867 
    3880    1563.7516   -3774.1936   -3687.0752    494.31941    14536.893    13.791197 
    3890     1535.427   -3772.4453   -3686.9049    464.92513    14522.175    13.843488 
    3900    1543.2036   -3772.6145   -3686.6409    93.029625    14508.323     13.90445 
    3910    1582.2761   -3774.4351   -3686.2847   -190.02857    14496.393    13.989389 
    3920    1628.9372    -3776.621   -3685.8711    340.38352    14487.301    14.093724 
    3930    1658.3958    -3777.836   -3685.4449    1232.2321    14481.897    14.191676 
    3940    1653.3742   -3777.1545   -3685.0431    2110.4362    14480.721    14.271053 
    3950    1659.3857   -3777.1159   -3684.6697    2572.6814    14483.755    14.328426 
    3960    1668.0079   -3777.2421   -3684.3155    2717.9699    14490.645    14.377166 
    3970    1600.1639   -3773.1066   -3683.9597    2877.8337    14501.382    14.446642 
    3980    1578.6021   -3771.5159   -3683.5702    2360.9552    14515.261    14.542166 
    3990    1592.2655   -3771.7733   -3683.0664    2218.2509    14530.651    14.646949 
    4000    1659.8411   -3774.9325   -3682.4609    2085.1778    14546.482    14.748668 
    4010    1686.1865   -3775.7237   -3681.7843    2031.4826     14562.33    14.862074 
    4020    1711.9578   -3776.4612   -3681.0861     1688.089    14578.054    14.992026 
    4030    1719.0947   -3776.1612   -3680.3885    1394.2928    14593.769     15.13338 
    4040    1729.3357    -3776.035   -3679.6917    1564.0744    14610.024    15.264604 
    4050    1739.3135   -3775.9006   -3679.0015    1875.5636     14627.43    15.365349 
    4060    1760.5191   -3776.3876   -3678.3071    2056.4484    14646.134    15.447824 
    4070    1769.8255   -3776.2125   -3677.6135    1898.4442    14666.019     15.54722 
    4080    1754.7717   -3774.6868   -3676.9265    2024.6857    14687.318    15.688209 
    4090    1768.4692   -3774.7349   -3676.2115    1760.3093    14710.535    15.865819 
    4100    1791.8374   -3775.2601   -3675.4348    1422.0934    14736.129    16.063758 
    4110    1789.0211   -3774.2584     -3674.59    1214.4784    14764.653    16.260938 
    4120    1779.4104   -3772.7619    -3673.629    748.58892    14795.562    16.448448 
    4130    1811.4952   -3773.4146   -3672.4941   -388.35858    14827.408    16.625285 
    4140    1779.2063   -3770.3152   -3671.1936    88.507492    14858.406    16.805932 
    4150    1797.9288   -3769.9644   -3669.7997    469.02942    14888.999    17.007464 
    4160     1831.002   -3770.3301    -3668.323    349.14526    14920.075    17.228238 
    4170    1793.4573   -3766.8052   -3666.8897    356.62157    14951.591    17.458571 
    4180    1769.8985   -3764.1832   -3665.5802    141.14554    14983.822    17.681276 
    4190    1731.9408   -3760.8659   -3664.3776   -298.18395    15016.386    17.891709 
    4200    1746.6304   -3760.5715   -3663.2647   -1626.0719    15047.182    18.105326 
    4210    1761.2391   -3760.3729   -3662.2523   -2574.9424    15073.347    18.307887 
    4220    1728.3882   -3757.6902   -3661.3997   -1983.7955    15093.201     18.47706 
    4230    1719.5411   -3756.4849   -3660.6873   -1128.2959    15107.139    18.608648 
    4240    1765.5516   -3758.4391   -3660.0782   -791.75353    15116.267    18.711846 
    4250    1809.8106   -3760.3949   -3659.5683   -490.72106     15121.52    18.792319 
    4260    1851.0001   -3762.3194   -3659.1981   -915.60544     15124.11    18.871041 
    4270     1819.426   -3760.3382   -3658.9759   -1356.4355    15123.881    18.963064 
    4280    1792.9292   -3758.7476   -3658.8616   -1302.7217        15120    19.059826 
    4290    1844.1637    -3761.571   -3658.8305   -1358.0571    15112.172      19.1419 
    4300    1869.4474   -3763.0404   -3658.8914   -1147.8339    15100.478    19.203412 
    4310      1857.68   -3762.5557   -3659.0623   -1274.1209    15085.787    19.248484 
    4320    1867.2738   -3763.3711   -3659.3432   -1386.4043    15068.337    19.288813 
    4330    1887.3657   -3764.8887   -3659.7415   -1517.7082      15047.6    19.332501 
    4340    1876.7188   -3764.8171    -3660.263   -1523.4777    15022.971    19.375001 
    4350    1870.0792   -3765.0915   -3660.9073   -1827.5721    14994.032    19.434383 
    4360    1848.3397   -3764.6022   -3661.6291   -1744.0672    14960.451    19.499648 
    4370    1880.9204   -3767.2115   -3662.4233   -821.68189    14922.679    19.558831 
    4380    1823.4253   -3764.8251     -3663.24    366.74249    14882.106    19.622182 
    4390    1766.3584   -3762.3906   -3663.9848    681.66935    14841.065    19.678612 
    4400    1754.9046   -3762.4241   -3664.6564   -108.69961    14800.818    19.717192 
    4410    1740.8256   -3762.2442   -3665.2609   -961.88844    14760.453    19.735872 
    4420     1759.588   -3763.8068   -3665.7782   -1221.1949    14719.365    19.731448 
    4430    1743.4762   -3763.3133   -3666.1823   -23.461491    14678.402    19.727926 
    4440    1706.3611   -3761.5226   -3666.4593    1683.2876    14638.957    19.739523 
    4450    1748.4834   -3764.0202   -3666.6102    2317.0011    14602.276    19.754786 
    4460    1826.0266   -3768.4295   -3666.6995    2464.7607    14568.656    19.775141 
    4470    1811.7774   -3767.7046   -3666.7684    3228.7467    14538.453    19.825727 
    4480    1800.5452   -3767.1326   -3666.8222    3285.3618    14512.392     19.91708 
    4490    1776.0227   -3765.7806   -3666.8364    2911.2265    14491.349     20.04857 
    4500    1721.9312   -3762.7357    -3666.805    3356.6414    14475.837    20.193751 
    4510    1636.8962   -3757.8626   -3666.6692    4208.8251    14466.308    20.331133 
    4520    1635.3175   -3757.4816   -3666.3763     4257.603    14463.426    20.459236 
    4530    1689.1058   -3760.0043   -3665.9023     3616.893    14467.021    20.569961 
    4540     1735.969   -3761.9692   -3665.2564    2868.6343    14475.315    20.665246 
    4550    1816.1436   -3765.6649   -3664.4855    2431.1451    14486.012    20.771081 
    4560    1827.6201   -3765.4786   -3663.6598    3262.2285    14497.889    20.902877 
    4570    1837.8837   -3765.2501   -3662.8595    3924.4617    14511.591    21.057291 
    4580    1852.6718   -3765.3055    -3662.091    3511.7323    14528.104    21.214103 
    4590    1872.3406   -3765.6766   -3661.3664    2595.8615    14547.411    21.375253 
    4600    1834.4901   -3762.9137   -3660.7122    2391.4748    14568.316    21.562117 
    4610    1793.9748   -3760.0646   -3660.1202    2166.8963    14590.459    21.761873 
    4620     1791.189   -3759.3448   -3659.5557    2672.5775    14613.982    21.954282 
    4630    1809.3253   -3759.8009   -3659.0014    2825.8248    14639.019    22.151289 
    4640    1829.7446      -3760.4   -3658.4629    2906.4372    14664.742    22.360043 
    4650    1908.5359   -3764.3109   -3657.9843    2191.6848     14690.33    22.571618 
    4660    1888.2138   -3762.7933   -3657.5988    1923.0503    14715.669    22.793294 
    4670    1873.5299   -3761.6858   -3657.3093    1356.5076    14741.024    23.038025 
    4680    1873.3654   -3761.4355   -3657.0682    754.63593    14766.257    23.287949 
    4690    1854.5416   -3760.1789   -3656.8604    440.74077    14791.986    23.532089 
    4700    1872.7698   -3761.0039   -3656.6697    209.11261    14819.057    23.792775 
    4710    1850.6901   -3759.5802   -3656.4762    619.70286    14847.446    24.067026 
    4720    1809.7243   -3757.0926   -3656.2708    940.60021    14877.237    24.312347 
    4730    1812.1914   -3756.9763   -3656.0171     955.5348    14909.224    24.529097 
    4740    1818.2385   -3756.9732   -3655.6771    976.13397    14943.049    24.744842 
    4750    1848.5865   -3758.2178    -3655.231    606.64542     14977.08    24.963243 
    4760    1869.7334    -3758.872    -3654.707     221.3268    15009.292    25.188652 
    4770    1813.4317    -3755.156   -3654.1277     6.449172     15038.25    25.430854 
    4780    1830.4921   -3755.4668    -3653.488   -863.84525    15063.032    25.662286 
    4790    1832.1857     -3754.84   -3652.7668    -748.2289    15083.229    25.862767 
    4800    1831.8577    -3754.045   -3651.9902   -68.052974    15099.247    26.031797 
    4810    1877.7271   -3755.7653    -3651.155    290.51659    15111.884    26.163183 
    4820    1924.2738   -3757.4816   -3650.2782    632.94913    15121.234    26.265919 
    4830    1927.2631   -3756.8038   -3649.4338    748.78663    15127.432    26.371753 
    4840    1911.7888   -3755.1381   -3648.6302     138.4549    15131.797    26.500787 
    4850    1903.2771    -3753.893   -3647.8593   -47.458307    15135.242    26.654875 
    4860    1896.0983    -3752.734   -3647.1002    463.46485    15138.165     26.82824 
    4870    1933.3482   -3754.0579   -3646.3489    776.55648    15141.472    27.023328 
    4880    1942.3057   -3753.8309   -3645.6228    955.20272    15146.181    27.221946 
    4890    1926.3949    -3752.258   -3644.9364    846.20367    15152.516    27.388425 
    4900    1910.1787    -3750.694   -3644.2758    928.32445    15160.094    27.513342 
    4910    1966.1117   -3753.1631   -3643.6288    588.70938    15169.101    27.630722 
    4920    1962.1849   -3752.3177   -3643.0022    1434.4278    15179.115    27.767512 
    4930    1971.6105   -3752.2668   -3642.4262    2155.5631    15190.907    27.945528 
    4940    2062.2252   -3756.7826   -3641.8937    1277.8216    15204.745    28.166248 
    4950    2071.4727   -3756.8582   -3641.4541    1076.6372    15218.907    28.398985 
    4960    2053.6052   -3755.5419   -3641.1333    1015.7423    15232.475    28.625223 
    4970    2044.7422   -3754.8396   -3640.9247    513.91719    15245.442    28.834616 
    4980    2000.0218   -3752.2082   -3640.7847    568.07678    15258.366    29.022069 
    4990    1978.3355    -3750.893   -3640.6777    786.59234    15272.524    29.184322 
    5000    1990.6033   -3751.4671   -3640.5684    891.30514    15289.234    29.312998 
Loop time of 938.452 on 16 procs for 5000 steps with 432 atoms

Performance: 0.460 ns/day, 52.136 hours/ns, 5.328 timesteps/s
96.2% CPU use with 16 MPI tasks x 1 OpenMP threads

MPI task timing breakdown:
Section |  min time  |  avg time  |  max time  |%varavg| %total
---------------------------------------------------------------
Pair    | 495.54     | 726.83     | 933.58     | 385.5 | 77.45
Bond    | 0.00060415 | 0.0017332  | 0.0033553  |   1.7 |  0.00
Neigh   | 0.03834    | 0.042911   | 0.046468   |   1.2 |  0.00
Comm    | 1.8998     | 195.43     | 441.42     | 776.8 | 20.83
Output  | 0.29361    | 0.30077    | 0.40622    |   5.0 |  0.03
Modify  | 0.9642     | 15.778     | 58.532     | 621.1 |  1.68
Other   |            | 0.06538    |            |       |  0.01

Nlocal:        27.0000 ave          32 max          23 min
Histogram: 2 1 2 2 3 1 2 1 1 1
Nghost:        292.875 ave         305 max         270 min
Histogram: 1 0 2 0 3 0 1 1 3 5
Neighs:         0.00000 ave           0 max           0 min
Histogram: 16 0 0 0 0 0 0 0 0 0
FullNghs:      748.750 ave         924 max         581 min
Histogram: 1 2 2 1 2 3 2 0 2 1

Total # of neighbors = 11980
Ave neighs/atom = 27.731481
Ave special neighs/atom = 0.0000000
Neighbor list builds = 500
Dangerous builds = 500
Setting up Verlet run ...
  Unit style    : metal
  Current step  : 5000
  Time step     : 0.001
Per MPI rank memory allocation (min/avg/max) = 8.883 | 8.883 | 8.883 Mbytes
Step Temp PotEng TotEng Press Volume c_msd[4] 
    5000    1990.6033   -3751.4671   -3640.5684    891.30514    15289.234    29.312998 
    5010    2024.1387   -3753.3414   -3640.5743    1186.0108    15289.412    29.336739 
    5020    2011.5863   -3752.6648   -3640.5971    1802.9152    15289.812    29.335707 
    5030    1970.2203   -3750.3938   -3640.6306    2128.2803    15290.428    29.327743 
    5040    1988.5815   -3751.4231    -3640.637    1781.1924     15291.33    29.335085 
    5050    2091.9825   -3757.2009   -3640.6542    637.19085    15292.575    29.371055 
    5060    2117.1218   -3758.7085   -3640.7612    413.28207    15294.182    29.429056 
    5070    2094.0507   -3757.6741   -3641.0122    305.47525    15296.229    29.496601 
    5080    2086.0511   -3757.6211   -3641.4048    79.604075    15298.805    29.575184 
    5090    2060.4998   -3756.7259   -3641.9331    -79.88941    15301.828    29.672273 
    5100    2010.7912   -3754.5912   -3642.5677    78.137869    15305.136    29.777941 
    5110    1998.6507   -3754.6338   -3643.2867    118.11689    15308.724    29.894503 
    5120    1982.7179   -3754.5387   -3644.0792    171.38732     15312.69    30.045758 
    5130    1977.9304   -3755.1325   -3644.9398    190.07607      15317.2    30.230813 
    5140    2009.8812   -3757.8593   -3645.8865    285.09069    15322.263    30.433602 
    5150    1979.8882   -3757.2273   -3646.9255    899.19046    15327.733    30.621291 
    5160     1960.124   -3757.2185   -3648.0178    599.53325    15333.544    30.783218 
    5170    1918.4383   -3756.0012   -3649.1228    462.10848    15339.494    30.938833 
    5180    1886.3943   -3755.2493   -3650.1562    163.36899    15345.343    31.099206 
    5190    1884.2748   -3756.0857   -3651.1107   -420.64631    15351.064    31.250008 
    5200     1830.051    -3753.878   -3651.9238   -569.33353    15356.722    31.376301 
    5210    1831.0454   -3754.5802   -3652.5706   -954.43696    15362.359    31.477738 
    5220    1834.9212   -3755.2645    -3653.039   -1052.4778    15367.811    31.584498 
    5230    1838.9124   -3755.7814   -3653.3336   -1055.1946    15372.861    31.701249 
    5240    1860.1481   -3757.1114   -3653.4805   -996.44232    15377.481    31.806901 
    5250    1907.1444   -3759.7306   -3653.4815   -1126.7361    15381.668    31.895654 
    5260    1956.6394   -3762.3875   -3653.3809   -1381.3087     15385.32     31.98639 
    5270    1967.0696   -3762.8056   -3653.2179   -999.86332    15388.276     32.09285 
    5280    1964.1739   -3762.4365   -3653.0102   -172.40243    15390.627    32.211848 
    5290    1925.9351   -3760.0362   -3652.7402    820.86676    15392.713    32.312937 
    5300     1903.685   -3758.4124   -3652.3559    1933.2081    15394.911    32.381796 
    5310    1963.5197   -3761.2085   -3651.8186    1748.8365    15397.423    32.435086 
    5320     1977.773   -3761.2799   -3651.0959    1305.2037    15400.157    32.483354 
    5330    1966.7013    -3759.766   -3650.1988    756.97052    15403.067    32.516323 
    5340    1948.0189   -3757.5994    -3649.073   -13.234176    15406.177    32.520092 
    5350    1911.4453   -3754.1559   -3647.6671   -708.26266    15409.409    32.511443 
    5360    1906.4475   -3752.1786   -3645.9683   -1200.9758     15412.57    32.527857 
    5370    1893.9956   -3749.5522   -3644.0356   -1541.1093     15415.49     32.59799 
    5380    1923.6316   -3749.1997   -3642.0321   -1914.5675    15417.976     32.72373 
    5390     1903.896    -3746.224   -3640.1558   -1585.7408    15419.771      32.8925 
    5400    1936.5794   -3746.4601   -3638.5711   -1682.1339    15420.527    33.060327 
    5410    1983.9291   -3747.7987   -3637.2718   -1215.6189    15420.101    33.211341 
    5420    2040.5043    -3749.951   -3636.2722     9.649303    15418.788    33.345296 
    5430    2030.5805   -3748.6532   -3635.5273    1585.6291    15417.111    33.478095 
    5440    2043.1625   -3748.7951   -3634.9683     1860.359    15415.496     33.62451 
    5450    2054.2357   -3748.9777    -3634.534    1639.1036     15414.02    33.744378 
    5460    2059.6315   -3748.9583   -3634.2139     1845.271    15412.654    33.822856 
    5470    2045.2537   -3747.9205   -3633.9771    1633.0593     15411.46    33.879522 
    5480    2074.0413   -3749.3638   -3633.8166    1185.4537    15410.484     33.90173 
    5490    2094.7128   -3750.4427   -3633.7439    1166.4466    15409.772     33.90482 
    5500    2057.6526   -3748.4007   -3633.7665    1792.4983    15409.422    33.952562 
    5510    2070.2158   -3749.2073   -3633.8732    2284.5396    15409.542    34.076718 
    5520    2116.4168   -3751.9705   -3634.0626    1922.9393    15410.218    34.284349 
    5530    2120.6284   -3752.5344   -3634.3918    1707.8919    15411.534    34.551332 
    5540    2103.9358   -3752.0891   -3634.8764    1371.8086    15413.697     34.81374 
    5550    2042.3342   -3749.2422   -3635.4614     801.1454    15416.679    35.019783 
    5560    2030.5082   -3749.2314   -3636.1095    373.95066    15420.218     35.16217 
    5570    1996.3569   -3748.0046   -3636.7853     339.1324    15424.242    35.267005 
    5580     1983.916   -3747.9903   -3637.4641   -367.18769    15428.895    35.373376 
    5590    1988.5313    -3748.915   -3638.1317   -1897.8637    15434.041    35.495954 
    5600    1918.9969   -3745.6576   -3638.7481   -2533.4466     15439.21    35.639313 
    5610    1915.2245   -3745.9788   -3639.2795   -3028.3425    15444.091    35.788095 
    5620     1918.826   -3746.6164   -3639.7165   -2499.1186    15448.523    35.961458 
    5630    1953.6735   -3748.9391   -3640.0978   -2324.7314    15452.666    36.152259 
    5640    1987.5209   -3751.1492   -3640.4221   -2738.9483    15456.538    36.321895 
    5650    2016.7618   -3753.1026   -3640.7466   -2990.2046    15460.016    36.465543 
    5660    1996.0473   -3752.2939   -3641.0918   -2896.6294     15463.18    36.602409 
    5670    1943.4977    -3749.706   -3641.4316   -2156.8841     15466.23    36.766533 
    5680    1954.9051   -3750.6456   -3641.7356   -2222.0337    15469.325    36.968542 
    5690    1924.1132   -3749.1762   -3641.9817    -2001.873    15472.521    37.202539 
    5700    1945.4344   -3750.5557   -3642.1734   -2283.7819    15475.819    37.446713 
    5710    1943.0813   -3750.5494   -3642.2982   -2354.4883    15479.204    37.663622 
    5720    1941.2696   -3750.5273    -3642.377   -2134.8559     15482.67    37.815057 
    5730    1950.1177   -3751.0318   -3642.3885   -1846.1401    15486.232    37.918524 
    5740    1987.6794   -3753.0881   -3642.3523   -1429.6823    15489.867    38.016807 
    5750    1985.4693   -3752.9069   -3642.2942   -476.05622    15493.525    38.134154 
    5760    1930.0576     -3749.73   -3642.2043    119.05388    15497.351    38.272211 
    5770    1943.8038    -3750.336   -3642.0445   -412.28843    15501.588    38.432516 
    5780    1994.7649   -3752.9423   -3641.8117   -543.15444     15506.23    38.598002 
    5790    1921.2491   -3748.5432   -3641.5083   -33.261779    15511.167    38.767935 
    5800    1917.1933   -3747.9176   -3641.1086   -440.55876     15516.22    38.941437 
    5810    1915.2162   -3747.2548    -3640.556   -891.10799    15520.848    39.121415 
    5820    1933.9929   -3747.5814   -3639.8364   -1319.2237    15524.658    39.309366 
    5830    1995.2151    -3750.115   -3638.9593   -1712.0792    15527.466    39.491061 
    5840    2051.5091   -3752.2523   -3637.9605   -1989.4647    15529.259    39.639927 
    5850    2077.5748   -3752.6735   -3636.9295   -1625.9261    15530.025    39.759573 
    5860     2069.211   -3751.1975   -3635.9194   -1641.2854    15529.793    39.881692 
    5870    2089.4673   -3751.3686    -3634.962   -1739.2463    15528.557    39.997105 
    5880    2113.9535   -3751.8428   -3634.0721   -1424.1655    15526.344    40.120915 
    5890      2108.71   -3750.7669   -3633.2883   -1103.7612    15523.333    40.251193 
    5900    2095.7197   -3749.3831   -3632.6282   -743.68111    15519.808    40.350549 
    5910    2091.1724   -3748.5718   -3632.0703   -724.49123    15516.041    40.420361 
    5920    2069.9839   -3746.9263   -3631.6052   -1262.2636    15512.208    40.481544 
    5930    2113.1824   -3748.9568   -3631.2291   -2182.3677    15508.318    40.526374 
    5940    2136.5905   -3749.9994   -3630.9676   -2760.2292    15504.149    40.560756 
    5950      2131.26   -3749.5916   -3630.8567   -2241.3325    15499.395    40.621565 
    5960    2131.7551   -3749.6751   -3630.9126   -1875.4594    15493.903    40.741906 
    5970    2097.7129    -3747.983   -3631.1171   -1626.6323     15487.59    40.875303 
    5980    2134.6636   -3750.4074   -3631.4829   -1659.9896    15480.463    40.996583 
    5990    2096.3392   -3748.8118   -3632.0224   -1299.6554    15472.615    41.132413 
    6000    2070.1876   -3748.0695   -3632.7371   -428.38489    15464.338    41.283105 
    6010    2011.9434    -3745.678   -3633.5904    367.99016    15455.903    41.441505 
    6020    1984.7072    -3745.112   -3634.5417    388.69206    15447.514    41.601658 
    6030    2018.9796   -3748.0793   -3635.5997   -454.35908    15439.214    41.754784 
    6040      2003.44   -3748.4016   -3636.7877    -749.7379    15430.822    41.878385 
    6050    1964.0472   -3747.4755   -3638.0562   -438.95087    15422.242    41.941617 
    6060      1925.42   -3746.5789   -3639.3116    102.38011    15413.528     41.93594 
    6070    1957.3667   -3749.5619   -3640.5148     68.81346    15404.744    41.902825 
    6080    2025.2622   -3754.5312   -3641.7016   -122.50291     15395.83     41.89554 
    6090    2048.6629    -3757.016   -3642.8827    134.78835    15386.824    41.939127 
    6100    2042.1854   -3757.8125   -3644.0401    397.72474    15377.979    42.056528 
    6110    1982.4475   -3755.5162   -3645.0718    991.97305    15369.456    42.218376 
    6120    1986.8905   -3756.6568   -3645.9649    874.11842    15361.427    42.382529 
    6130    1915.3495   -3753.3842    -3646.678     865.0249    15353.903    42.548348 
    6140    1885.3365   -3752.2162    -3647.182    390.98098    15346.703    42.682322 
    6150    1860.2987   -3751.1182   -3647.4789   -154.92763    15339.661    42.778407 
    6160    1856.8417    -3751.037   -3647.5903      -101.66    15332.783    42.867922 
    6170    1884.9532   -3752.5628   -3647.5499    228.21403    15326.256    42.994504 
    6180    1878.8477   -3752.0654   -3647.3926    553.89322    15320.276    43.157985 
    6190    1900.3141   -3753.0172   -3647.1485    618.99923    15314.878    43.343251 
    6200    1947.0131   -3755.3075   -3646.8372    524.56857     15309.95    43.539062 
    6210    1948.9258   -3755.0685   -3646.4917      875.921    15305.366    43.725805 
    6220    1992.7294   -3757.1613   -3646.1441     1160.085    15301.114     43.88347 
    6230    1984.0145   -3756.3332   -3645.8015    1255.2322    15297.141    44.029164 
    6240    1944.9184   -3753.8313   -3645.4777      1270.79    15293.311    44.193999 
    6250    1927.8302   -3752.5215   -3645.1199    1239.5312    15289.618    44.375615 
    6260     1920.495   -3751.7086   -3644.7157    749.13985    15286.077    44.557476 
    6270    1876.5941   -3748.7923   -3644.2452    404.59693    15282.706    44.729703 
    6280    1892.0296   -3749.1022   -3643.6951     50.92162    15279.467      44.9048 
    6290    1896.9232   -3748.7159   -3643.0362   -301.73344    15276.173    45.111325 
    6300    1943.1284   -3750.5609   -3642.3071   -1214.0379    15272.644    45.360311 
    6310     2002.108   -3753.0667    -3641.527   -1683.0081    15268.756     45.58619 
    6320    2034.8283   -3754.1309   -3640.7684   -1478.3525    15264.636    45.734564 
    6330    2037.6229   -3753.5936   -3640.0754   -284.08951    15260.629    45.808367 
    6340    2013.9465   -3751.6605   -3639.4613    1173.2963    15257.073    45.860722 
    6350    1981.9057   -3749.3187   -3638.9045    1931.5247    15254.036     45.93814 
    6360    1998.4965   -3749.7136   -3638.3751    1784.0368    15251.359    46.067339 
    6370    2009.5485   -3749.8153   -3637.8611    1960.8299    15248.861    46.254109 
    6380    2049.4514   -3751.5667   -3637.3894    1366.9309    15246.533    46.473493 
    6390    2021.1592   -3749.5738   -3636.9728    1751.8574    15244.388    46.717011 
    6400    2052.2592    -3750.947   -3636.6133    1844.9932    15242.492    46.969898 
    6410    2089.7282   -3752.7438   -3636.3227    1382.0486    15240.726    47.203316 
    6420    2122.4325   -3754.3913   -3636.1482    790.02055    15238.952    47.405447 
    6430    2104.6068    -3753.351    -3636.101    655.39675    15237.199    47.611009 
    6440    2113.6228   -3753.9457   -3636.1934    101.39741    15235.526    47.831259 
    6450    2069.8979   -3751.7229   -3636.4066   -406.15287    15233.846    48.058747 
    6460    2016.6363   -3749.0282   -3636.6791   -429.24301    15232.082    48.276058 
    6470    2080.3907   -3752.9102   -3637.0093   -5.4861526    15230.025    48.431695 
    6480    2087.0806   -3753.7008   -3637.4272    837.14019    15227.469    48.546249 
    6490    2064.0285   -3752.9381   -3637.9488    1568.1303    15224.403    48.670569 
    6500    2045.0363   -3752.4921   -3638.5608    1700.3817    15221.079     48.82664 
    6510    1984.2686   -3749.7512   -3639.2054    1407.6603    15217.881    49.006877 
    6520    1982.1346   -3750.2886   -3639.8617    453.10684    15214.997    49.186933 
    6530    2013.6841   -3752.7257   -3640.5411     -34.5203     15212.21    49.338646 
    6540    2029.9232   -3754.3547   -3641.2654    661.37677    15209.206    49.444094 
    6550    2057.3347   -3756.6956   -3642.0792    980.05977    15205.861      49.5134 
    6560    2063.0857   -3757.9493   -3643.0125    766.41644    15202.205    49.590196 
    6570    2052.7546   -3758.4126   -3644.0513    58.143894    15198.273    49.708759 
    6580    2076.4981   -3760.9102   -3645.2262   -120.34605    15194.059    49.865679 
    6590    2019.7179   -3759.0196   -3646.4988    643.42301    15189.559    50.036047 
    6600    1958.8493   -3756.8784   -3647.7487    1107.8369    15184.943    50.190369 
    6610    1904.4984   -3754.9974   -3648.8956    1017.0259    15180.353    50.297652 
    6620    1836.0763   -3752.1134   -3649.8235    585.19231    15175.658      50.3808 
    6630    1827.0833   -3752.2799    -3650.491    253.75365    15170.727     50.47619 
    6640    1855.0703   -3754.2732   -3650.9251    346.39892    15165.647    50.578285 
    6650    1810.0473    -3751.966   -3651.1263    848.11765    15160.632    50.680729 
    6660    1819.5162   -3752.4984   -3651.1311    601.52924    15155.824    50.786896 
    6670    1853.9534   -3754.2589   -3650.9731   -31.948104    15151.162    50.892186 
    6680    1859.5389   -3754.3049   -3650.7079    302.38401    15146.507    51.011236 
    6690    1857.4889   -3753.8592   -3650.3764    805.97141    15141.876    51.175519 
    6700    1839.4938   -3752.4645   -3649.9843    1122.6662    15137.421    51.379263 
    6710    1871.6612   -3753.8142   -3649.5419    1267.6107    15133.387    51.581658 
    6720    1913.3289   -3755.6442   -3649.0505    746.91814     15129.74    51.748624 
    6730    1915.2607    -3755.262   -3648.5607    391.13279    15126.203    51.873117 
    6740    1915.5124   -3754.7782   -3648.0628   -235.90071    15122.613    51.978441 
    6750    1945.0313    -3755.906   -3647.5461   -1413.2101    15118.925    52.119329 
    6760    1943.1315   -3755.2789   -3647.0249   -1363.2389    15114.926    52.314086 
    6770    1902.2105    -3752.461   -3646.4867     -389.143    15110.477     52.53038 
    6780    1903.1332   -3751.9233   -3645.8976    253.49087    15105.785    52.730304 
    6790     1950.266   -3753.8912   -3645.2397    574.10413    15101.074    52.910025 
    6800    2011.1728    -3756.595   -3644.5503    1055.9245    15096.459     53.07803 
    6810    1937.3724   -3751.8049   -3643.8717    2576.8846    15092.217    53.222051 
    6820    1937.9052   -3751.1554   -3643.1925    2690.8124    15088.807    53.370351 
    6830    1986.4721   -3753.1286   -3642.4601    1596.2698    15086.377    53.546305 
    6840    2037.9864   -3755.2714   -3641.7329    346.91527    15084.735    53.707514 
    6850    2074.7015    -3756.646    -3641.062   -553.60369    15083.574    53.838391 
    6860    2017.4389   -3752.8752   -3640.4814   -12.550659    15082.778    53.972682 
    6870    2012.1706   -3752.0582   -3639.9579    25.962503    15082.561    54.097338 
    6880    2101.5782    -3756.545   -3639.4638   -1128.4948    15082.987    54.217416 
    6890    2094.3328   -3755.7431   -3639.0655   -1551.7602    15083.775    54.363188 
    6900    2054.8207   -3753.2613   -3638.7849   -673.72649    15084.682    54.538713 
    6910    2067.7141   -3753.7715   -3638.5768   -27.316734    15085.673    54.749774 
    6920    2123.0689   -3756.7317   -3638.4531   -471.47064    15086.665    54.975293 
    6930    2089.6136   -3754.8597    -3638.445   -838.85058     15087.38    55.185084 
    6940    2046.0546   -3752.5374   -3638.5494    -1342.642    15087.795    55.394634 
    6950    2046.5118   -3752.7306   -3638.7172     -2316.91    15088.066    55.588718 
    6960    2063.6804   -3753.9173   -3638.9473   -3552.3476    15088.099    55.750587 
    6970     2051.716   -3753.5725   -3639.2691   -3443.5216    15087.541    55.895222 
    6980    1986.7094   -3750.3326   -3639.6508   -2193.7577    15086.162    56.054487 
    6990    1926.7636   -3747.3737   -3640.0315   -1563.1014    15084.021    56.258448 
    7000    1937.8736   -3748.3253   -3640.3641   -2337.1924    15081.244    56.488149 
Loop time of 363.599 on 16 procs for 2000 steps with 432 atoms

Performance: 0.475 ns/day, 50.500 hours/ns, 5.501 timesteps/s
96.6% CPU use with 16 MPI tasks x 1 OpenMP threads

MPI task timing breakdown:
Section |  min time  |  avg time  |  max time  |%varavg| %total
---------------------------------------------------------------
Pair    | 187.42     | 284.85     | 361.21     | 249.8 | 78.34
Bond    | 0.00012279 | 0.00030115 | 0.00056887 |   0.0 |  0.00
Neigh   | 0.011213   | 0.012706   | 0.014426   |   0.7 |  0.00
Comm    | 1.951      | 73.75      | 175.53     | 497.2 | 20.28
Output  | 0.193      | 0.19579    | 0.23695    |   2.4 |  0.05
Modify  | 0.1761     | 4.7772     | 18.292     | 356.7 |  1.31
Other   |            | 0.01156    |            |       |  0.00

Nlocal:        27.0000 ave          31 max          22 min
Histogram: 1 1 1 2 2 1 3 2 1 2
Nghost:        293.062 ave         301 max         285 min
Histogram: 2 2 2 1 1 0 3 1 2 2
Neighs:         0.00000 ave           0 max           0 min
Histogram: 16 0 0 0 0 0 0 0 0 0
FullNghs:      759.375 ave         985 max         571 min
Histogram: 2 1 2 2 1 1 5 1 0 1

Total # of neighbors = 12150
Ave neighs/atom = 28.125000
Ave special neighs/atom = 0.0000000
Neighbor list builds = 200
Dangerous builds = 200
Setting up Verlet run ...
  Unit style    : metal
  Current step  : 7000
  Time step     : 0.001
Per MPI rank memory allocation (min/avg/max) = 8.883 | 8.883 | 8.883 Mbytes
Step Temp PotEng TotEng Press Volume c_msd[4] 
    7000    1937.8736   -3748.3253   -3640.3641   -2337.1924    15081.244    56.488149 
    7010    1937.2423    -3748.253    -3640.327   -2566.5983    15081.055    56.734903 
    7020     1946.067   -3748.6479   -3640.2303   -2503.0644    15080.711    56.969569 
    7030    1949.0539   -3748.6638   -3640.0798   -2211.8288    15080.344    57.193074 
    7040    1946.5487   -3748.3066   -3639.8622   -1049.0255    15079.897    57.434892 
    7050    2018.2903   -3752.0442    -3639.603   -284.75873    15079.402    57.683693 
    7060    2041.1121    -3753.048   -3639.3354   -328.57444    15078.983    57.880797 
    7070    2062.9001   -3754.0427   -3639.1162   -782.26492    15078.628    57.995085 
    7080    2080.5077   -3754.8703   -3638.9629   -523.33389    15078.259    58.057028 
    7090    2083.3503   -3754.9779   -3638.9121    121.77181    15077.824     58.09189 
    7100    2037.4777    -3752.474   -3638.9638    580.30987    15077.202    58.106006 
    7110     2042.563   -3752.8983   -3639.1048   -233.14051    15076.389    58.114414 
    7120    2034.9876   -3752.7044    -3639.333   -854.37771    15075.353    58.148725 
    7130     2008.284    -3751.552   -3639.6683   -840.25581    15073.976    58.214499 
    7140    1974.7656   -3750.1049   -3640.0885   -38.559691    15072.242    58.311815 
    7150    2004.8388   -3752.2943   -3640.6024    526.62426      15070.4     58.43082 
    7160    2026.8141    -3754.167   -3641.2509    567.32754    15068.749    58.519662 
    7170    2014.3864   -3754.3209   -3642.0972    330.09677    15067.298    58.542195 
    7180    1909.3178   -3749.4491   -3643.0789    704.55756    15065.828    58.546678 
    7190    1906.1685   -3750.3176   -3644.1229    933.36256    15064.262    58.592225 
    7200    1927.3318   -3752.5973   -3645.2235    1348.5723    15062.546    58.703366 
    7210    1893.8857   -3751.8586   -3646.3481    1577.0592    15060.693    58.853124 
    7220    1847.0052   -3750.3271   -3647.4283     1381.882    15058.798     58.99498 
    7230     1831.094    -3750.383   -3648.3707    1157.4393    15057.045    59.103819 
    7240    1903.6456   -3755.2705   -3649.2163     266.8863     15055.54    59.166674 
    7250    1943.2554   -3758.2725   -3650.0116   -521.10967    15054.175    59.174995 
    7260    1935.5623    -3758.606   -3650.7737   -791.69394    15052.841    59.165018 
    7270    1902.1603   -3757.4621   -3651.4906   -703.72913     15051.44    59.206266 
    7280    1884.5999   -3757.1103   -3652.1172   -373.19667    15049.798    59.326071 
    7290    1909.4924   -3759.0523   -3652.6723   -117.51901    15047.792    59.506302 
    7300    1887.0241   -3758.2766   -3653.1484    404.07159    15045.419    59.673958 
    7310    1908.4636   -3759.8849   -3653.5623    380.98887    15042.729    59.780357 
    7320    1882.6352   -3758.7929   -3653.9092    627.91729    15039.736    59.845353 
    7330    1882.6674   -3759.0754   -3654.1899    538.62721    15036.516    59.911381 
    7340    1892.6159   -3759.8405   -3654.4007    641.33174     15033.09    60.001647 
    7350    1882.2905    -3759.418   -3654.5535    744.24381    15029.579    60.115971 
    7360    1856.4981   -3758.0673   -3654.6397    648.51063    15026.102    60.243414 
    7370    1839.5951   -3757.1276   -3654.6417    377.60323    15022.658    60.354531 
    7380    1826.5083   -3756.3004   -3654.5436    49.040239    15019.099    60.436492 
    7390    1788.0397   -3753.9385   -3654.3248    92.389664    15015.147    60.488358 
    7400    1780.4337   -3753.1355   -3653.9456   -159.96652    15010.717    60.507252 
    7410    1846.4808   -3756.2492   -3653.3797   -559.24596    15005.772    60.516456 
    7420    1901.7783   -3758.5974   -3652.6472   -932.85418    15000.304     60.53467 
    7430    1937.0463   -3759.7158   -3651.8007   -1129.0381    14994.397    60.551359 
    7440    1939.9996    -3758.952   -3650.8724   -977.92557    14988.049    60.563935 
    7450    1932.6157   -3757.5576   -3649.8894   -850.35204    14981.337    60.555771 
    7460    1961.3285   -3758.1146   -3648.8468   -1028.0781    14974.414    60.525313 
    7470    1998.3429   -3759.0911   -3647.7612   -1457.3438    14967.318    60.491208 
    7480    2024.6711   -3759.5054   -3646.7087   -1898.1741    14959.952    60.508166 
    7490     2007.043   -3757.5529   -3645.7383   -1856.5773    14952.222    60.576216 
    7500    1981.1301   -3755.2366   -3644.8656   -1859.1652     14944.13    60.696266 
    7510    1933.1456   -3751.7541   -3644.0563   -1015.1383    14935.818    60.852479 
    7520    1913.7992   -3749.8971   -3643.2772    172.21065    14927.489    60.990153 
    7530    1945.1405   -3750.8548   -3642.4888    919.23291     14919.34    61.104231 
    7540    1989.1804   -3752.5404   -3641.7209    1613.3729    14911.711    61.234824 
    7550    2044.1452   -3754.9237   -3641.0421    1738.3156    14904.861    61.389264 
    7560    2007.1606   -3752.3323   -3640.5111    2313.5257    14898.599    61.566582 
    7570    1989.4358   -3750.9648   -3640.1311    2704.2996    14892.689    61.756455 
    7580    2014.4791   -3752.0836   -3639.8547     2698.994    14887.115    61.918282 
    7590    2042.9998   -3753.5271   -3639.7093    2584.9759    14881.887    62.046201 
    7600    2041.2905   -3753.4549   -3639.7323    2440.4133    14877.075    62.148026 
    7610    2007.7058   -3751.7656   -3639.9141    2849.5014    14872.788    62.233782 
    7620    2003.7179     -3751.88   -3640.2507    2796.2875    14869.121    62.302996 
    7630    1991.8375   -3751.7207   -3640.7532    1846.2707    14866.121     62.35649 
    7640    1933.7386   -3749.1423   -3641.4115    1355.0662    14863.622    62.438957 
    7650     1910.998    -3748.681   -3642.2171      1181.69    14861.456    62.553428 
    7660    1903.7651    -3749.251   -3643.1901    989.20943    14859.557    62.690208 
    7670    1913.3778   -3751.0103   -3644.4139    383.97044    14857.914    62.850645 
    7680    1898.0006    -3751.711   -3645.9713   -347.15647    14856.466     63.02218 
    7690    1840.4624     -3750.36   -3647.8257   -358.97438    14855.186     63.18839 
    7700    1799.0574   -3750.0932   -3649.8657   -604.47193    14854.029     63.33346 
    7710    1725.5748   -3747.9197    -3651.786     130.4607    14852.826    63.453696 
    7720    1799.8235   -3753.6919   -3653.4217   -114.10045     14851.51    63.522203 
    7730    1840.1805   -3757.2694   -3654.7509    319.81847    14850.023    63.546951 
    7740     1812.469   -3756.6985   -3655.7238    1798.1871      14848.6    63.567752 
    7750    1844.0005    -3759.123   -3656.3917    1946.6349    14847.571    63.608621 
    7760    1873.2852    -3761.238   -3656.8751    1529.7565    14846.853    63.674958 
    7770    1833.4015   -3759.3603   -3657.2194    1654.3838    14846.335    63.761018 
    7780    1826.6016    -3759.232     -3657.47    1490.7024    14846.034    63.850241 
    7790    1798.2664   -3757.8104    -3657.627     1405.638    14845.855    63.921005 
    7800    1805.3236   -3758.2868   -3657.7102    880.12535    14845.596    63.955283 
    7810    1814.0547   -3758.7769   -3657.7139    595.96364     14845.02    63.973942 
    7820    1843.8259   -3760.4038   -3657.6822    494.72008    14843.958    64.024257 
    7830    1805.9174   -3758.2212   -3657.6115    1268.4183    14842.419    64.158647 
    7840    1781.6813   -3756.7498   -3657.4903    1823.2566    14840.746     64.35055 
    7850    1788.7889   -3756.9544    -3657.299    1744.2162    14839.295    64.556232 
    7860    1763.5182   -3755.2778   -3657.0303    1919.5238    14838.146    64.764833 
    7870    1730.8374   -3753.0999    -3656.673    1670.1531    14837.141    64.968724 
    7880    1728.0073   -3752.4577   -3656.1885    708.48418    14836.046    65.160984 
    7890    1749.4494   -3753.0382   -3655.5744   -47.150471    14834.678    65.325934 
    7900    1756.6237   -3752.7041   -3654.8406   -6.0374794    14832.953    65.461298 
    7910    1835.4898   -3756.2726   -3654.0154   -376.97563    14830.926    65.577276 
    7920    1921.6952   -3760.2078    -3653.148   -598.35851    14828.609    65.692164 
    7930    1900.1102   -3758.2152   -3652.3579   -10.296314    14825.985    65.809215 
    7940    1914.2561   -3758.3208   -3651.6754   -284.72059    14823.053    65.908177 
    7950    1936.8742   -3758.9843   -3651.0788   -293.30703    14819.709    65.988986 
    7960    1925.6312    -3757.891   -3650.6119    544.59468     14815.91      66.0839 
    7970    1921.5309   -3757.3134   -3650.2627    1551.4222    14811.663    66.179634 
    7980    1912.2808    -3756.556   -3650.0206    2528.5522    14806.996    66.249038 
    7990    1893.3482   -3755.3421   -3649.8615    3453.6867    14802.201    66.357493 
    8000    1897.2476   -3755.4685   -3649.7707    3523.7224    14797.561    66.508478 
    8010    1920.2915   -3756.7437   -3649.7621    3730.9174    14793.088     66.67325 
    8020    1994.6254   -3760.9962   -3649.8733    3287.3697    14788.879    66.842987 
    8030    1996.1618   -3761.3959   -3650.1875    3175.3481    14785.028    66.980292 
    8040    1970.0315   -3760.4594   -3650.7067    3246.0696    14781.707    67.103524 
    8050    1982.1365    -3761.876   -3651.4489    2363.2938    14779.087    67.253248 
    8060    1931.4651   -3759.9988   -3652.3947    1691.8421    14776.949     67.42747 
    8070    1883.7616   -3758.4162   -3653.4697    1941.9906    14775.097    67.617642 
    8080    1823.2226    -3756.153   -3654.5792     3060.343    14773.538    67.827323 
    8090    1813.6424   -3756.6925   -3655.6524    3114.2485    14772.392    68.035939 
    8100    1823.0706    -3758.231   -3656.6657    2889.7075    14771.691    68.240836 
    8110    1802.9387   -3758.0458    -3657.602    2742.6378    14771.459    68.442129 
    8120    1810.6173   -3759.3089   -3658.4374    2254.7356    14771.591    68.637235 
    8130    1798.3086   -3759.3709   -3659.1851    2502.4228     14771.85    68.829157 
    8140    1772.3339   -3758.5498   -3659.8111    2759.3856    14772.269    69.019079 
    8150    1801.4103   -3760.7056    -3660.347    1917.2966    14772.942    69.171514 
    8160    1754.9789   -3758.5632   -3660.7914    1668.8405    14773.775     69.29319 
    8170    1735.6742   -3757.8206   -3661.1242     2182.837    14774.749    69.401012 
    8180    1809.1393   -3762.1671   -3661.3779    2355.2183    14775.943    69.504076 
    8190    1815.6874   -3762.7527   -3661.5987      2730.27    14777.485    69.629088 
    8200    1858.1307   -3765.3554   -3661.8368    2945.5664    14779.611    69.774533 
    8210    1892.1239   -3767.5384   -3662.1261    3399.9498     14782.46    69.907395 
    8220    1868.5373   -3766.5883     -3662.49    3882.7945    14786.089    70.026866 
    8230      1882.47   -3767.8042   -3662.9297    3594.1005    14790.483    70.138402 
    8240    1851.6368   -3766.5764   -3663.4196    2947.6203    14795.514    70.243843 
    8250    1832.2381   -3766.0281    -3663.952    1940.8297    14800.996    70.368941 
    8260    1807.1115   -3765.1526   -3664.4764    1229.1888    14806.674    70.563694 
    8270    1780.5453   -3764.1743   -3664.9782    1256.7682    14812.346    70.803859 
    8280    1776.0278    -3764.388   -3665.4435    1593.4896    14817.925    71.065719 
    8290    1790.0146   -3765.6063   -3665.8826    1612.2834    14823.461    71.358505 
    8300    1808.6771   -3767.0651   -3666.3017    1265.0132    14829.056    71.653719 
    8310    1836.4183   -3769.0531   -3666.7441    463.91791     14834.68    71.918529 
    8320     1778.396   -3766.2735   -3667.1971    473.42883    14840.091    72.185871 
    8330    1735.5129    -3764.304   -3667.6166    575.19114    14845.071    72.449373 
    8340    1767.4238   -3766.4477   -3667.9826    236.79842    14849.568    72.705718 
    8350      1820.72   -3769.7668   -3668.3325   -30.394756     14853.63    73.002154 
    8360    1852.5752   -3771.9444   -3668.7353   -343.01819    14857.273    73.344702 
    8370    1756.9529   -3767.0631   -3669.1813   -254.09599    14860.471    73.705144 
    8380    1695.8818   -3764.0582   -3669.5788   -355.44585    14863.275    74.047325 
    8390    1727.3611   -3766.1292   -3669.8959   -158.81194    14865.791    74.332234 
    8400    1762.9235   -3768.3862   -3670.1717    159.19836    14868.321    74.566987 
    8410    1760.8538   -3768.5335   -3670.4344    461.70957    14871.155    74.759067 
    8420    1729.3227   -3767.0229   -3670.6804    936.94563    14874.394    74.920077 
    8430    1732.1211   -3767.3866   -3670.8882    975.78306    14878.128    75.079807 
    8440    1760.6434   -3769.1645    -3671.077     903.6197    14882.486      75.2543 
    8450    1728.1216   -3767.5234   -3671.2478    1237.3686    14887.465    75.429411 
    8460    1737.1543   -3768.1759    -3671.397    1680.6994    14892.999    75.604609 
    8470    1777.7072   -3770.5711    -3671.533    1872.2004    14898.914    75.793214 
    8480    1763.3444   -3769.9208   -3671.6829    1598.2492    14905.076    76.008666 
    8490    1752.7853   -3769.5132   -3671.8636    1011.9891    14911.572      76.2432 
    8500     1706.497   -3767.1035   -3672.0326     399.0932    14918.441    76.480019 
    8510    1671.7445   -3765.2943   -3672.1595    188.15015    14925.485    76.743258 
    8520    1642.5668   -3763.7083    -3672.199     298.5762    14932.376    77.024747 
    8530    1635.3359   -3763.2494    -3672.143    691.57403    14938.983    77.281228 
    8540    1635.3078   -3763.0763   -3671.9715    1233.3074    14945.435    77.495098 
    8550    1660.2098   -3764.1682    -3671.676    1246.6547    14951.934    77.693368 
    8560    1677.8556    -3764.714   -3671.2387    863.31635    14958.488    77.893542 
[...]
   24890    322.68262    -3866.931   -3848.9539   -884.51011    14365.726    107.73838 
   24900    318.50642    -3866.776   -3849.0317   -586.99387     14363.99    107.72546 
   24910    320.94082   -3867.0089    -3849.129   -377.21643    14361.631    107.71616 
   24920    322.17781   -3867.1955   -3849.2466   -229.79517    14358.663    107.71029 
   24930    318.30942   -3867.1152   -3849.3818   -43.116467    14355.099    107.70139 
   24940    315.13333    -3867.084   -3849.5276    221.85425    14351.178    107.68858 
   24950    308.03695   -3866.8358   -3849.6747    535.27323    14347.331    107.67356 
   24960    296.62092   -3866.3354   -3849.8103    722.29366    14343.973    107.65322 
   24970    291.88381   -3866.1848   -3849.9236    740.33662    14341.271    107.62176 
   24980    298.52134   -3866.6481   -3850.0171    588.14678    14339.157    107.58377 
   24990    302.21867   -3866.9343   -3850.0974    323.77939    14337.426    107.54969 
   25000    305.83894   -3867.2082   -3850.1696    128.13462    14335.862    107.52459 
   25010    316.56383   -3867.8773   -3850.2412   -40.324856    14334.434     107.5115 
   25020    326.29351   -3868.5018   -3850.3237   -133.91968    14333.291    107.51452 
   25030    326.49296   -3868.6144   -3850.4251   -108.39198    14332.579    107.53409 
   25040    319.91755   -3868.3632   -3850.5403   -34.178178    14332.274    107.55655 
   25050    316.58292   -3868.2987   -3850.6615   -128.08248    14332.193    107.56232 
   25060    311.38477   -3868.1304   -3850.7828   -319.69833    14332.022    107.55272 
   25070    303.03987   -3867.7794   -3850.8967   -474.80177    14331.584    107.54006 
   25080    297.15386   -3867.5514   -3850.9967   -617.53848    14330.833    107.52579 
   25090    295.89348   -3867.5651   -3851.0805   -767.34372    14329.737    107.50536 
   25100    298.51195   -3867.7814    -3851.151    -894.4342    14328.313    107.48102 
   25110     300.6835   -3867.9643   -3851.2129   -937.59306    14326.636    107.46109 
   25120    300.57502   -3868.0149   -3851.2695   -852.28544    14324.655    107.44755 
   25130    300.91569   -3868.0869   -3851.3225   -723.05617    14322.271    107.42994 
   25140    302.42662   -3868.2216   -3851.3731    -561.2208    14319.457    107.39804 
   25150    305.28248   -3868.4317    -3851.424   -340.72236    14316.232    107.35431 
   25160    309.77868   -3868.7366   -3851.4785   -260.89673     14312.68    107.31505 
   25170    315.21982   -3869.1052   -3851.5439   -380.05698    14308.899    107.29074 
   25180    308.45329   -3868.8063    -3851.622   -668.25878    14304.928    107.27327 
   25190    298.55248   -3868.3385   -3851.7058   -921.13651    14300.548    107.25494 
   25200    293.93816   -3868.1608   -3851.7851   -887.18239    14295.462    107.24661 
   25210    299.09744   -3868.5207   -3851.8576   -698.76859    14289.631    107.26352 
   25220    305.72226   -3868.9621     -3851.93   -495.64715    14283.132    107.30197 
   25230    301.89654   -3868.8248   -3852.0058   -341.88724    14276.019    107.34241 
   25240    295.53166   -3868.5449   -3852.0805     -235.897    14268.498    107.37004 
   25250    292.39513   -3868.4366    -3852.147   -111.38565    14260.928    107.38426 
   25260    296.77902   -3868.7393   -3852.2054   -114.66678    14253.678    107.39178 
   25270     299.7473   -3868.9601   -3852.2608    -130.1816    14246.916    107.40125 
   25280    298.08159    -3868.922   -3852.3155   -103.30881    14240.686    107.41814 
   25290    297.55336   -3868.9467   -3852.3697   -102.66712    14235.047    107.44001 
   25300    293.80799   -3868.7893   -3852.4209   -53.246109    14230.064    107.45546 
   25310    292.98758   -3868.7905   -3852.4678    84.790344     14225.86    107.45372 
   25320    288.18288   -3868.5633   -3852.5083    140.67094    14222.546    107.43512 
   25330    279.65127   -3868.1167    -3852.537    182.86885    14220.065    107.41475 
   25340    278.48516   -3868.0617   -3852.5469     174.0373    14218.289    107.41488 
   25350    289.28875   -3868.6527   -3852.5361    81.468751    14217.009    107.44627 
   25360    304.95094   -3869.5012   -3852.5121   -41.197874    14215.812    107.50251 
   25370    307.51896   -3869.6202    -3852.488   -91.950762    14214.258    107.56846 
   25380    292.47497   -3868.7607   -3852.4666     11.37902    14212.155    107.62567 
   25390    283.78768   -3868.2448   -3852.4347    128.19028    14209.677    107.65436 
   25400    291.74749   -3868.6326    -3852.379    156.87324    14207.228    107.64451 
   25410    291.72493   -3868.5482   -3852.2959    180.51936    14205.352    107.60896 
   25420    283.09694   -3867.9557   -3852.1841    253.35012    14204.564    107.57271 
   25430    289.79578   -3868.1781   -3852.0332    272.29765    14205.063    107.54708 
   25440    303.86223   -3868.7645    -3851.836    219.78392    14206.739    107.52466 
   25450    317.74229   -3869.3101   -3851.6083    241.94648    14209.439    107.49844 
   25460    326.52781   -3869.5686   -3851.3773     248.5222     14213.12    107.46718 
   25470    326.44534   -3869.3567   -3851.1701    286.77939     14217.71     107.4348 
   25480    324.32356   -3869.0681   -3850.9997    458.46457    14223.227    107.41709 
   25490    319.29786    -3868.656   -3850.8675    604.18756     14230.11    107.43694 
   25500    316.84656   -3868.4204   -3850.7685    636.82823    14238.868    107.50672 
   25510    316.95997   -3868.3539   -3850.6957    512.88039    14249.564    107.61838 
   25520    305.92621   -3867.6869   -3850.6434    426.44567    14261.939    107.74356 
   25530    299.73882   -3867.3013   -3850.6025    295.05172     14275.81    107.84814 
   25540     311.3228   -3867.9082    -3850.564    23.686046    14291.008    107.91791 
   25550    322.10344    -3868.477   -3850.5322   -363.44336    14307.127    107.96667 
   25560    324.33808   -3868.5894   -3850.5202   -677.97002    14323.543    108.02016 
   25570    316.03484    -3868.139   -3850.5324   -735.75802    14339.739    108.09951 
   25580    307.90528   -3867.7161   -3850.5624   -707.52698    14355.508    108.20478 
   25590    307.12841   -3867.7124   -3850.6019   -777.14771    14370.697    108.31504 
   25600    307.08355   -3867.7569    -3850.649   -971.59346    14385.059    108.40584 
   25610    305.30295   -3867.7132   -3850.7044   -1144.5102    14398.279     108.4727 
   25620    305.35038   -3867.7808   -3850.7694   -1323.5886     14410.12    108.53923 
   25630    306.68501   -3867.9319   -3850.8461   -1522.7685    14420.499    108.63122 
   25640    307.66107   -3868.0765   -3850.9364   -1712.4194    14429.305    108.75375 
   25650    308.93034   -3868.2542   -3851.0433   -1901.4192     14436.23    108.88874 
   25660     304.8865    -3868.155   -3851.1694   -2000.4995    14440.876    109.00238 
   25670    293.04143   -3867.6326   -3851.3069   -1890.3667     14443.05    109.06096 
   25680    287.83897   -3867.4799    -3851.444   -1662.1399    14442.946    109.04825 
   25690    290.98247    -3867.788   -3851.5771   -1451.3204    14440.917    108.97127 
   25700    293.82414   -3868.0768   -3851.7076    -1285.391     14437.29    108.85634 
   25710    292.11925   -3868.1101   -3851.8358   -1160.5327    14432.283    108.73797 
   25720    288.46186    -3868.028   -3851.9575    -1036.276    14426.078    108.64781 
   25730    286.96984   -3868.0553   -3852.0679    -1041.238    14418.972    108.60117 
   25740    290.65767   -3868.3601   -3852.1673   -1094.5748    14411.241    108.58839 
   25750     297.6143   -3868.8427   -3852.2623   -1030.4265    14402.845    108.58881 
   25760    301.92282     -3869.18   -3852.3596   -911.72087    14393.605    108.58366 
   25770    302.50105   -3869.3152   -3852.4625   -878.20602     14383.53    108.56382 
   25780    297.10541   -3869.1232   -3852.5711   -844.36687    14372.723     108.5322 
   25790    283.35213   -3868.4608    -3852.675   -744.24733    14361.311     108.4901 
   25800    278.17352   -3868.2607   -3852.7634   -697.99943    14349.465    108.43875 
   25810     284.0456   -3868.6617   -3852.8372   -594.63855    14337.188    108.38654 
   25820    285.80007   -3868.8236   -3852.9013   -435.62839     14324.27    108.33895 
   25830    283.80112   -3868.7685   -3852.9576   -312.57834    14310.469    108.29013 
   25840    284.33084   -3868.8428   -3853.0024   -241.42786    14295.735    108.22809 
   25850    291.37201   -3869.2687    -3853.036   -320.28453    14280.323    108.14983 
   25860    293.09716   -3869.3913   -3853.0625   -267.84615    14264.577    108.06617 
   25870    289.63144   -3869.2159   -3853.0802   -59.145534    14249.069    107.98948 
   25880    295.67918   -3869.5633   -3853.0907    9.6744998    14234.541    107.92714 
   25890    297.58283   -3869.6797    -3853.101    25.341554    14221.413    107.88442 
   25900    293.90194   -3869.4894   -3853.1158   -26.845519    14209.715    107.86244 
   25910    293.85717   -3869.5042   -3853.1331   -74.154215    14199.233    107.85327 
   25920    294.57535   -3869.5604   -3853.1493    2.6130448    14189.792    107.84477 
   25930    297.08467   -3869.7131   -3853.1622    89.381675     14181.58    107.83437 
   25940    302.36909   -3870.0217   -3853.1764   -62.119624    14174.918    107.83133 
   25950      302.969   -3870.0755   -3853.1967    -293.4924    14169.698    107.84361 
   25960    302.75033   -3870.0916    -3853.225   -408.85886    14165.608    107.86682 
   25970    297.83084    -3869.851   -3853.2585   -363.73648    14162.401    107.89157 
   25980    292.38323   -3869.5808   -3853.2918   -279.24543    14159.868    107.90971 
   25990    290.05552   -3869.4789   -3853.3196   -240.03751    14157.852    107.91729 
   26000    283.32509    -3869.121   -3853.3367   -214.54807    14156.343    107.92033 
   26010    276.51138   -3868.7408   -3853.3361   -233.88054    14155.555    107.93078 
   26020    279.55288   -3868.8875   -3853.3133   -282.47859    14155.759    107.95661 
   26030    282.03371   -3868.9797   -3853.2673   -290.52267    14157.103    107.99727 
   26040    286.28921   -3869.1501   -3853.2006   -348.97782    14159.716    108.04429 
   26050    297.56488    -3869.694   -3853.1163   -538.10382    14163.597    108.09019 
   26060    305.55516   -3870.0451   -3853.0222   -704.72479    14168.445    108.13215 
   26070     308.7107   -3870.1278   -3852.9292   -844.64224    14173.921    108.16726 
   26080    308.74794   -3870.0438   -3852.8431   -937.10725    14179.669    108.19678 
   26090    298.64675   -3869.4016   -3852.7637   -926.20867    14185.368    108.22956 
   26100    293.76055   -3869.0505   -3852.6848   -939.80084    14190.831    108.27399 
   26110    296.85152    -3869.137   -3852.5991    -953.5047    14196.015    108.32955 
   26120    296.10578   -3869.0034    -3852.507   -953.15825    14200.894    108.39095 
   26130     290.4847   -3868.5929   -3852.4096   -852.77058    14205.412    108.45395 
   26140    289.21235   -3868.4161   -3852.3038   -757.83105    14209.643    108.51203 
   26150    289.43844   -3868.3108   -3852.1859   -709.01057    14213.731    108.56122 
   26160    291.78332   -3868.3118   -3852.0562   -626.85723    14217.694    108.60763 
   26170     303.2223   -3868.8107   -3851.9178   -559.80959    14221.495    108.65865 
   26180     314.1493   -3869.2826   -3851.7809   -505.49831    14225.203    108.71887 
   26190    313.23345   -3869.1114   -3851.6608   -352.69934    14229.053    108.79239 
   26200     304.4082   -3868.5199    -3851.561   -258.97068    14233.307    108.87474 
   26210    302.37992   -3868.3185   -3851.4725   -377.51799    14238.046    108.94895 
   26220    306.86505   -3868.4852   -3851.3894   -466.76391    14243.146    108.99786 
   26230    308.66962   -3868.5117   -3851.3153   -502.85476    14248.652    109.01332 
   26240    301.66429   -3868.0584   -3851.2523   -546.76424     14254.72    108.99721 
   26250    287.82246   -3867.2273   -3851.1924   -541.17096    14261.279     108.9647 
   26260     286.3528   -3867.0756   -3851.1226   -525.63392    14268.019    108.94395 
   26270    295.53857   -3867.5027    -3851.038   -501.54843    14274.599    108.95212 
   26280    297.56656   -3867.5222   -3850.9445   -498.58471    14280.845    108.98198 
   26290    296.23204   -3867.3512   -3850.8477   -483.20456    14286.518    109.01474 
   26300    298.72396   -3867.3896   -3850.7473   -414.60593    14291.352    109.02963 
   26310    307.99891   -3867.8044   -3850.6454   -438.54814    14295.255    109.01423 
   26320    319.98155   -3868.3778   -3850.5513   -505.80271    14298.316    108.97319 
   26330    319.89523   -3868.2998   -3850.4781   -539.81705    14300.728    108.92235 
   26340    304.71758   -3867.4041   -3850.4279   -619.15679    14302.801    108.87987 
   26350    296.14931   -3866.8851   -3850.3862   -661.83421    14304.846    108.85452 
   26360    307.74283   -3867.4876   -3850.3429   -744.61793    14307.013    108.84199 
   26370    318.74294   -3868.0623   -3850.3047     -843.453    14309.096    108.83131 
   26380    314.26139    -3867.792   -3850.2841   -922.35183    14310.744    108.81488 
   26390    307.39369   -3867.4054   -3850.2801   -965.49686    14311.638    108.79407 
   26400    308.10007   -3867.4513   -3850.2867   -984.80959    14311.541    108.77779 
   26410    309.46933    -3867.545   -3850.3041   -958.33199    14310.416    108.77591 
   26420    304.64126   -3867.3055   -3850.3336   -930.19499    14308.553    108.79124 
   26430    296.70949   -3866.9007   -3850.3707   -887.99857    14306.348    108.81462 
   26440    298.65722   -3867.0495    -3850.411   -889.47417    14303.955    108.82666 
   26450    304.71699   -3867.4361     -3850.46   -941.08142    14301.173    108.81139 
   26460    296.59678   -3867.0445   -3850.5208   -938.47224    14297.722    108.76192 
   26470    298.90262   -3867.2455   -3850.5933   -982.83657    14293.479    108.68017 
   26480    313.82551   -3868.1708   -3850.6872   -1100.7135    14288.375    108.58285 
   26490    318.56835   -3868.5696   -3850.8218   -1081.5462    14282.379    108.49607 
   26500     314.8217   -3868.5449   -3851.0058   -1060.9092     14275.69    108.44129 
   26510    312.03127   -3868.6206    -3851.237   -1075.7221    14268.445    108.42434 
   26520    308.87208   -3868.7109   -3851.5033   -852.73447    14260.548    108.43599 
   26530    309.48664   -3869.0282   -3851.7863   -538.90267    14251.936    108.46072 
   26540    311.71396   -3869.4359     -3852.07   -337.16387    14242.575    108.48491 
   26550     305.8531   -3869.3734    -3852.334   -269.39522    14232.427    108.49809 
   26560    296.77286   -3869.0906   -3852.5571    -241.2893    14221.606    108.48905 
   26570    291.42154    -3868.967   -3852.7316   -242.73517    14210.444    108.45237 
   26580    292.98889   -3869.1872   -3852.8644   -229.40414     14199.41    108.40011 
   26590    291.98623   -3869.2334   -3852.9665   -133.30001     14188.87    108.35747 
   26600    289.26919   -3869.1587   -3853.0432    45.573686    14179.026    108.33986 
   26610    294.62544   -3869.5149    -3853.101    231.50604    14170.011    108.33728 
   26620    299.08365   -3869.8105   -3853.1482    348.39694    14161.971    108.32662 
   26630    292.98327   -3869.5108   -3853.1883    337.17866    14155.096    108.29579 
   26640    287.68802   -3869.2458   -3853.2184    336.96668     14149.59    108.24995 
   26650    286.96229   -3869.2224   -3853.2354    334.46946    14145.759    108.20352 
   26660    284.22202   -3869.0735   -3853.2392    381.00914    14143.876    108.17074 
   26670     283.7684   -3869.0379   -3853.2288    293.18422    14144.144    108.16282 
   26680     291.8777   -3869.4663   -3853.2055    48.303496    14146.633    108.18152 
   26690    296.77199   -3869.7074   -3853.1739   -159.30419    14151.267     108.2127 
   26700    291.71262   -3869.3905   -3853.1388   -223.88117    14157.919    108.23523 
   26710    283.22316   -3868.8744   -3853.0957   -267.61188    14166.452    108.23719 
   26720     284.2543    -3868.873   -3853.0368   -413.56843    14176.714    108.22551 
   26730     291.1989   -3869.1805   -3852.9575   -628.51066    14188.462    108.21733 
   26740    294.55621   -3869.2708   -3852.8607   -770.31975    14201.194    108.22812 
   26750     294.4982   -3869.1574   -3852.7505   -780.86986    14214.311    108.26924 
   26760    302.70977   -3869.4945   -3852.6302   -673.17772    14227.285    108.33828 
   26770    312.38286   -3869.9116   -3852.5084   -424.77568    14239.879    108.41186 
   26780    315.79981    -3869.994   -3852.4005   -264.88544    14252.356    108.46028 
   26790     314.6008   -3869.8393   -3852.3126   -249.09502    14265.091    108.46911 
   26800    310.02624   -3869.5153   -3852.2434   -397.83668    14278.312    108.44701 
   26810    305.50747   -3869.2053   -3852.1851   -682.69251    14291.977    108.41709 
   26820    303.70539   -3869.0506   -3852.1309   -960.07718    14305.746    108.40568 
   26830    302.12335   -3868.9094   -3852.0778   -1078.2803    14319.241    108.43196 
   26840    296.71554   -3868.5546   -3852.0242   -1115.2754    14332.142     108.5021 
   26850    289.18873   -3868.0765   -3851.9655   -1163.2504     14344.26    108.60671 
   26860    290.74226   -3868.0919   -3851.8943   -1343.2706    14355.477    108.72031 
   26870    299.68015   -3868.5037   -3851.8082   -1595.9571    14365.526    108.81014 
   26880    307.54205   -3868.8488   -3851.7152   -1703.4891    14374.117    108.86296 
   26890    305.25455   -3868.6314   -3851.6253   -1604.9549    14381.189    108.89359 
   26900    302.70965   -3868.4043     -3851.54   -1414.2756    14386.966    108.91665 
   26910    307.92849   -3868.6105   -3851.4555   -1330.3359    14391.876    108.93183 
   26920    313.08963   -3868.8159   -3851.3733   -1238.5518    14396.261      108.932 
   26930      315.639   -3868.8843   -3851.2997   -1066.6282    14400.332    108.91666 
   26940    316.74807    -3868.885   -3851.2387   -900.16849    14404.288    108.89863 
   26950    314.19495   -3868.6957   -3851.1916   -934.36064    14408.189     108.8978 
   26960    305.55746   -3868.1777   -3851.1548   -1004.2658    14411.668    108.92412 
   26970    302.47305   -3867.9723   -3851.1212   -1022.6249    14414.134    108.96649 
   26980    311.90524   -3868.4649   -3851.0883   -1128.1298     14415.21      109.005 
   26990    316.78203   -3868.7123    -3851.064    -1177.855    14414.752    109.02787 
   27000    307.05831   -3868.1603   -3851.0537   -997.54309    14412.946    109.03086 
Loop time of 1868.55 on 16 procs for 10000 steps with 432 atoms

Performance: 0.462 ns/day, 51.904 hours/ns, 5.352 timesteps/s
96.4% CPU use with 16 MPI tasks x 1 OpenMP threads

MPI task timing breakdown:
Section |  min time  |  avg time  |  max time  |%varavg| %total
---------------------------------------------------------------
Pair    | 770.21     | 1483.2     | 1851.4     | 684.9 | 79.38
Bond    | 0.00069523 | 0.0014234  | 0.0027769  |   1.6 |  0.00
Neigh   | 0.043416   | 0.055996   | 0.070948   |   2.4 |  0.00
Comm    | 15.398     | 370.07     | 1050.1     |1354.4 | 19.81
Output  | 0.5146     | 0.52798    | 0.72668    |   7.1 |  0.03
Modify  | 1.0899     | 14.672     | 47.66      | 502.3 |  0.79
Other   |            | 0.04218    |            |       |  0.00

Nlocal:        27.0000 ave          33 max          19 min
Histogram: 1 0 0 3 0 6 0 4 1 1
Nghost:        297.438 ave         314 max         279 min
Histogram: 1 1 2 0 2 4 2 2 0 2
Neighs:         0.00000 ave           0 max           0 min
Histogram: 16 0 0 0 0 0 0 0 0 0
FullNghs:      793.500 ave         981 max         491 min
Histogram: 1 0 1 0 3 2 2 3 2 2

Total # of neighbors = 12696
Ave neighs/atom = 29.388889
Ave special neighs/atom = 0.0000000
Neighbor list builds = 1000
Dangerous builds = 1000
System init for write_data ...
Total wall time: 1:24:15
