LAMMPS (29 Sep 2021 - Update 3)
OMP_NUM_THREADS environment is not set. Defaulting to 1 thread. (src/comm.cpp:98)
  using 1 OpenMP thread(s) per MPI task
Reading data file ...
  orthogonal box = (0.0000000 0.0000000 0.0000000) to (17.411830 17.411830 34.823661)
  1 by 2 by 4 MPI processor grid
  reading atoms ...
  432 atoms
Finding 1-2 1-3 1-4 neighbors ...
  special bond factors lj:    0        0        0       
  special bond factors coul:  0        0        0       
     0 = max # of 1-2 neighbors
     0 = max # of 1-3 neighbors
     0 = max # of 1-4 neighbors
     1 = max # of special neighbors
  special bonds CPU = 0.001 seconds
  read_data CPU = 0.006 seconds
Neighbor list info ...
  update every 1 steps, delay 10 steps, check yes
  max neighbors/atom: 2000, page size: 100000
  master list distance cutoff = 6.22
  ghost atom cutoff = 6.22
  binsize = 3.11, bins = 6 6 12
  1 neighbor lists, perpetual/occasional/extra = 1 0 0
  (1) pair quip, perpetual
      attributes: full, newton on
      pair build: full/bin
      stencil: full/bin/3d
      bin: standard
Setting up Verlet run ...
  Unit style    : metal
  Current step  : 0
  Time step     : 0.001
Per MPI rank memory allocation (min/avg/max) = 8.920 | 8.920 | 8.920 Mbytes
Step Temp PotEng TotEng Press Volume c_msd[4] 
       0          300   -3812.7657   -3796.0524    14895.163    10557.553            0 
      10    327.62369   -3814.4361   -3796.1838    14645.744    10571.427 0.0038135445 
      20    400.84268    -3818.925   -3796.5936    13441.016    10612.606  0.017164417 
      30    503.70973   -3825.4115   -3797.3493    11411.039    10679.129  0.044557626 
      40    597.98539   -3831.9265    -3798.612     9083.944    10767.322  0.090006099 
      50    651.24301   -3836.6803   -3800.3989     6977.498    10872.346   0.15304789 
      60    655.36222   -3838.7499   -3802.2389    5386.5222    10989.021   0.22794412 
      70    617.66933   -3838.2458   -3803.8348     3767.435    11112.274   0.30719364 
      80    527.64331    -3834.598   -3805.2024    2399.6586    11236.819   0.38402433 
      90    454.46715   -3831.6317   -3806.3129    838.59072    11357.774   0.45092572 
     100    439.40981    -3831.659    -3807.179   -1044.7869    11470.466   0.50412427 
     110      461.709   -3833.6594   -3807.9371   -2821.3094    11570.425   0.54623642 
     120    476.64222   -3835.2702   -3808.7159   -3673.9175    11654.462   0.58214888 
     130    497.21486   -3837.2996   -3809.5992    -3560.483    11722.023   0.61434498 
     140    513.09591   -3839.2173   -3810.6321   -2851.7203    11774.961   0.64516687 
     150    510.95344   -3840.2393   -3811.7735   -2044.1392    11816.402   0.67550544 
     160    505.48764   -3841.1132   -3812.9519   -1613.0061    11849.345   0.70353348 
     170    500.23453   -3842.0194   -3814.1508   -1318.1621    11875.774   0.72940105 
     180    478.01148   -3841.9576   -3815.3271   -919.89642    11897.157   0.75598339 
     190     464.6728   -3842.3365   -3816.4491   -598.88949    11914.873   0.78418659 
     200    459.61194   -3843.1448   -3817.5393   -329.47277    11930.043   0.81506681 
     210    455.57434   -3843.9963   -3818.6157     75.51082    11943.591    0.8491908 
     220    450.23544   -3844.7607   -3819.6776    461.84005    11956.584   0.88607975 
     230     446.7066   -3845.6144   -3820.7278    697.71552    11969.977   0.92501715 
     240     431.6535   -3845.7968   -3821.7489    1024.7687    11984.444   0.96529448 
     250    429.08778   -3846.6444   -3822.7394    1072.5245    12000.646    1.0047312 
     260    418.29286   -3847.0146   -3823.7111    1060.6037    12018.757    1.0415048 
     270    405.77738   -3847.2477   -3824.6414    977.01786    12038.731    1.0734797 
     280    396.90619   -3847.6406   -3825.5285    757.62015    12060.333    1.1002345 
     290     392.7677   -3848.2575    -3826.376    454.73477    12083.046    1.1232333 
     300    400.01663   -3849.4994    -3827.214    184.16722    12106.157    1.1446725 
     310    394.86199   -3850.0504   -3828.0522    163.06824    12129.087    1.1668459 
     320    386.64917   -3850.4075   -3828.8669    228.21425    12151.779    1.1902023 
     330    386.84026   -3851.2167   -3829.6654    156.80794    12174.373    1.2144462 
     340    382.71052    -3851.774   -3830.4528   -62.036599    12196.715    1.2393379 
     350     381.1214   -3852.4562   -3831.2235   -383.36248    12218.299    1.2632789 
     360    379.82199   -3853.1445   -3831.9842   -816.88312    12238.369    1.2852535 
     370    378.17261   -3853.8024   -3832.7339   -1285.7627    12255.899    1.3042624 
     380     374.1788     -3854.32   -3833.4741   -1385.9294    12269.873    1.3193047 
     390    364.78144   -3854.5207   -3834.1983   -1106.5555    12280.122     1.331511 
     400    356.34365   -3854.7473    -3834.895   -794.70884    12287.368    1.3436987 
     410    351.87332   -3855.1672    -3835.564   -708.95536    12292.413    1.3590732 
     420    349.24555   -3855.6669     -3836.21   -835.24432    12295.525    1.3795515 
     430    347.55167   -3856.1993   -3836.8368    -1065.762    12296.464    1.4042052 
     440    347.63725   -3856.8212    -3837.454   -1180.0985    12294.751    1.4295308 
     450    339.31652   -3856.9598   -3838.0561    -931.5094    12290.214    1.4517133 
     460    328.55739   -3856.9305   -3838.6262   -386.24498    12283.535    1.4673476 
     470    329.61867   -3857.5271   -3839.1636   -66.255397        12276     1.472671 
     480    333.28474   -3858.2605   -3839.6929    84.155984    12268.444    1.4700117 
     490    335.41958   -3858.8999   -3840.2133    156.62553    12261.236    1.4664633 
     500    340.48911   -3859.7118   -3840.7427    233.67506    12254.594    1.4658292 
     510    327.38526   -3859.5053   -3841.2663     149.5003    12248.656    1.4685205 
     520    310.70179   -3859.0635   -3841.7539    57.342615    12243.219    1.4736934 
     530    300.14394   -3858.9151   -3842.1937    109.81275    12238.072    1.4815262 
     540     299.2601   -3859.2671    -3842.595    206.41894    12233.314    1.4912892 
     550    303.44989   -3859.8814   -3842.9759    324.41625    12229.176     1.501375 
     560    302.95753   -3860.2184   -3843.3403     512.0634    12225.951    1.5117699 
     570    302.44095   -3860.5384   -3843.6891    634.19835    12224.044    1.5239391 
     580    298.62871   -3860.6597   -3844.0227    776.10411    12223.765    1.5384368 
     590    291.05406   -3860.5507   -3844.3357    963.89629    12225.432    1.5545358 
     600    288.02186   -3860.6697   -3844.6237    1113.5912    12229.451    1.5713421 
     610    287.85371   -3860.9277    -3844.891    1112.7339    12236.124    1.5872934 
     620    284.25697   -3860.9733    -3845.137    990.02315    12245.421    1.6005863 
     630    280.58725   -3860.9894   -3845.3576    844.49998    12257.021    1.6110942 
     640    285.37446   -3861.4529   -3845.5544    564.81175      12270.5     1.621475 
     650    294.08267   -3862.1182   -3845.7345    164.89782    12285.138    1.6352546 
     660    301.04746   -3862.6816   -3845.9099   -164.64571    12299.952    1.6542502 
     670    295.27249   -3862.5329   -3846.0829   -213.20458    12314.173    1.6780177 
     680    288.32558   -3862.3084   -3846.2454   -178.87225    12327.634    1.7029908 
     690      287.521   -3862.4115   -3846.3934   -215.00998    12340.398    1.7243856 
     700    286.38035   -3862.4792   -3846.5246   -257.42794    12352.405    1.7396646 
     710    291.88108   -3862.9042   -3846.6432   -494.35301    12363.511    1.7502529 
     720     287.5595   -3862.7726   -3846.7523   -620.31015    12373.215    1.7600633 
     730    275.07248   -3862.1698   -3846.8452   -479.65153    12381.251    1.7712759 
     740    276.99762   -3862.3483   -3846.9164   -229.24192    12387.957    1.7836812 
     750    281.29685   -3862.6364    -3846.965    119.34456    12394.003    1.7969809 
     760     286.2701   -3862.9427   -3846.9943    338.78366    12400.232     1.811577 
     770    289.84835   -3863.1547   -3847.0069    380.51417     12407.19    1.8273966 
     780    289.04977   -3863.1097   -3847.0064    342.82847    12414.997    1.8428242 
     790    288.38425   -3863.0613   -3846.9951    330.22667    12423.565    1.8554253 
     800    293.10677   -3863.3046   -3846.9753    433.39171    12432.888    1.8639196 
     810     297.1549   -3863.5043   -3846.9494    455.52996     12443.16    1.8702227 
     820    288.30225   -3862.9788   -3846.9172    439.94282    12454.449    1.8773791 
     830     278.9866   -3862.4136   -3846.8709    262.27254    12466.664     1.886566 
     840    280.59051   -3862.4318   -3846.7998   -68.269314    12479.344    1.8980042 
     850    290.38049   -3862.8818   -3846.7044   -367.41871    12491.669    1.9112497 
     860    289.75275   -3862.7366   -3846.5942   -486.81569    12502.898    1.9246258 
     870    285.96259   -3862.4084   -3846.4771   -518.34017    12512.726     1.934778 
     880     292.1824   -3862.6288    -3846.351   -642.23907    12521.049     1.940098 
     890    297.54137   -3862.7926   -3846.2162   -705.78683    12527.604     1.942398 
     900    298.85041    -3862.728   -3846.0787   -599.95365    12532.265    1.9439219 
     910    297.75161   -3862.5268   -3845.9387   -414.64389    12535.307    1.9472068 
     920     294.5301    -3862.205   -3845.7963   -227.78909    12537.227    1.9541701 
     930    290.33819   -3861.8263   -3845.6512   -104.38395     12538.52    1.9636649 
     940    291.59283    -3861.745      -3845.5   -163.54283    12539.483    1.9728826 
     950     300.3894   -3862.0748   -3845.3398    -409.9131    12539.971    1.9802194 
     960    306.32877   -3862.2403   -3845.1743    -609.8523    12539.398     1.986894 
     970    316.99792   -3862.6747   -3845.0144   -751.77498    12537.244    1.9949692 
     980    325.56068   -3863.0063   -3844.8689   -702.34164    12533.207    2.0053682 
     990    326.73733    -3862.952   -3844.7491   -302.64195    12527.506    2.0167969 
    1000    327.20208   -3862.8877   -3844.6589    19.518115    12521.077    2.0273105 
    1010    338.61707   -3863.4681   -3844.6034    236.34502    12514.784    2.0367197 
    1020    347.73083    -3863.968   -3844.5955    419.61165    12509.192    2.0467628 
    1030     341.4435   -3863.6682    -3844.646    777.66734    12504.808    2.0583877 
    1040    332.97081   -3863.2984   -3844.7482    1232.1215    12502.527    2.0703367 
    1050    328.96368   -3863.2197   -3844.8928    1561.8122    12503.449    2.0827199 
    1060    326.85217   -3863.2862   -3845.0769    1810.3819     12508.41    2.0982535 
    1070    318.54902   -3863.0391   -3845.2923    1826.0535    12517.961    2.1172514 
    1080     315.7247    -3863.118   -3845.5286    1509.8263    12532.076    2.1358662 
    1090    313.77018   -3863.2579   -3845.7774    1072.2021    12549.952    2.1528753 
    1100     310.4142   -3863.3243   -3846.0307    603.45701    12570.426    2.1708936 
    1110    305.15111   -3863.2826   -3846.2823    171.54362    12592.266    2.1906694 
    1120    296.60946   -3863.0465    -3846.522   -254.17288    12614.319    2.2088793 
    1130    296.45271   -3863.2594   -3846.7436   -756.13684    12635.428    2.2227232 
    1140    300.87949   -3863.7151   -3846.9528   -1168.4345    12654.294    2.2339039 
    1150     302.8008   -3864.0272   -3847.1579   -1222.9699    12669.913    2.2443018 
    1160     305.2493   -3864.3732   -3847.3674   -1280.9731    12682.055    2.2532152 
    1170     300.1376   -3864.2997   -3847.5787   -1345.7665    12690.613    2.2606834 
    1180    298.02701   -3864.3893   -3847.7859   -1288.2065    12695.496    2.2677278 
    1190    304.34183   -3864.9493    -3847.994   -1316.1085    12696.839    2.2747037 
    1200     306.7326   -3865.2987   -3848.2103   -1326.9584    12694.645    2.2816388 
    1210    297.88547   -3865.0255     -3848.43   -1194.5183     12688.96     2.288256 
    1220    290.03487   -3864.7962   -3848.6381   -856.60694    12680.215    2.2930341 
    1230    288.62928   -3864.9084   -3848.8286   -457.30557    12669.317     2.294953 
    1240    288.31975   -3865.0601   -3848.9975   -154.43612    12657.339    2.2945453 
    1250      298.967   -3865.8111   -3849.1553   -121.85366    12645.045    2.2923541 
    1260    304.31679   -3866.2689   -3849.3151   -184.82171    12632.584    2.2893561 
    1270    295.03505   -3865.9119   -3849.4751   -166.00463    12619.841    2.2859264 
    1280    288.49218   -3865.6984   -3849.6262   -104.72997    12606.851    2.2813592 
    1290     284.9565   -3865.6388   -3849.7636    24.872825    12593.779    2.2770088 
    1300    277.97446   -3865.3642   -3849.8779    255.10612    12580.982    2.2763848 
    1310    283.03407   -3865.7362    -3849.968    324.71751    12569.008    2.2809674 
    1320    295.33967   -3866.4984   -3850.0447    271.36231    12558.032    2.2901916 
    1330    293.09095   -3866.4424   -3850.1139    417.16601    12547.965    2.3027259 
    1340    285.52659   -3866.0779   -3850.1709    765.56575    12539.171    2.3158539 
    1350    288.60489   -3866.2928   -3850.2143    988.30648    12532.469    2.3259145 
    1360    290.96039   -3866.4577    -3850.248    1123.6858    12528.424     2.330129 
    1370    291.40532   -3866.5089   -3850.2744    1140.9539    12527.353    2.3289495 
    1380    292.62045   -3866.5963   -3850.2941     916.6282    12529.224    2.3247308 
    1390    286.44523   -3866.2613   -3850.3031    537.56287    12533.438     2.320021 
    1400    285.23133    -3866.185   -3850.2944    103.72237    12538.993    2.3175914 
    1410     294.8268   -3866.6932    -3850.268   -302.52533    12544.761    2.3190231 
    1420    293.15679   -3866.5626   -3850.2305   -429.94991    12549.751    2.3244628 
    1430    292.25095   -3866.4697   -3850.1881   -402.37076    12553.592    2.3321685 
    1440    294.68835   -3866.5565   -3850.1391   -492.15871      12556.3    2.3396573 
    1450    292.60651   -3866.3862   -3850.0848   -587.84649    12557.691    2.3448542 
    1460    291.25198   -3866.2518   -3850.0258   -625.50427    12557.532    2.3470965 
    1470    284.54111   -3865.8104   -3849.9583   -436.93403      12555.8    2.3469524 
    1480    278.04636   -3865.3663    -3849.876   -311.70635    12552.922    2.3445926 
    1490    284.03118   -3865.5967    -3849.773   -267.91558    12549.245    2.3396169 
    1500    292.30328   -3865.9349   -3849.6504   -20.985265    12544.961    2.3322018 
    1510    297.39579    -3866.085   -3849.5168     551.7821    12540.762    2.3237057 
    1520    308.92744   -3866.5923   -3849.3816    870.98214    12537.987    2.3174863 
    1530    311.86466   -3866.6281   -3849.2538     977.5111    12537.481    2.3176269 
    1540    298.07896    -3865.744   -3849.1377    1078.0065    12539.549    2.3247821 
    1550    297.94842   -3865.6259   -3849.0269    996.13054    12544.388     2.335743 
    1560    301.41658   -3865.7054   -3848.9131    739.33598    12551.776     2.349506 
    1570    303.84327   -3865.7294    -3848.802    455.02339    12561.045    2.3666179 
    1580    304.53575   -3865.6617   -3848.6957    261.83059    12571.464    2.3856298 
    1590    309.50644   -3865.8395   -3848.5965    116.39079    12582.505    2.4033456 
    1600    314.96724    -3866.053   -3848.5058    51.309496    12593.784    2.4184472 
    1610    314.06395   -3865.9259    -3848.429    141.09633    12605.141    2.4313929 
    1620    309.88956   -3865.6288   -3848.3645    331.93325    12616.807    2.4423597 
    1630    314.02056   -3865.8038   -3848.3094     364.9588    12629.216    2.4516421 
    1640     315.8538   -3865.8623   -3848.2658    207.28089    12642.447    2.4607627 
    1650    314.18481   -3865.7431   -3848.2395   -16.176168    12656.112    2.4707907 
    1660    311.11571   -3865.5618   -3848.2291   -291.81368    12669.605    2.4814705 
    1670    309.03706   -3865.4475   -3848.2307   -535.43848    12682.211    2.4913478 
    1680    307.01891   -3865.3472   -3848.2428    -533.7975    12693.335    2.4998781 
    1690    300.69058    -3865.015   -3848.2631   -200.95912    12703.017    2.5093199 
    1700    301.43492   -3865.0817   -3848.2884   -26.789194    12712.031    2.5225127 
    1710    305.11011   -3865.3152   -3848.3172   -21.638608    12720.865    2.5395792 
    1720    307.66296   -3865.4934   -3848.3532   -121.18559    12729.543    2.5577001 
    1730    305.80992    -3865.434    -3848.397   -378.06262    12737.788    2.5739597 
    1740    300.81907   -3865.2049   -3848.4459    -610.3803    12744.966    2.5872329 
    1750    291.47764   -3864.7323   -3848.4938   -721.95361    12750.482    2.5976526 
    1760    288.80345   -3864.6235   -3848.5339   -917.25584    12753.982    2.6044741 
    1770    295.78025   -3865.0458   -3848.5675   -1091.6637    12754.976    2.6069536 
    1780    297.42354   -3865.1676   -3848.5978   -1067.7391    12753.059    2.6058513 
    1790    299.44335   -3865.3092   -3848.6269   -1079.7957    12748.244    2.6028971 
    1800    300.20847   -3865.3813   -3848.6564   -1084.7997    12740.542    2.5994948 
    1810    295.29245   -3865.1352   -3848.6841    -837.0052    12730.033    2.5947024 
    1820    294.21909   -3865.0959   -3848.7046   -406.48252    12717.396    2.5870959 
    1830    295.64877   -3865.1851   -3848.7142   -14.236954     12703.76    2.5783945 
    1840    303.10748   -3865.6044    -3848.718    118.38965    12690.133    2.5710631 
    1850    309.64429   -3865.9773   -3848.7267    84.986029      12676.9    2.5658314 
    1860    307.75836   -3865.8936   -3848.7481     63.53055    12664.002    2.5615582 
    1870    298.81496   -3865.4255   -3848.7782    335.85022    12651.457    2.5562915 
    1880    291.98103   -3865.0709   -3848.8043    725.89892    12639.927    2.5500709 
    1890    296.76583   -3865.3546   -3848.8214    1024.2175    12630.394    2.5456423 
    1900    303.22668   -3865.7294   -3848.8363    1173.5653    12623.614    2.5457112 
    1910    302.67245   -3865.7188   -3848.8566    1169.3042    12619.982    2.5490086 
    1920    300.70607   -3865.6348   -3848.8822    871.27345    12619.417    2.5521391 
    1930    300.47453   -3865.6487   -3848.9089    578.90973    12621.171    2.5544672 
    1940    299.30642   -3865.6089   -3848.9342    471.55122    12624.496    2.5582934 
    1950    300.48955   -3865.6991   -3848.9585    592.48817     12629.12    2.5651898 
    1960    302.21483   -3865.8208    -3848.984    741.03003    12635.309    2.5748877 
    1970    301.43522   -3865.8064   -3849.0131    752.57032    12643.434    2.5862446 
    1980    303.53886   -3865.9553   -3849.0448     463.6779    12653.468    2.5980144 
    1990    305.30582   -3866.0878   -3849.0788    136.98356    12664.707    2.6089553 
    2000    303.10577   -3866.0025   -3849.1161   -59.122264    12676.309    2.6190923 
    2010    307.95641   -3866.3168   -3849.1602   -113.27173    12687.749    2.6289582 
    2020    312.27273   -3866.6125   -3849.2154    -63.06949    12698.873    2.6391467 
    2030     317.0725   -3866.9528   -3849.2884   -1.4921033    12709.797    2.6492267 
    2040     317.2495   -3867.0572   -3849.3829    10.104936    12720.683    2.6584928 
    2050     310.8676   -3866.8139   -3849.4951   -139.41147    12731.519     2.666516 
    2060     308.2012    -3866.787   -3849.6167   -295.27413    12741.944    2.6743325 
    2070    310.95227   -3867.0709   -3849.7474   -407.69347    12751.549    2.6839632 
    2080    303.85966   -3866.8143   -3849.8859   -313.52183    12760.091    2.6961512 
    2090    289.33867   -3866.1381   -3850.0187   -226.22562    12767.763    2.7111773 
    2100    287.71502   -3866.1651   -3850.1362   -287.00519    12774.766     2.728538 
    2110    292.49218   -3866.5357   -3850.2406   -307.05147     12780.99    2.7459064 
    2120    294.46312   -3866.7427   -3850.3379   -246.87241    12786.379    2.7599169 
    2130    292.69907   -3866.7372   -3850.4306   -209.02231    12791.073    2.7690209 
    2140     286.6092   -3866.4818   -3850.5145   -89.177695    12795.227    2.7749331 
    2150    285.14505   -3866.4706   -3850.5848   -143.71925     12799.08    2.7798917 
    2160    285.41735   -3866.5399    -3850.639   -217.86698    12802.543    2.7859053 
    2170    285.56552   -3866.5868   -3850.6777   -283.34511    12805.403    2.7948068 
    2180    287.09086   -3866.6964   -3850.7023   -238.91095     12807.52    2.8063216 
    2190    288.47301   -3866.7854   -3850.7142   -178.60801    12808.978    2.8174546 
    2200    288.75169   -3866.8001   -3850.7134   -8.6365724    12809.975    2.8257529 
    2210    292.12787    -3866.976   -3850.7012    94.860769    12810.931    2.8313099 
    2220     289.6774   -3866.8178   -3850.6796    158.56521    12812.156    2.8355185 
    2230    289.24096    -3866.762   -3850.6481     241.7629    12813.842    2.8392176 
    2240    302.43542   -3867.4572   -3850.6082    215.03122    12816.168    2.8437311 
    2250    305.52993   -3867.5887   -3850.5673    238.08393     12819.11    2.8512728 
    2260    299.58473   -3867.2211   -3850.5309    342.62411    12822.744    2.8624938 
    2270    299.91014   -3867.2037   -3850.4953    413.86651     12827.32    2.8764989 
    2280    296.60046     -3866.98   -3850.4561     407.8577    12833.021    2.8917663 
    2290    292.01692    -3866.681   -3850.4124    392.00967    12839.857    2.9062689 
    2300    289.95945   -3866.5153   -3850.3613    318.78451    12847.779     2.919318 
    2310    290.07339   -3866.4604   -3850.3001    246.30948    12856.597    2.9309585 
    2320    288.96518   -3866.3268   -3850.2283    240.28279    12866.124    2.9417626 
    2330    285.41034   -3866.0461   -3850.1456    248.81647    12876.351    2.9515437 
    2340    290.96714   -3866.2605   -3850.0504    90.512295    12887.252    2.9588375 
    2350    298.33035   -3866.5627   -3849.9423   -215.23395    12898.405    2.9636978 
    2360    301.38449   -3866.6184    -3849.828   -594.83506    12908.976    2.9669348 
    2370    299.13463   -3866.3775   -3849.7124   -838.72814     12917.95    2.9680982 
    2380    301.34279   -3866.3858   -3849.5977   -965.06688    12924.629    2.9657516 
    2390    307.26885   -3866.6018   -3849.4835   -1014.6101    12928.655    2.9604185 
    2400    306.80361   -3866.4673    -3849.375   -944.63409    12929.885    2.9553364 
    2410    308.97576   -3866.4904    -3849.277   -780.51525    12928.493    2.9537146 
    2420    319.65742   -3867.0018   -3849.1933   -518.70425     12924.95    2.9572712 
    2430    323.71204   -3867.1667   -3849.1323   -185.13156    12919.975    2.9650839 
    2440    318.15024   -3866.8238   -3849.0993    -38.85825    12914.428    2.9727867 
    2450     313.9736    -3866.579   -3849.0872   -151.73105    12908.714    2.9748209 
    2460    314.13502   -3866.5892   -3849.0884   -397.08474    12902.549    2.9675263 
    2470    311.89372   -3866.4793   -3849.1033   -503.68173    12895.314    2.9514102 
    2480    308.81326   -3866.3375   -3849.1332   -428.45887    12886.726    2.9309397 
    2490    309.57885   -3866.4242   -3849.1772    -370.4833    12876.944    2.9110693 
    2500    309.79864   -3866.4933   -3849.2341   -298.80983    12866.144    2.8948176 
    2510    305.72625   -3866.3337   -3849.3013   -65.065359    12854.574    2.8838824 
    2520    302.36804   -3866.2157   -3849.3704    221.00313    12842.866    2.8787768 
    2530    308.56596   -3866.6312   -3849.4407    371.11909    12831.743    2.8789907 
    2540    305.77447   -3866.5459   -3849.5109    621.27395    12821.702    2.8838243 
    2550    303.03816   -3866.4649   -3849.5823    759.67926    12813.358     2.891409 
    2560    308.35299   -3866.8408   -3849.6621    744.59069     12807.09    2.8987971 
    2570    311.36696    -3867.104   -3849.7574    639.34468     12802.88    2.9040002 
    2580    306.33038   -3866.9351   -3849.8691    486.80503    12800.416     2.905973 
    2590    295.84315   -3866.4674   -3849.9857    408.25949    12799.306    2.9045832 
    2600    289.79379    -3866.241   -3850.0962    319.59006    12799.308    2.9017633 
    2610      285.046   -3866.0725   -3850.1923    318.23706    12800.214    2.9003653 
    2620    282.63199   -3866.0163   -3850.2706    341.47568    12801.995    2.9014751 
    2630    278.36773   -3865.8346   -3850.3265    396.46847    12804.732    2.9050652 
    2640    281.05465   -3866.0178   -3850.3599    461.83129    12808.565    2.9116015 
    2650    283.80095    -3866.185   -3850.3741    548.56385    12813.673    2.9230395 
    2660    280.55493   -3866.0012   -3850.3712    559.16775     12820.27    2.9393047 
    2670    284.73221   -3866.2149   -3850.3521    419.23575     12828.37    2.9560871 
    2680    296.46627   -3866.8358   -3850.3193    235.39525     12837.61     2.969178 
    2690    306.00031    -3867.331   -3850.2834    140.36467    12847.516    2.9768344 
    2700    304.24688   -3867.2051   -3850.2552    162.26574    12857.833    2.9798912 
    2710    298.28557   -3866.8533   -3850.2355    281.97658     12868.64    2.9806472 
    2720    295.98778   -3866.7078    -3850.218    336.95837    12880.233    2.9822808 
    2730    294.64752   -3866.6121    -3850.197    315.75423    12892.744    2.9865076 
    2740    294.66525   -3866.5855   -3850.1693    335.56534     12906.16    2.9921737 
    2750    297.32176   -3866.6991    -3850.135    262.82606    12920.496    2.9976888 
    2760    292.08311    -3866.365   -3850.0927    209.98857    12935.574     3.002577 
    2770    288.48234   -3866.1102   -3850.0386    125.93556    12951.212    3.0054351 
    2780    292.26237   -3866.2495   -3849.9672    41.178272    12967.175    3.0048575 
    2790    302.79409   -3866.7493   -3849.8803   -162.88143    12983.197    3.0025784 
    2800    313.80285   -3867.2702   -3849.7879   -522.14838    12998.684     3.003484 
    2810    318.52383   -3867.4495   -3849.7041   -906.14154    13012.647    3.0113472 
    2820    319.51728   -3867.4428   -3849.6421   -1180.1323     13024.02    3.0252348 
    2830    318.52768    -3867.353   -3849.6075   -1312.4681    13032.026     3.040737 
    2840    317.53412   -3867.2887   -3849.5985   -1274.5056    13036.311    3.0527975 
    2850    316.43289   -3867.2404   -3849.6116   -1131.5195    13036.983    3.0583983 
    2860    306.45496   -3866.7105   -3849.6376    -875.4083    13034.492    3.0576747 
    2870    299.21301   -3866.3353   -3849.6658   -738.03079    13029.529     3.052057 
    2880    298.60292   -3866.3282   -3849.6927   -856.78756    13022.466    3.0430741 
    2890     296.8827   -3866.2595   -3849.7199   -949.83175    13013.054    3.0329605 
    2900    299.54305   -3866.4371   -3849.7492   -907.55965    13001.085     3.022426 
    2910    307.93479     -3866.94   -3849.7846   -671.88674    12986.735    3.0104733 
    2920    311.04782   -3867.1589   -3849.8301   -210.00784    12970.695    2.9972983 
    2930    309.45929   -3867.1256   -3849.8852    275.29763    12954.229    2.9833555 
    2940    311.41997   -3867.3014   -3849.9518     566.1074    12938.649    2.9688613 
    2950    307.11671    -3867.141   -3850.0311    666.70948    12924.744    2.9555844 
    2960    300.82291   -3866.8783   -3850.1192    530.17897    12912.759    2.9462529 
    2970    297.22319   -3866.7699   -3850.2113    212.33948    12902.305    2.9421279 
    2980    292.51676   -3866.5979   -3850.3014   -40.328953    12892.558    2.9411152 
    2990    296.98635   -3866.9342   -3850.3887   -171.45989    12882.812    2.9392479 
    3000    301.53045   -3867.2737   -3850.4751    38.310328    12872.753    2.9337005 
    3010    303.12932   -3867.4504   -3850.5627    508.34383    12862.938    2.9241754 
    3020    296.35624   -3867.1607   -3850.6503    906.75074     12854.58    2.9135463 
    3030    285.55477   -3866.6372   -3850.7286    1186.1732    12848.775    2.9046191 
    3040    291.65602   -3867.0433   -3850.7948    1143.5264    12846.207    2.8992164 
    3050     310.0159    -3868.131   -3850.8596    793.46205    12846.741    2.8992088 
    3060    315.92671     -3868.54   -3850.9394     305.0173    12849.426    2.9054927 
    3070    298.78223   -3867.6774   -3851.0319   -93.303403    12852.956    2.9160312 
    3080    284.29621   -3866.9566   -3851.1182    -197.6353    12856.275    2.9255153 
    3090    287.02789   -3867.1768   -3851.1861   -96.834838     12859.08    2.9303354 
    3100    296.35601    -3867.749   -3851.2387    72.926137    12861.614    2.9313496 
    3110    302.76419   -3868.1547   -3851.2874    265.40343    12864.346    2.9308151 
    3120    306.56545   -3868.4216   -3851.3425    298.79254    12867.765    2.9304988 
    3130    309.70029   -3868.6634   -3851.4097    196.39208    12871.963    2.9320377 
    3140    312.12018   -3868.8804   -3851.4918   -17.318014    12876.646     2.935718 
    3150    307.43655   -3868.7159   -3851.5883   -221.08821    12881.259    2.9399854 
    3160    297.41634   -3868.2603   -3851.6909   -284.28743    12885.272    2.9443726 
    3170     291.0216    -3868.004   -3851.7909   -221.35191    12888.509     2.950055 
    3180    286.10142   -3867.8213   -3851.8823   -129.68356    12891.121    2.9575307 
    3190    282.99947   -3867.7282    -3851.962   -169.19838    12893.318    2.9652706 
    3200     283.4166   -3867.8149   -3852.0254    -331.1185    12895.012    2.9707701 
    3210    292.72151   -3868.3809    -3852.073   -577.90261     12895.76    2.9738602 
    3220    302.46172   -3868.9621   -3852.1116   -719.72533    12894.929    2.9771663 
    3230    305.50738   -3869.1729   -3852.1528   -679.51779    12892.148    2.9823381 
    3240    297.77485   -3868.7891   -3852.1998   -495.69908    12887.533    2.9876202 
    3250    287.08156   -3868.2392   -3852.2456   -284.64727    12881.574    2.9890213 
    3260    278.88561   -3867.8162   -3852.2792   -102.67504    12874.862    2.9839413 
    3270    278.42797    -3867.804   -3852.2925   -41.477192    12867.891    2.9730469 
    3280    287.95833   -3868.3273   -3852.2848    -92.71442    12860.822    2.9586845 
    3290    290.98572   -3868.4701    -3852.259   -111.76668    12853.551    2.9435997 
    3300     283.8342   -3868.0297    -3852.217    37.321125    12846.076    2.9303744 
    3310    282.50312   -3867.8937   -3852.1552    240.44165    12838.772    2.9211762 
    3320    291.88331   -3868.3319   -3852.0707    348.11893    12832.148    2.9169144 
    3330    297.92651   -3868.5642   -3851.9664     397.2419    12826.501    2.9165753 
    3340    300.50893   -3868.5904   -3851.8487      534.261    12822.012    2.9174193 
    3350    302.90777   -3868.5964    -3851.721    632.05456    12819.014    2.9174884 
    3360    311.15185   -3868.9247   -3851.5901    643.23626    12817.757    2.9161091 
    3370    319.00022   -3869.2368    -3851.465    593.46633    12818.265    2.9143502 
    3380    321.65462   -3869.2773   -3851.3575    487.69145      12820.4    2.9146541 
    3390    318.68873   -3869.0285    -3851.274    381.86158    12823.887    2.9175869 
    3400    311.39338   -3868.5607   -3851.2126    240.76486    12828.403    2.9219619 
    3410    305.72047   -3868.1969   -3851.1649    45.834015    12833.544    2.9274827 
    3420    308.50746   -3868.3104   -3851.1231   -115.51648    12838.823    2.9351853 
    3430    316.49665   -3868.7204    -3851.088   -447.06333    12843.722    2.9456159 
    3440    316.37108   -3868.6943   -3851.0689   -588.84536    12847.428    2.9582096 
    3450     299.9144   -3867.7751   -3851.0666   -400.24429    12849.601    2.9727832 
    3460    284.50882   -3866.9147   -3851.0644   -475.48097    12850.593    2.9892567 
    3470    288.99469   -3867.1471   -3851.0469   -753.39824    12850.233    3.0073527 
    3480    301.64509   -3867.8187   -3851.0137   -789.28627     12847.86    3.0276544 
    3490    299.83967   -3867.6771   -3850.9726   -238.90775    12843.469    3.0506965 
    3500    289.96524   -3867.0749   -3850.9206    424.62011    12838.472    3.0752862 
    3510    305.62334   -3867.8773   -3850.8507    544.03469    12834.528    3.0992074 
    3520    325.11398   -3868.8781   -3850.7656    399.36576    12832.044    3.1215048 
    3530    323.56094   -3868.7138   -3850.6879    247.83874    12830.679    3.1421022 
    3540    317.12664   -3868.2938   -3850.6263    82.608423    12830.004    3.1607159 
    3550    316.93936   -3868.2355   -3850.5785   -92.042059    12829.561    3.1776339 
    3560    317.42603   -3868.2298   -3850.5457   -286.35113    12828.872    3.1933977 
    3570    312.66997   -3867.9504   -3850.5312   -415.03636    12827.413    3.2076148 
    3580     302.9892    -3867.414   -3850.5341   -273.62901    12824.888    3.2196254 
    3590    296.48072   -3867.0637   -3850.5464     113.3851    12821.693      3.23053 
    3600    295.15653   -3867.0011   -3850.5576    566.85535    12818.841    3.2435461 
    3610    296.06782   -3867.0541   -3850.5598    905.53747    12817.539    3.2617349 
    3620    303.45342   -3867.4595   -3850.5538    904.54316    12818.652    3.2849301 
    3630     311.3387   -3867.8924   -3850.5474    704.15442    12822.193    3.3106158 
    3640    316.18397   -3868.1657   -3850.5508    564.26538    12827.665    3.3357692 
    3650    320.74135   -3868.4422   -3850.5734      658.636    12834.729     3.359131 
    3660    322.39178   -3868.5863   -3850.6254    772.29314     12843.55    3.3815994 
    3670    308.77914   -3867.9112   -3850.7088    841.03283    12854.443    3.4039701 
    3680     296.6379   -3867.3348   -3850.8088    677.01696    12867.554    3.4249526 
    3690    304.29576   -3867.8682   -3850.9155    363.44922    12882.439     3.443161 
    3700    319.43605   -3868.8356   -3851.0394    188.48894    12898.307    3.4593214 
    3710    322.12283   -3869.1402   -3851.1944    92.372179    12914.658    3.4744839 
    3720    312.58434   -3868.7891   -3851.3747   -131.03624    12931.183    3.4878156 
    3730    303.44243   -3868.4664   -3851.5613   -458.69686    12947.243    3.4961816 
    3740    297.69291    -3868.326   -3851.7411   -633.87635    12961.999    3.4976455 
    3750     292.3395   -3868.1912   -3851.9047   -704.04766    12974.954    3.4937844 
    3760    291.17487   -3868.2692   -3852.0475   -895.50698    12985.835    3.4888502 
    3770    293.67416   -3868.5308   -3852.1699   -1104.3657    12994.162     3.487374 
    3780     295.0849   -3868.7172   -3852.2777    -1187.945    12999.368     3.489383 
    3790    289.36847    -3868.492    -3852.371   -1006.3937    13001.276    3.4901798 
    3800    289.71158   -3868.5884   -3852.4483   -860.84096    13000.335    3.4854227 
    3810    296.50978   -3869.0327   -3852.5138    -960.4617     12996.91    3.4742066 
    3820    298.16364   -3869.1856   -3852.5746   -951.39199    12990.824    3.4580719 
    3830    293.47234   -3868.9807    -3852.631    -741.1971    12982.139    3.4398184 
    3840    289.47179   -3868.8044   -3852.6776   -427.68174    12971.437    3.4220234 
    3850    286.54441   -3868.6707    -3852.707    64.657376     12959.63    3.4052897 
    3860     291.4625   -3868.9553   -3852.7176     461.0515    12948.016     3.388733 
    3870    295.67724   -3869.1871   -3852.7146    681.98361    12937.712    3.3720563 
    3880    293.70596   -3869.0675   -3852.7049    715.51904    12929.323    3.3550662 
    3890    291.18704   -3868.9124   -3852.6901    585.45525    12922.933    3.3377865 
    3900    290.13424   -3868.8319   -3852.6682    349.14331    12918.181    3.3219655 
    3910    296.07265   -3869.1317   -3852.6371    260.26451    12914.469    3.3097067 
    3920    307.78945   -3869.7487   -3852.6014     363.3597    12911.536    3.3026756 
    3930    304.16003   -3869.5148   -3852.5697    549.43227    12909.641    3.3019586 
    3940    295.24297   -3868.9904   -3852.5421    643.72772     12909.27    3.3063825 
    3950    300.13471   -3869.2326   -3852.5118    497.90139    12910.633    3.3143506 
    3960    302.41219   -3869.3245   -3852.4768    307.39482    12913.384    3.3243002 
    3970     305.6917   -3869.4712   -3852.4408    176.55556    12917.009    3.3328127 
    3980    310.25885   -3869.6917   -3852.4069    185.34097    12921.169    3.3376137 
    3990    308.37894   -3869.5601   -3852.3799    175.75323    12925.833    3.3399215 
    4000    302.42269   -3869.2074   -3852.3591    216.70389    12931.016    3.3425146 
    4010    296.46326   -3868.8545   -3852.3382    227.04987    12936.806    3.3469952 
    4020    293.68578   -3868.6713   -3852.3097    214.35393    12943.249    3.3543002 
    4030    298.83574   -3868.9172   -3852.2688   -2.2045327    12950.251    3.3663272 
    4040    305.32616    -3869.226   -3852.2159   -287.54191    12957.237    3.3833528 
    4050    307.02657   -3869.2619   -3852.1571   -438.34342    12963.446    3.4028089 
    4060    300.19305   -3868.8186   -3852.0945   -432.93959    12968.473    3.4211931 
    4070     294.9065   -3868.4522   -3852.0226   -388.80016    12972.298    3.4349617 
    4080    297.15554   -3868.4888    -3851.934    -306.3914    12975.031    3.4417456 
    4090    304.97554   -3868.8188   -3851.8283   -216.90073    12976.917    3.4426751 
    4100    307.18526    -3868.825   -3851.7113    -285.7962    12978.142    3.4418174 
    4110    304.12112    -3868.533     -3851.59   -381.32015    12978.566    3.4411971 
    4120    298.99698   -3868.1212   -3851.4638   -427.13873    12977.938    3.4391423 
    4130    295.73045   -3867.8039   -3851.3285   -399.82521     12976.14    3.4328787 
    4140    298.33957   -3867.8024   -3851.1816   -577.08011    12973.158    3.4221836 
    4150    302.93277   -3867.9023   -3851.0255   -726.57431    12968.569    3.4098415 
    4160    310.80094   -3868.1851   -3850.8701   -746.62232    12961.951    3.3980991 
    4170    311.18348   -3868.0619   -3850.7255   -484.14444    12953.311     3.386639 
    4180    313.16239   -3868.0452   -3850.5986   -284.91447    12943.281    3.3742799 
    4190    317.48851   -3868.1795   -3850.4918   -84.587759    12932.459    3.3616551 
    4200    318.39153   -3868.1483   -3850.4103    110.08334    12921.386    3.3496581 
    4210    317.18813   -3868.0279    -3850.357    214.37545    12910.579    3.3375237 
    4220    312.90034   -3867.7619   -3850.3298    299.09581    12900.348    3.3241342 
    4230    308.76721   -3867.5226   -3850.3208    464.64057    12890.959    3.3104728 
    4240    312.63949   -3867.7399   -3850.3224    567.14416     12882.83    3.2996069 
    4250    319.44445   -3868.1327   -3850.3361    700.03229    12876.291    3.2952539 
    4260    321.91279   -3868.3029   -3850.3688    740.38072    12871.671    3.2994348 
    4270    323.61272   -3868.4565   -3850.4276    612.82471    12869.062    3.3110292 
    4280    318.59191   -3868.2621    -3850.513    467.94427    12868.165    3.3274116 
    4290    311.27484   -3867.9566   -3850.6151    253.52857    12868.555    3.3451421 
    4300    311.54272   -3868.0845   -3850.7281 -0.035338252    12869.634    3.3609759 
    4310    305.38173   -3867.8622   -3850.8491   -204.29435    12870.727     3.372394 
    4320    301.43074   -3867.7692   -3850.9761   -401.17728    12871.256    3.3778008 
    4330    303.00922     -3867.99    -3851.109   -494.79227    12870.701    3.3790625 
    4340     301.9496   -3868.0684   -3851.2465   -427.79771    12868.813    3.3787854 
    4350    300.65793   -3868.1362   -3851.3862   -220.46997    12865.789    3.3779029 
    4360    302.72146   -3868.3878   -3851.5228   -47.673876    12862.167    3.3775017 
    4370    311.81795   -3869.0324   -3851.6607   -53.626687    12858.377    3.3785705 
    4380    307.81125   -3868.9519   -3851.8034     62.43728     12854.49    3.3812364 
    4390    289.25556   -3868.0487   -3851.9339    241.84249    12850.827    3.3835508 
    4400    282.10649   -3867.7538   -3852.0373    143.00391    12847.784    3.3831964 
    4410    282.90904   -3867.8725   -3852.1113    42.844579     12845.16    3.3800328 
    4420    286.46391   -3868.1197   -3852.1605    106.23474    12842.709    3.3749576 
    4430    295.78953   -3868.6712   -3852.1925    236.09374    12840.569    3.3702427 
    4440    304.31967   -3869.1715   -3852.2175    291.95138    12839.064    3.3692127 
    4450    303.41016   -3869.1471   -3852.2438    304.14808    12838.353    3.3726424 
    4460    294.49728   -3868.6757    -3852.269    342.52767    12838.482     3.378626 
    4470    294.44368   -3868.6917   -3852.2879    290.58147    12839.535    3.3841744 
    4480    299.41627    -3868.982   -3852.3012    81.504884    12841.361    3.3871674 
    4490    293.16903    -3868.643   -3852.3102   -74.623728    12843.429    3.3880828 
    4500    284.52951   -3868.1609   -3852.3094   -94.952313    12845.333    3.3896133 
    4510    287.66245     -3868.32    -3852.294    52.496446    12847.023     3.394205 
    4520      293.798   -3868.6342   -3852.2664    285.59972    12848.883     3.402617 
    4530    293.36416   -3868.5764   -3852.2328    281.63139    12851.476    3.4149856 
    4540    285.52278   -3868.1009   -3852.1941    229.50761    12854.859    3.4306726 
    4550    280.52683   -3867.7738   -3852.1454    199.71834    12858.887    3.4465185 
    4560     287.8979   -3868.1217   -3852.0826    87.498623    12863.445    3.4584438 
    4570    296.41304   -3868.5216   -3852.0081    1.1752427    12868.272    3.4643729 
    4580    297.35998   -3868.4958   -3851.9296   -154.24445    12873.095    3.4661075 
    4590    292.98571   -3868.1731   -3851.8505   -250.20845    12877.521    3.4689351 
    4600     293.5836   -3868.1256   -3851.7697   -263.00545    12881.281     3.477043 
    4610    302.78777   -3868.5568   -3851.6882   -288.83748    12884.311     3.491114 
    4620    309.17615   -3868.8374   -3851.6128    -301.2906    12886.563     3.508902 
    4630    311.51687   -3868.9074   -3851.5525   -218.04032    12888.018       3.5257 
    4640    307.64764   -3868.6479   -3851.5085    -95.51567    12888.882    3.5369658 
    4650    303.92699   -3868.4085   -3851.4764   -123.49413    12889.434    3.5409402 
    4660    305.57576   -3868.4749   -3851.4509   -89.965424    12889.669    3.5396486 
    4670    311.18449   -3868.7701   -3851.4337    58.381353    12889.683    3.5376094 
    4680    311.27309   -3868.7697   -3851.4283    313.72134    12889.897    3.5379278 
    4690    306.86112   -3868.5304   -3851.4348     508.7608    12890.975    3.5406096 
    4700    301.72118   -3868.2564   -3851.4472    556.45786    12893.443     3.545797 
    4710    302.56901   -3868.3205   -3851.4641     437.4103    12897.435    3.5545722 
    4720    299.18526   -3868.1515   -3851.4836    323.12767    12902.673    3.5671273 
    4730    297.80769   -3868.0946   -3851.5034    242.44029     12908.86     3.582405 
    4740    306.41875   -3868.5932   -3851.5223    59.180929    12915.731     3.599203 
    4750    317.57955   -3869.2419   -3851.5492   -165.07476     12922.79    3.6179179 
    4760    314.79864   -3869.1334   -3851.5956   -285.45204    12929.447    3.6398432 
    4770    306.46844   -3868.7326   -3851.6589   -323.14949    12935.373    3.6619366 
    4780    306.53036   -3868.8123   -3851.7351   -556.48999    12940.376    3.6780196 
    4790    308.55705   -3869.0193   -3851.8292   -776.14417    12943.852    3.6829811 
    4800    305.28215   -3868.9534   -3851.9458   -661.54391    12945.268    3.6760539 
    4810    298.90259   -3868.7376   -3852.0854   -500.04165    12944.829    3.6611347 
    4820    293.32275   -3868.5859   -3852.2445   -199.12638    12943.042    3.6443867 
    4830    296.33893   -3868.9357   -3852.4263   -20.792443    12940.662    3.6310609 
    4840     296.8126   -3869.1705   -3852.6348    83.697104    12938.203    3.6245437 
    4850    288.96198   -3868.9599   -3852.8615    252.78647    12935.992    3.6253282 
    4860    281.36449   -3868.7667   -3853.0915    336.94233    12934.466    3.6309918 
    4870    276.82802   -3868.7288   -3853.3064    320.55468    12933.865    3.6382352 
    4880    278.00905   -3868.9842   -3853.4961    269.00034    12934.159    3.6439213 
    4890    276.21907   -3869.0403   -3853.6519     344.1585    12935.256    3.6461301 
    4900    278.66159   -3869.2956   -3853.7711    491.11416    12937.358    3.6448351 
    4910    284.71822   -3869.7198   -3853.8579    520.13667    12940.833    3.6432625 
    4920    284.94923   -3869.7933   -3853.9185     463.0454    12945.789    3.6455692 
    4930    281.93862   -3869.6622   -3853.9551    285.68105    12952.061    3.6526781 
    4940    283.73008   -3869.7757   -3853.9688    25.318984    12959.173    3.6616538 
    4950    283.96379   -3869.7824   -3853.9625   -113.61198    12966.453    3.6701014 
    4960    281.32228   -3869.6122   -3853.9394   -228.71727     12973.48    3.6781262 
    4970    278.32406   -3869.4057   -3853.8999    -280.9402    12979.938    3.6854867 
    4980    278.69908   -3869.3717    -3853.845   -240.26765    12985.698    3.6911565 
    4990    286.09409    -3869.718   -3853.7794   -274.49605    12990.831    3.6957469 
    5000    288.61255   -3869.7899    -3853.711   -276.54284     12995.25    3.7010701 
Loop time of 1768.49 on 8 procs for 5000 steps with 432 atoms

Performance: 0.244 ns/day, 98.250 hours/ns, 2.827 timesteps/s
92.1% CPU use with 8 MPI tasks x 1 OpenMP threads

MPI task timing breakdown:
Section |  min time  |  avg time  |  max time  |%varavg| %total
---------------------------------------------------------------
Pair    | 1359.5     | 1546.7     | 1754.5     | 356.8 | 87.46
Bond    | 0.00040388 | 0.00089934 | 0.0016017  |   0.0 |  0.00
Neigh   | 0.056215   | 0.064481   | 0.075948   |   2.4 |  0.00
Comm    | 5.265      | 203.33     | 405.8      |1084.8 | 11.50
Output  | 2.5876     | 2.5983     | 2.6725     |   1.7 |  0.15
Modify  | 0.28814    | 15.758     | 56.267     | 591.9 |  0.89
Other   |            | 0.02081    |            |       |  0.00

Nlocal:        54.0000 ave          65 max          46 min
Histogram: 2 1 0 0 2 1 0 1 0 1
Nghost:        454.125 ave         494 max         413 min
Histogram: 1 0 1 2 0 0 2 1 0 1
Neighs:         0.00000 ave           0 max           0 min
Histogram: 8 0 0 0 0 0 0 0 0 0
FullNghs:      1752.50 ave        2249 max        1321 min
Histogram: 1 1 1 0 1 2 0 1 0 1

Total # of neighbors = 14020
Ave neighs/atom = 32.453704
Ave special neighs/atom = 0.0000000
Neighbor list builds = 500
Dangerous builds = 500
System init for write_data ...
Total wall time: 0:29:32
