LAMMPS (2 Aug 2023)
OMP_NUM_THREADS environment is not set. Defaulting to 1 thread. (src/comm.cpp:98)
  using 1 OpenMP thread(s) per MPI task
Reading restart file ...
  restart file = 2 Aug 2023, LAMMPS = 2 Aug 2023
  restoring atom style full from restart
  orthogonal box = (-0.73569318 -0.82717062 -9.2097329) to (24.671166 24.762643 81.01615)
  1 by 1 by 1 MPI processor grid
  pair style chgnet/gpu stores no restart info
  1536 atoms
Finding 1-2 1-3 1-4 neighbors ...
  special bond factors lj:    0        0        0       
  special bond factors coul:  0        0        0       
     0 = max # of 1-2 neighbors
     0 = max # of 1-3 neighbors
     0 = max # of 1-4 neighbors
     1 = max # of special neighbors
  special bonds CPU = 0.001 seconds
  read_restart CPU = 0.086 seconds
Resetting peratom fix info from restart file:
  fix style: STORE/ATOM, fix ID: msd_COMPUTE_STORE
All restart file peratom fix info was re-assigned
Neighbor list info ...
  update: every = 1 steps, delay = 10 steps, check = yes
  max neighbors/atom: 2000, page size: 100000
  master list distance cutoff = 6.3
  ghost atom cutoff = 6.3
  binsize = 3.15, bins = 9 9 29
  1 neighbor lists, perpetual/occasional/extra = 1 0 0
  (1) pair chgnet/gpu, perpetual
      attributes: full, newton on
      pair build: full/bin
      stencil: full/bin/3d
      bin: standard
Setting up Verlet run ...
  Unit style    : metal
  Current step  : 20000
  Time step     : 0.001
Per MPI rank memory allocation (min/avg/max) = 6.519 | 6.519 | 6.519 Mbytes
   Step          Temp          PotEng         TotEng         Press          Volume        c_msd[4]   
     20000   1512.4261     -5388.1073     -5088.0203      2618.0827      58660.97       49.242492    
     20010   1521.4926     -5389.9373     -5088.0513      2461.3814      58661.128      49.35739     
     20020   1515.6329     -5388.8818     -5088.1586      2514.4099      58661.523      49.445333    
     20030   1508.7052     -5387.6924     -5088.3437      2721.9639      58662.173      49.523421    
     20040   1491.7447     -5384.5378     -5088.5543      2996.3255      58663.361      49.610467    
     20050   1485.3748     -5383.4854     -5088.7657      3220.8652      58665.355      49.704672    
     20060   1506.1089     -5387.8099     -5088.9764      3240.8754      58667.993      49.794605    
     20070   1509.0165     -5388.6515     -5089.241       3226.484       58671.115      49.885679    
     20080   1491.0407     -5385.4204     -5089.5766      3224.4073      58674.953      49.984434    
     20090   1470.9514     -5381.8008     -5089.943       2998.0691      58679.911      50.0857      
     20100   1460.122      -5379.9756     -5090.2665      2631.6308      58686.104      50.193368    
     20110   1456.4268     -5379.5054     -5090.5294      2201.5043      58693.054      50.312112    
     20120   1441.7246     -5376.7397     -5090.6809      2051.8534      58700.171      50.440145    
     20130   1449.2463     -5378.2683     -5090.7171      2024.0046      58707.055      50.574919    
     20140   1459.7321     -5380.2389     -5090.6071      2133.2431      58713.527      50.723228    
     20150   1458.088      -5379.6841     -5090.3785      2449.5692      58719.742      50.889732    
     20160   1450.7012     -5377.8296     -5089.9897      2781.9052      58725.964      51.065794    
     20170   1477.362      -5382.5519     -5089.4221      2641.5913      58732.447      51.242139    
     20180   1486.1184     -5383.5725     -5088.7053      2720.5452      58739.581      51.416093    
     20190   1470.4111     -5379.6193     -5087.8686      2918.7304      58747.838      51.586039    
     20200   1459.8973     -5376.5358     -5086.8712      2925.4813      58757.241      51.744878    
     20210   1464.8864     -5376.3237     -5085.6693      2634.9873      58767.374      51.899696    
     20220   1488.6865     -5379.6555     -5084.2788      2212.5021      58777.778      52.060785    
     20230   1538.4446     -5388.0575     -5082.8081      1742.2852      58788.015      52.227964    
     20240   1550.5093     -5389.0759     -5081.4327      1680.1376      58797.61       52.390307    
     20250   1560.703      -5390.0002     -5080.3344      1545.5519      58806.357      52.54376     
     20260   1549.9488     -5387.0757     -5079.5436      1507.5203      58814.286      52.686429    
     20270   1533.1176     -5383.2341     -5079.0416      1666.3003      58821.321      52.81285     
     20280   1528.4278     -5382.0381     -5078.7761      1884.9482      58827.359      52.926891    
     20290   1513.2204     -5378.9579     -5078.7133      2187.6386      58832.435      53.036992    
     20300   1494.2061     -5375.2903     -5078.8184      2537.0818      58836.936      53.144765    
     20310   1494.4836     -5375.5649     -5079.038       2663.5548      58841.579      53.259818    
     20320   1486.0639     -5374.218      -5079.3617      2773.5333      58846.78       53.392506    
     20330   1471.4692     -5371.7238     -5079.7632      2896.6674      58852.722      53.536856    
     20340   1465.8616     -5371.0653     -5080.2174      2762.5116      58859.311      53.682358    
     20350   1462.565      -5370.9031     -5080.7092      2618.4639      58866.238      53.824107    
     20360   1468.7674     -5372.6418     -5081.2173      2428.4639      58873.305      53.956673    
     20370   1492.846      -5378.0339     -5081.8319      2258.9228      58880.456      54.067588    
     20380   1498.1954     -5379.8588     -5082.5953      2342.8021      58887.89       54.180491    
     20390   1496.6929     -5380.5417     -5083.5764      2539.2492      58895.998      54.304908    
     20400   1490.2536     -5380.4396     -5084.7519      2712.7961      58905.261      54.427609    
     20410   1484.0784     -5380.593      -5086.1306      2737.0602      58916.05       54.553231    
     20420   1478.2545     -5380.9677     -5087.6608      2580.0373      58928.257      54.682325    
     20430   1485.2509     -5383.9827     -5089.2876      2323.6752      58941.576      54.815891    
     20440   1472.1631     -5383.0763     -5090.9781      2335.4644      58955.728      54.962492    
     20450   1458.0515     -5381.9084     -5092.6101      2457.7077      58970.551      55.112034    
     20460   1459.64       -5383.7318     -5094.1183      2344.791       58985.771      55.258887    
     20470   1471.8743     -5387.5056     -5095.4647      2100.3913      59000.981      55.406355    
     20480   1474.7467     -5389.2916     -5096.6808      1735.7616      59015.829      55.556002    
     20490   1477.3572     -5390.9139     -5097.7851      1387.0523      59030.048      55.711181    
     20500   1474.0754     -5391.2531     -5098.7754      1229.0342      59043.488      55.872685    
     20510   1475.9921     -5392.5443     -5099.6863      1169.192       59056.156      56.035516    
     20520   1474.2258     -5393.0471     -5100.5396      1211.1923      59068.013      56.188542    
     20530   1473.4747     -5393.707      -5101.3485      1139.187       59078.907      56.327256    
     20540   1469.1752     -5393.6345     -5102.1291      1008.1678      59088.563      56.44322     
     20550   1461.1844     -5392.8094     -5102.8895      903.08042      59096.839      56.53956     
     20560   1446.8754     -5390.6927     -5103.6119      840.60759      59103.653      56.627423    
     20570   1434.9542     -5388.9847     -5104.2693      762.7621       59109.109      56.718626    
     20580   1430.2609     -5388.6442     -5104.8599      727.29106      59113.267      56.819818    
     20590   1402.8145     -5383.6886     -5105.3501      845.19553      59116.178      56.934856    
     20600   1384.1673     -5380.3312     -5105.6926      801.05913      59117.898      57.056628    
     20610   1397.3208     -5383.1045     -5105.856       585.68832      59118.066      57.170386    
     20620   1420.1494     -5387.6649     -5105.8869      429.01124      59116.181      57.268383    
     20630   1436.3185     -5390.8572     -5105.871       391.43759      59112.199      57.345652    
     20640   1449.2004     -5393.4016     -5105.8595      570.10044      59106.458      57.402412    
     20650   1454.9248     -5394.5845     -5105.9066      851.62887      59099.018      57.440706    
     20660   1441.0817     -5391.9551     -5106.0238      1242.4758      59089.719      57.461198    
     20670   1443.8051     -5392.6758     -5106.2042      1427.8556      59078.685      57.467444    
     20680   1431.8079     -5390.5188     -5106.4276      1555.1558      59066.091      57.478714    
     20690   1423.3114     -5389.0759     -5106.6706      1610.7346      59052.048      57.511805    
     20700   1427.2307     -5390.1101     -5106.9271      1512.0732      59036.611      57.561505    
     20710   1415.7941     -5388.1077     -5107.1938      1655.9108      59019.672      57.604212    
     20720   1398.2627     -5384.8557     -5107.4204      1683.2779      59001.113      57.630795    
     20730   1430.491      -5391.4435     -5107.6136      1409.1613      58980.66       57.647689    
     20740   1439.5454     -5393.4595     -5107.833       1391.4146      58957.879      57.665793    
     20750   1435.7596     -5393.0153     -5108.14        1512.2418      58932.614      57.684043    
     20760   1419.1035     -5390.0892     -5108.5188      1660.3551      58904.959      57.696526    
     20770   1403.9595     -5387.4723     -5108.9066      1791.4622      58875.303      57.699061    
     20780   1412.019      -5389.4462     -5109.2814      1717.278       58844.104      57.696578    
     20790   1433.8648     -5394.189      -5109.6897      1473.5921      58811.668      57.688656    
     20800   1445.6249     -5397.0366     -5110.2039      1336.6684      58778.147      57.667165    
     20810   1449.0631     -5398.4187     -5110.9038      1478.0525      58743.461      57.630574    
     20820   1448.1551     -5399.1614     -5111.8267      1609.2225      58707.45       57.575109    
     20830   1444.0896     -5399.5367     -5113.0087      1692.8517      58669.983      57.494904    
     20840   1415.8688     -5395.3081     -5114.3795      1920.0145      58631.167      57.394627    
     20850   1413.2009     -5396.287      -5115.8877      2038.7462      58591.321      57.277383    
     20860   1394.8882     -5394.2051     -5117.4393      2323.9679      58550.72       57.150488    
     20870   1392.6295     -5395.2513     -5118.9337      2532.0132      58509.843      57.022525    
     20880   1397.2588     -5397.5837     -5120.3476      2567.178       58469.038      56.899748    
     20890   1394.7626     -5398.3993     -5121.6584      2595.8135      58428.596      56.783315    
     20900   1395.7748     -5399.7832     -5122.8415      2610.9131      58389.049      56.672976    
     20910   1391.5752     -5399.9927     -5123.8842      2424.0986      58350.635      56.564729    
     20920   1392.4602     -5401.0833     -5124.7992      2104.936       58313.049      56.45507     
     20930   1398.8812     -5403.1633     -5125.6053      1802.6315      58275.738      56.350706    
     20940   1406.9355     -5405.4716     -5126.3154      1666.8315      58238.367      56.250194    
     20950   1427.1754     -5410.1686     -5126.9965      1592.7527      58200.946      56.148824    
     20960   1419.6346     -5409.3519     -5127.6761      1767.3062      58163.646      56.050357    
     20970   1424.6682     -5411.0431     -5128.3685      1710.5335      58126.689      55.968145    
     20980   1419.7241     -5410.7681     -5129.0745      1628.5761      58090.037      55.903443    
     20990   1400.5068     -5407.6666     -5129.786       1653.3602      58053.549      55.839534    
     21000   1371.5176     -5402.5375     -5130.4087      1643.093       58017.258      55.76233     
     21010   1364.3697     -5401.6183     -5130.9078      1564.1059      57981.173      55.664775    
     21020   1356.6978     -5400.4464     -5131.2581      1582.8342      57945.06       55.544771    
     21030   1361.6915     -5401.6531     -5131.474       1529.1067      57908.648      55.404419    
     21040   1376.8062     -5404.7783     -5131.6002      1382.3024      57871.538      55.249187    
     21050   1373.8776     -5404.2484     -5131.6514      1341.1568      57833.494      55.08996     
     21060   1383.5532     -5406.175      -5131.6583      1388.4996      57794.711      54.936589    
     21070   1387.1581     -5406.873      -5131.641       1711.843       57755.642      54.789892    
     21080   1366.5956     -5402.7502     -5131.5981      2414.6378      57717.038      54.648259    
     21090   1333.1394     -5395.9493     -5131.4354      3149.4973      57679.87       54.514106    
     21100   1352.2319     -5399.4298     -5131.1276      3312.0841      57645.006      54.380055    
     21110   1395.4624     -5407.6007     -5130.721       3282.3047      57612.788      54.251435    
     21120   1399.1541     -5407.9384     -5130.3261      3462.5513      57583.181      54.141709    
     21130   1417.1562     -5411.2112     -5130.0271      3507.046       57555.885      54.048877    
     21140   1416.5646     -5410.9164     -5129.8497      3565.5894      57530.384      53.96807     
     21150   1395.0842     -5406.6105     -5129.8058      3658.2914      57506.197      53.895558    
     21160   1391.765      -5405.9659     -5129.8198      3516.7018      57483.188      53.821566    
     21170   1401.9716     -5408.0746     -5129.9033      3137.0833      57461.306      53.761097    
     21180   1413.172      -5410.4773     -5130.0837      2855.949       57440.22       53.729891    
     21190   1424.2121     -5412.9939     -5130.4098      2666.4885      57419.609      53.722286    
     21200   1422.4971     -5413.1964     -5130.9526      2781.1386      57399.22       53.722563    
     21210   1414.0353     -5412.2959     -5131.731       2974.4006      57379.085      53.722507    
     21220   1394.3508     -5409.3823     -5132.7231      3097.2417      57359.485      53.714123    
     21230   1380.5667     -5407.8179     -5133.8937      3127.5589      57340.785      53.694625    
     21240   1386.8159     -5410.3971     -5135.233       2968.7006      57323.254      53.672208    
     21250   1396.7996     -5413.9343     -5136.7893      2800.6968      57306.774      53.656001    
     21260   1404.5917     -5417.2639     -5138.5728      2832.3604      57291.063      53.635978    
     21270   1398.5107     -5418.015      -5140.5305      3016.565       57275.878      53.610518    
     21280   1375.1018     -5415.33       -5142.4901      3305.9113      57261.182      53.574038    
     21290   1369.3237     -5415.9778     -5144.2844      3460.6705      57247.158      53.528217    
     21300   1363.9493     -5416.3942     -5145.7671      3405.9754      57233.925      53.475729    
     21310   1368.7501     -5418.5072     -5146.9276      3051.1893      57221.402      53.430961    
     21320   1395.6844     -5424.7786     -5147.8548      2554.2919      57209.426      53.400657    
     21330   1404.0186     -5427.2476     -5148.6702      2252.9849      57197.559      53.373155    
     21340   1381.9274     -5423.6019     -5149.4077      2365.2057      57185.399      53.345855    
     21350   1356.33       -5419.1583     -5150.043       2623.4254      57173.051      53.323615    
     21360   1353.5387     -5419.1191     -5150.5577      2713.7171      57160.805      53.308813    
     21370   1350.4725     -5418.9419     -5150.9888      2828.252       57148.763      53.305931    
     21380   1329.9743     -5415.2183     -5151.3323      2957.0156      57137.177      53.317955    
     21390   1332.2622     -5415.9038     -5151.5639      2791.8351      57126.449      53.352421    
     21400   1357.8419     -5421.1487     -5151.7334      2399.7835      57116.432      53.403312    
     21410   1360.6217     -5421.8624     -5151.8956      2265.3236      57106.571      53.439337    
     21420   1363.7846     -5422.6908     -5152.0964      2194.6929      57096.551      53.43884     
     21430   1377.3289     -5425.626      -5152.3442      2153.9243      57086.299      53.408708    
     21440   1387.7832     -5428.0514     -5152.6953      2181.2747      57075.879      53.370171    
     21450   1359.624      -5422.9314     -5153.1625      2354.86        57065.372      53.342924    
     21460   1333.7794     -5418.3076     -5153.6667      2406.3646      57054.968      53.342181    
     21470   1330.511      -5418.1406     -5154.1482      2314.1863      57044.807      53.357236    
     21480   1311.5736     -5414.7814     -5154.5464      2464.3544      57034.767      53.37422     
     21490   1357.9819     -5424.353      -5154.91        2211.824       57024.733      53.398431    
     21500   1377.5471     -5428.6329     -5155.3079      2316.9052      57014.576      53.437465    
     21510   1374.8686     -5428.6274     -5155.8338      2562.1462      57004.441      53.484466    
     21520   1385.2079     -5431.3579     -5156.5128      2609.9267      56994.481      53.529902    
     21530   1402.0716     -5435.5785     -5157.3874      2374.216       56984.775      53.575026    
     21540   1391.7053     -5434.6421     -5158.5078      2265.0812      56975.283      53.624123    
     21550   1367.8679     -5431.1982     -5159.7937      2336.547       56966.055      53.675365    
     21560   1365.1618     -5432.0438     -5161.1762      2429.6706      56957.064      53.725232    
     21570   1349.7381     -5430.3915     -5162.5841      2818.4764      56948.152      53.781067    
     21580   1339.4781     -5429.7125     -5163.9409      3122.4117      56939.532      53.852605    
     21590   1337.7988     -5430.6281     -5165.1896      3114.6898      56931.638      53.946257    
     21600   1345.3026     -5433.2681     -5166.3408      2739.0074      56924.546      54.065419    
     21610   1335.2067     -5432.3185     -5167.3944      2596.9021      56917.91       54.194841    
     21620   1312.3456     -5428.7014     -5168.3133      2669.7145      56911.671      54.315272    
     21630   1300.566      -5427.1238     -5169.0728      2767.2888      56905.959      54.42112     
     21640   1301.0358     -5427.8086     -5169.6645      2804.9905      56900.667      54.517927    
     21650   1299.1169     -5427.8621     -5170.0987      2882.4383      56895.689      54.604395    
     21660   1303.0847     -5428.9581     -5170.4075      2771.205       56890.928      54.688596    
     21670   1321.5075     -5432.8345     -5170.6285      2447.0118      56886.274      54.774517    
     21680   1327.8659     -5434.2858     -5170.8182      2216.5095      56881.634      54.855496    
     21690   1328.2559     -5434.5612     -5171.0162      2121.8103      56876.901      54.919902    
     21700   1325.9206     -5434.3114     -5171.2298      2225.9451      56871.795      54.965752    
     21710   1321.5252     -5433.6643     -5171.4548      2343.6106      56866.002      55.005105    
     21720   1305.7663     -5430.7361     -5171.6533      2395.7717      56859.378      55.046547    
     21730   1315.8784     -5432.9224     -5171.8332      2182.0025      56852.137      55.090122    
     21740   1326.0329     -5435.1086     -5172.0047      1871.9699      56844.385      55.131832    
     21750   1317.4636     -5433.5973     -5172.1936      1812.651       56836.113      55.166281    
     21760   1302.5432     -5430.8364     -5172.3932      1943.3793      56827.386      55.197334    
     21770   1275.5929     -5425.6388     -5172.5429      2327.8692      56818.422      55.231725    
     21780   1277.4533     -5426.0446     -5172.5795      2569.3157      56809.628      55.260447    
     21790   1300.2499     -5430.4812     -5172.493       2491.5372      56801.303      55.284277    
     21800   1321.3561     -5434.537      -5172.361       2254.3362      56793.191      55.314326    
     21810   1322.222      -5434.5824     -5172.2346      2086.4783      56784.709      55.350401    
     21820   1336.0053     -5437.2561     -5172.1735      1833.6105      56775.241      55.386864    
     21830   1315.6553     -5433.2267     -5172.1818      1934.9458      56764.16       55.417662    
     21840   1292.1565     -5428.6047     -5172.2224      2163.0417      56751.341      55.439604    
     21850   1292.6725     -5428.7087     -5172.224       2241.7968      56737.205      55.451382    
     21860   1313.288      -5432.7499     -5172.1747      2125.3045      56722.15       55.451688    
     21870   1321.8651     -5434.4169     -5172.1399      2041.2926      56706.286      55.44732     
     21880   1323.9523     -5434.8625     -5172.1714      2066.2184      56689.586      55.439385    
     21890   1304.9505     -5431.1982     -5172.2774      2303.4695      56672.034      55.424092    
     21900   1289.1174     -5428.1917     -5172.4123      2439.3775      56653.771      55.389063    
     21910   1294.3774     -5429.3679     -5172.5449      2571.0631      56634.886      55.33682     
     21920   1281.797      -5426.9905     -5172.6636      2936.3795      56615.492      55.278817    
     21930   1272.3875     -5425.2041     -5172.7442      3179.978       56595.885      55.229059    
     21940   1266.8951     -5424.1091     -5172.739       3317.2615      56576.453      55.195891    
     21950   1271.869      -5424.9844     -5172.6273      3196.7593      56557.498      55.191462    
     21960   1271.2622     -5424.6313     -5172.3947      2945.6645      56539.054      55.208402    
     21970   1293.0084     -5428.6219     -5172.0706      2453.3627      56520.98       55.229919    
     21980   1297.9318     -5429.2108     -5171.6826      2234.3937      56503.076      55.248507    
     21990   1294.8784     -5428.1957     -5171.2733      2374.2592      56485.333      55.260641    
     22000   1299.2684     -5428.6377     -5170.8442      2460.4646      56467.899      55.266012    
     22010   1305.5828     -5429.454      -5170.4076      2557.3089      56450.734      55.264925    
     22020   1310.5557     -5430.0227     -5169.9897      2654.6701      56433.752      55.268035    
     22030   1326.5338     -5432.8359     -5169.6326      2642.2438      56416.861      55.290431    
     22040   1329.6502     -5433.208      -5169.3864      2585.5069      56399.912      55.325774    
     22050   1317.4071     -5430.679      -5169.2865      2531.5423      56382.831      55.345536    
     22060   1309.2749     -5429.0826     -5169.3038      2438.8105      56365.555      55.33466     
     22070   1318.0905     -5430.9467     -5169.4186      2319.4049      56348.076      55.29314     
     22080   1325.6294     -5432.7001     -5169.6762      2329.513       56330.405      55.235235    
     22090   1322.9289     -5432.5913     -5170.1033      2584.9034      56312.776      55.17956     
     22100   1322.2503     -5433.0839     -5170.7305      2723.5187      56295.703      55.132161    
     22110   1308.351      -5431.1382     -5171.5426      2955.1553      56279.401      55.085574    
     22120   1284.0561     -5427.2388     -5172.4637      3166.8886      56264.206      55.044319    
     22130   1290.0297     -5429.4225     -5173.4621      3243.4944      56250.586      55.019405    
     22140   1306.4101     -5433.7573     -5174.5469      3313.1202      56238.685      55.016773    
     22150   1303.2108     -5434.3195     -5175.7438      3428.761       56228.462      55.035268    
     22160   1278.067      -5430.5786     -5176.9918      3591.7518      56219.87       55.067756    
     22170   1277.0247     -5431.5916     -5178.2116      3479.9164      56212.724      55.099586    
     22180   1290.2183     -5435.3826     -5179.3848      3064.2673      56206.663      55.129       
     22190   1295.8557     -5437.6593     -5180.543       2585.0797      56201.138      55.15807     
     22200   1288.5684     -5437.3502     -5181.6798      2480.6263      56195.573      55.185155    
     22210   1280.0066     -5436.7324     -5182.7608      2547.835       56189.647      55.220721    
     22220   1265.4048     -5434.804      -5183.7295      2613.5697      56183.206      55.282295    
     22230   1250.5168     -5432.7074     -5184.587       2791.0355      56176.28       55.367905    
     22240   1234.3776     -5430.189      -5185.2708      2932.5967      56169.138      55.467001    
     22250   1236.9126     -5431.2019     -5185.7807      2898.6856      56162.167      55.575631    
     22260   1247.8517     -5433.75       -5186.1584      2980.3092      56155.628      55.677615    
     22270   1260.9086     -5436.631      -5186.4487      3013.137       56149.603      55.766069    
     22280   1293.1319     -5443.322      -5186.7461      2822.6376      56144.039      55.854555    
     22290   1300.8642     -5445.2347     -5187.1246      2820.4014      56138.678      55.95103     
     22300   1278.5787     -5441.2833     -5187.595       3099.6793      56133.649      56.063574    
     22310   1279.6257     -5442.0275     -5188.1314      2884.8884      56129.439      56.188726    
     22320   1296.5146     -5445.9814     -5188.7344      2287.8989      56126.053      56.304242    
     22330   1299.176      -5447.2317     -5189.4566      1894.0731      56122.706      56.404565    
     22340   1284.5787     -5445.1652     -5190.2864      1853.9193      56118.549      56.496052    
     22350   1283.1498     -5445.806      -5191.2107      1986.5908      56113.249      56.576897    
     22360   1247.8655     -5439.731      -5192.1366      2300.993       56106.794      56.63826     
     22370   1226.8373     -5436.3992     -5192.9771      2339.7202      56099.514      56.67065     
     22380   1226.3434     -5437.0159     -5193.6918      2158.8007      56091.756      56.684749    
     22390   1218.3007     -5435.9996     -5194.2713      2195.618       56083.557      56.70539     
     22400   1204.9903     -5433.783      -5194.6956      2388.3851      56075.017      56.736536    
     22410   1212.6649     -5435.5679     -5194.9578      2370.6094      56066.318      56.766859    
     22420   1226.6722     -5438.4983     -5195.109       2416.2098      56057.51       56.788294    
     22430   1222.1272     -5437.6571     -5195.1696      2628.7643      56048.556      56.797848    
     22440   1222.2675     -5437.6681     -5195.1527      2682.8301      56039.676      56.803001    
     22450   1238.7285     -5440.8589     -5195.0774      2557.2409      56030.976      56.810096    
     22460   1255.1571     -5444.027      -5194.9858      2429.6895      56022.274      56.817766    
     22470   1249.5185     -5442.854      -5194.9316      2654.7432      56013.23       56.825232    
     22480   1241.5257     -5441.2434     -5194.9069      2852.3233      56003.827      56.847524    
     22490   1246.6936     -5442.2622     -5194.9003      2758.1238      55994.257      56.880981    
     22500   1246.5114     -5442.2435     -5194.9178      2619.6981      55984.286      56.910532    
     22510   1251.7489     -5443.3414     -5194.9765      2616.1624      55973.531      56.930359    
     22520   1251.9295     -5443.4875     -5195.0868      2604.0879      55961.888      56.954713    
     22530   1254.2315     -5444.1281     -5195.2706      2676.0538      55949.574      56.985662    
     22540   1221.1521     -5437.804      -5195.5099      3098.2176      55936.698      57.013574    
     22550   1210.3547     -5435.8846     -5195.7329      3232.6099      55923.51       57.034495    
     22560   1244.7354     -5442.8998     -5195.9265      2914.5216      55910.124      57.057071    
     22570   1265.4407     -5447.2731     -5196.1915      2608.8566      55896.259      57.083643    
     22580   1258.8857     -5446.4055     -5196.6246      2624.2429      55881.627      57.105095    
     22590   1241.0679     -5443.4919     -5197.2463      2669.1162      55866.237      57.106203    
     22600   1230.9823     -5442.2908     -5198.0462      2675.1122      55850.212      57.088787    
     22610   1237.4274     -5444.5627     -5199.0394      2533.9051      55833.569      57.065958    
     22620   1258.5366     -5450.0262     -5200.3146      2450.6258      55816.202      57.048086    
     22630   1248.9369     -5449.7205     -5201.9135      2741.4381      55798.123      57.048586    
     22640   1274.3465     -5456.7037     -5203.8551      2660.5386      55779.765      57.072988    
     22650   1271.3782     -5458.3059     -5206.0463      2646.0519      55761.502      57.11656     
     22660   1256.3262     -5457.5204     -5208.2473      2502.7823      55743.661      57.15849     
     22670   1241.0554     -5456.4441     -5210.2009      2320.9068      55726.239      57.178177    
     22680   1230.6067     -5455.9574     -5211.7874      2239.0105      55709.055      57.172008    
     22690   1218.4917     -5454.7782     -5213.012       2279.7511      55691.996      57.148803    
     22700   1217.4767     -5455.5194     -5213.9546      2300.7478      55675.056      57.116322    
     22710   1218.2807     -5456.4324     -5214.708       2260.3501      55658.246      57.092599    
     22720   1209.1774     -5455.2605     -5215.3424      2324.0641      55641.582      57.085648    
     22730   1188.9085     -5451.746      -5215.8495      2468.1732      55625.119      57.094467    
     22740   1189.1116     -5452.1686     -5216.2318      2422.0825      55608.865      57.111185    
     22750   1202.3081     -5455.0792     -5216.5241      2346.1555      55592.753      57.118731    
     22760   1223.2361     -5459.4921     -5216.7845      2262.4631      55576.726      57.108555    
     22770   1219.6709     -5459.0618     -5217.0616      2288.4486      55560.738      57.092744    
     22780   1209.6609     -5457.3988     -5217.3848      2362.2404      55544.858      57.087546    
     22790   1185.1449     -5452.8292     -5217.6795      2554.8875      55529.18       57.092952    
     22800   1183.5355     -5452.7454     -5217.915       2472.6425      55514.002      57.107815    
     22810   1188.8657     -5453.9586     -5218.0706      2451.1633      55499.424      57.12889     
     22820   1196.2329     -5455.537      -5218.1873      2467.5744      55485.299      57.151396    
     22830   1201.2132     -5456.6082     -5218.2702      2368.7055      55471.301      57.171427    
     22840   1210.1739     -5458.4725     -5218.3567      2166.258       55457.16       57.17993     
     22850   1228.0339     -5462.1566     -5218.4971      1832.8174      55442.666      57.170006    
     22860   1222.8699     -5461.3477     -5218.7127      1730.9975      55427.344      57.155695    
     22870   1218.2015     -5460.7474     -5219.0388      1852.3         55411.078      57.155425    
     22880   1216.0627     -5460.7222     -5219.4379      2095.4226      55394.17       57.173011    
     22890   1209.2657     -5459.8524     -5219.9168      2383.5974      55376.69       57.200484    
     22900   1205.4168     -5459.6283     -5220.4563      2536.2584      55358.688      57.218835    
     22910   1207.5308     -5460.6321     -5221.0407      2683.1375      55340.576      57.21344     
     22920   1219.0479     -5463.5793     -5221.7028      2654.7719      55322.887      57.189382    
     22930   1209.5757     -5462.4532     -5222.4561      2641.4639      55305.796      57.174681    
     22940   1195.9014     -5460.5691     -5223.2851      2671.983       55289.311      57.17883     
     22950   1184.5187     -5459.1504     -5224.1249      2599.0744      55273.334      57.195476    
     22960   1185.9201     -5460.2567     -5224.9532      2490.4512      55257.757      57.230458    
     22970   1184.7909     -5460.8438     -5225.7643      2603.3375      55242.4        57.280611    
     22980   1169.464      -5458.5765     -5226.5381      2926.1676      55227.276      57.325942    
     22990   1168.9717     -5459.1698     -5227.2291      3035.841       55212.742      57.349889    
     23000   1192.9625     -5464.5787     -5227.8779      2871.1678      55198.968      57.357588    
     23010   1189.8822     -5464.5989     -5228.5092      2870.2001      55185.936      57.36271     
     23020   1188.3549     -5464.9508     -5229.1642      2793.2733      55173.55       57.377347    
     23030   1192.4291     -5466.4292     -5229.8342      2708.1989      55161.486      57.40374     
     23040   1183.0512     -5465.2361     -5230.5018      2798.9857      55149.523      57.441522    
     23050   1186.0145     -5466.4984     -5231.1761      2751.0036      55137.8        57.480949    
     23060   1183.5772     -5466.6782     -5231.8395      2790.4686      55126.385      57.513843    
     23070   1173.0164     -5465.2354     -5232.4921      2953.6653      55115.314      57.534992    
     23080   1168.5614     -5464.9651     -5233.1058      3009.8229      55104.688      57.545491    
     23090   1165.5347     -5464.9373     -5233.6785      3007.4917      55094.389      57.55656     
     23100   1142.6052     -5460.8859     -5234.1766      3240.5911      55084.114      57.571179    
     23110   1118.711      -5456.5129     -5234.5447      3474.8977      55073.79       57.585619    
     23120   1103.8916     -5453.7495     -5234.7216      3577.8949      55063.579      57.603144    
     23130   1113.1482     -5455.5443     -5234.6798      3459.5496      55053.706      57.626626    
     23140   1135.8869     -5459.825      -5234.4487      3282.1368      55044.159      57.658709    
     23150   1154.9968     -5463.2706     -5234.1027      3110.2159      55034.912      57.699616    
     23160   1152.715      -5462.4031     -5233.6879      3079.8403      55025.964      57.748067    
     23170   1153.2254     -5462.0552     -5233.2387      2996.7006      55017.408      57.799258    
     23180   1143.9686     -5459.7034     -5232.7236      3044.8203      55009.321      57.848017    
     23190   1134.5442     -5457.2417     -5232.1319      3156.5831      55001.849      57.889676    
     23200   1143.6554     -5458.3667     -5231.4491      3179.9375      54995.106      57.92636     
     23210   1142.0387     -5457.2717     -5230.6749      3414.9149      54989.201      57.96621     
     23220   1143.3355     -5456.6807     -5229.8265      3655.1429      54984.387      58.013566    
     23230   1165.098      -5460.0963     -5228.9242      3692.8534      54980.631      58.07065     
     23240   1178.377      -5461.845      -5228.0381      3601.1239      54977.624      58.136503    
     23250   1180.1719     -5461.4084     -5227.2454      3492.2535      54975.308      58.201752    
     23260   1197.9233     -5464.2605     -5226.5754      3185.9206      54973.771      58.255825    
     23270   1216.8871     -5467.533      -5226.0851      2914.8043      54972.937      58.309688    
     23280   1213.6287     -5466.635      -5225.8337      2985.3328      54972.785      58.376745    
     23290   1197.9196     -5463.4907     -5225.8063      3388.8493      54973.242      58.455696    
     23300   1184.1719     -5460.8862     -5225.9296      3696.915       54974.173      58.540431    
     23310   1187.6622     -5461.7875     -5226.1383      3607.2103      54975.527      58.620044    
     23320   1209.4581     -5466.4281     -5226.4543      3252.5333      54977.239      58.697173    
     23330   1222.3241     -5469.4493     -5226.9227      2989.0074      54979.181      58.782468    
     23340   1218.4168     -5469.2889     -5227.5376      2871.2233      54981.213      58.87377     
     23350   1210.6444     -5468.4686     -5228.2594      2730.2916      54983.321      58.968896    
     23360   1191.7203     -5465.4642     -5229.0099      2819.3183      54985.659      59.070489    
     23370   1186.7151     -5465.1892     -5229.7279      2874.455       54988.494      59.174059    
     23380   1190.9515     -5466.7123     -5230.4104      2939.1392      54991.849      59.275302    
     23390   1185.3926     -5466.2805     -5231.0817      3145.9638      54995.535      59.378613    
     23400   1193.5428     -5468.5712     -5231.7552      3174.5056      54999.395      59.488574    
     23410   1211.0533     -5472.7797     -5232.4893      2996.7747      55003.157      59.604745    
     23420   1226.9564     -5476.812      -5233.3663      2763.6262      55006.581      59.719813    
     23430   1222.3648     -5476.9578     -5234.4231      2713.3891      55009.561      59.826278    
     23440   1209.0253     -5475.5028     -5235.6149      2756.0286      55012.143      59.922647    
     23450   1188.9249     -5472.802      -5236.9023      2849.6072      55014.434      60.011984    
     23460   1146.1346     -5465.5393     -5238.1298      3173.2021      55016.487      60.0933      
     23470   1122.6176     -5461.9779     -5239.2345      3400.7601      55018.421      60.163557    
     23480   1103.3791     -5459.0416     -5240.1154      3482.3575      55020.383      60.224239    
     23490   1124.7681     -5464.0034     -5240.8333      3121.2367      55022.574      60.274634    
     23500   1144.8898     -5468.6334     -5241.4709      2821.9098      55025.228      60.32694     
     23510   1143.2004     -5468.9421     -5242.1148      2860.1065      55028.518      60.395336    
     23520   1122.1237     -5465.3734     -5242.728       3162.489       55032.34       60.481769    
     23530   1113.6086     -5464.2448     -5243.2888      3263.6981      55036.661      60.585953    
     23540   1113.1474     -5464.6476     -5243.7832      3279.9294      55041.599      60.709153    
     23550   1111.8857     -5464.8069     -5244.1928      3265.0837      55047.369      60.84876     
     23560   1128.4716     -5468.4763     -5244.5714      2983.4294      55054.119      61.002439    
     23570   1126.4435     -5468.4419     -5244.9394      2856.4601      55061.574      61.158822    
     23580   1137.2533     -5470.9658     -5245.3185      2689.8175      55069.425      61.303994    
     23590   1156.9078     -5475.3043     -5245.7572      2466.3681      55077.318      61.444358    
     23600   1146.0498     -5473.6886     -5246.2959      2507.1413      55084.838      61.585559    
     23610   1139.2127     -5472.9686     -5246.9325      2493.6963      55091.852      61.725009    
     23620   1121.2789     -5470.088      -5247.6102      2528.1537      55098.319      61.860429    
     23630   1116.7116     -5469.8679     -5248.2963      2418.3685      55104.135      61.99149     
     23640   1113.2393     -5469.8463     -5248.9637      2365.6687      55109.15       62.114809    
     23650   1101.9262     -5468.2405     -5249.6025      2295.184       55113.217      62.226508    
     23660   1113.968      -5471.239      -5250.2118      1961.5084      55116.358      62.32941     
     23670   1120.7759     -5473.1671     -5250.7891      1765.4663      55118.66       62.430573    
     23680   1135.5745     -5476.726      -5251.4117      1649.7255      55120.262      62.523672    
     23690   1128.9185     -5476.0822     -5252.0886      1942.5594      55121.303      62.592792    
     23700   1114.8052     -5474.001      -5252.8077      2322.6029      55122.006      62.639453    
     23710   1096.8052     -5471.1226     -5253.5007      2567.7526      55122.729      62.67964     
     23720   1083.2275     -5469.0469     -5254.119       2679.0854      55123.615      62.725488    
     23730   1093.9697     -5471.7173     -5254.658       2628.7382      55124.447      62.790604    
     23740   1105.8401     -5474.5499     -5255.1354      2573.7287      55124.946      62.882474    
     23750   1100.1926     -5473.8856     -5255.5917      2711.4199      55125.138      62.989034    
     23760   1087.2389     -5471.7407     -5256.0169      2923.5619      55125.11       63.092663    
     23770   1073.4569     -5469.3479     -5256.3587      2958.2346      55124.952      63.181341    
     23780   1094.5234     -5473.793      -5256.6239      2627.5898      55124.647      63.25563     
     23790   1103.8049     -5475.8577     -5256.847       2453.3633      55123.962      63.323417    
     23800   1098.4958     -5475.0396     -5257.0823      2492.6093      55122.772      63.390373    
     23810   1092.5667     -5474.0918     -5257.3109      2555.7657      55121.158      63.460338    
     23820   1107.5844     -5477.2914     -5257.5308      2415.1376      55119.131      63.548684    
     23830   1125.4274     -5481.0945     -5257.7936      2319.6979      55116.399      63.651787    
     23840   1135.7869     -5483.5298     -5258.1734      2430.5043      55112.85       63.762627    
     23850   1137.699      -5484.4464     -5258.7106      2633.2549      55108.626      63.863245    
     23860   1141.5279     -5485.9537     -5259.4582      2774.6641      55103.889      63.929925    
     23870   1116.6703     -5481.9518     -5260.3884      3129.1967      55098.655      63.977105    
     23880   1091.9171     -5478.0802     -5261.4282      3413.1483      55093.062      64.013293    
     23890   1068.7081     -5474.4987     -5262.4517      3447.915       55087.408      64.049696    
     23900   1067.1021     -5475.1285     -5263.4002      3140.0009      55081.698      64.094317    
     23910   1078.5196     -5478.2596     -5264.2659      2658.6913      55075.535      64.13997     
     23920   1083.5518     -5480.0603     -5265.0681      2328.3276      55068.585      64.182159    
     23930   1078.7613     -5479.8523     -5265.8106      2209.141       55060.791      64.227797    
     23940   1065.2175     -5477.803      -5266.4486      2110.3456      55052.183      64.283473    
     23950   1067.185      -5478.7203     -5266.9756      1928.4834      55042.851      64.338395    
     23960   1070.2988     -5479.7607     -5267.3981      1867.6775      55032.937      64.372629    
     23970   1061.3322     -5478.3054     -5267.7219      2154.5673      55022.594      64.39134     
     23980   1051.0222     -5476.4678     -5267.9299      2562.8803      55012.063      64.416666    
     23990   1054.5327     -5477.2614     -5268.027       2817.4456      55001.649      64.452272    
     24000   1056.8743     -5477.7177     -5268.0187      2875.0357      54991.645      64.49676     
     24010   1063.9055     -5479.0448     -5267.9507      2795.4643      54982.232      64.541018    
     24020   1073.1619     -5480.7697     -5267.839       2651.5229      54973.284      64.570675    
     24030   1080.6784     -5482.1572     -5267.7352      2568.5407      54964.509      64.592131    
     24040   1081.6898     -5482.2729     -5267.6502      2727.061       54955.618      64.624934    
     24050   1089.2992     -5483.7429     -5267.6104      2925.826       54946.507      64.678886    
     24060   1092.1377     -5484.3127     -5267.617       3180.9727      54937.374      64.733276    
     24070   1090.8504     -5484.1172     -5267.6769      3346.9289      54928.499      64.775261    
     24080   1081.3567     -5482.3429     -5267.7862      3412.1004      54919.979      64.806306    
     24090   1071.5698     -5480.5225     -5267.9077      3383.8405      54911.964      64.822773    
     24100   1085.5092     -5483.4159     -5268.0353      3128.6466      54904.662      64.829411    
     24110   1082.7588     -5483.0208     -5268.1859      2980.7678      54898.091      64.840003    
     24120   1081.461      -5482.9515     -5268.3742      2957.1185      54892.152      64.861228    
     24130   1081.9933     -5483.2764     -5268.5934      2919.0303      54886.691      64.899821    
     24140   1089.4652     -5485.0177     -5268.8522      2796.235       54881.602      64.946411    
     24150   1101.77       -5487.787      -5269.18        2607.3083      54876.833      64.989279    
     24160   1097.435      -5487.3519     -5269.6051      2587.9133      54872.266      65.029754    
     24170   1083.214      -5485.0415     -5270.1163      2583.1676      54867.835      65.068873    
     24180   1078.3403     -5484.6248     -5270.6666      2315.7036      54863.468      65.109615    
     24190   1077.0388     -5484.9393     -5271.2394      2146.6283      54858.858      65.161581    
     24200   1074.0047     -5484.9294     -5271.8315      2218.0616      54853.857      65.228402    
     24210   1061.7952     -5483.0962     -5272.4208      2395.9064      54848.525      65.297685    
     24220   1067.239      -5484.7489     -5272.9934      2385.5696      54843.047      65.338155    
     24230   1071.6703     -5486.1837     -5273.549       2320.3147      54837.704      65.34346     
     24240   1075.3497     -5487.4867     -5274.1219      2284.8504      54832.618      65.330397    
     24250   1065.1588     -5486.0468     -5274.704       2544.1311      54827.684      65.31524     
     24260   1061.0526     -5485.7992     -5275.2712      2776.6309      54822.91       65.311493    
     24270   1070.15       -5488.1462     -5275.8132      2630.6457      54818.349      65.327727    
     24280   1074.7063     -5489.6063     -5276.3692      2362.2654      54813.881      65.363348    
     24290   1068.6098     -5488.9728     -5276.9453      2170.5617      54809.306      65.412295    
     24300   1056.083      -5487.0535     -5277.5115      2193.0462      54804.602      65.472931    
     24310   1049.3379     -5486.2284     -5278.0247      2288.093       54800.144      65.537616    
     24320   1056.8606     -5488.1931     -5278.4968      2278.241       54796.499      65.603324    
     24330   1056.0358     -5488.4769     -5278.9443      2377.2922      54793.951      65.66796     
     24340   1041.5872     -5486.0262     -5279.3604      2521.4546      54792.594      65.73335     
     24350   1034.0466     -5484.8965     -5279.7268      2552.3854      54792.296      65.8059      
     24360   1021.0057     -5482.585      -5280.0028      2549.9043      54792.843      65.89088     
     24370   1031.7592     -5484.9188     -5280.203       2382.661       54794.019      65.992904    
     24380   1034.1162     -5485.5308     -5280.3473      2396.3058      54795.471      66.109509    
     24390   1028.5701     -5484.5358     -5280.4527      2540.8145      54796.917      66.232636    
     24400   1021.272      -5483.1548     -5280.5198      2625.0335      54798.125      66.346233    
     24410   1006.7793     -5480.2749     -5280.5155      2661.1039      54798.883      66.441811    
     24420   1015.4606     -5481.9148     -5280.4329      2449.9508      54799.007      66.525658    
     24430   1028.3523     -5484.316      -5280.2762      2228.4846      54798.207      66.600801    
     24440   1043.513      -5487.1648     -5280.1169      2054.7115      54796.111      66.666128    
     24450   1054.6917     -5489.2617     -5279.9958      1841.4076      54792.263      66.734608    
     24460   1062.6143     -5490.7998     -5279.9619      1676.3493      54786.352      66.813285    
     24470   1058.03       -5489.9645     -5280.0362      1592.7877      54778.329      66.896679    
     24480   1044.3504     -5487.4032     -5280.1891      1708.4102      54768.452      66.976075    
     24490   1043.0604     -5487.36       -5280.4019      1846.3466      54757.238      67.048467    
     24500   1046.6206     -5488.3268     -5280.6623      2091.7064      54745.038      67.102426    
     24510   1052.7062     -5489.8612     -5280.9892      2462.0627      54732.145      67.132108    
     24520   1064.3894     -5492.6078     -5281.4177      2567.3214      54718.849      67.147834    
     24530   1060.3186     -5492.3672     -5281.9848      2592.9001      54705.201      67.165388    
     24540   1048.2512     -5490.6614     -5282.6733      2581.7724      54691.358      67.194909    
     24550   1054.9205     -5492.7869     -5283.4755      2317.207       54677.495      67.235034    
     24560   1047.8516     -5492.2775     -5284.3687      2108.9648      54663.547      67.266227    
     24570   1057.0396     -5495.0958     -5285.364       1920.4         54649.263      67.272142    
     24580   1049.8838     -5494.7329     -5286.4209      1916.0565      54634.247      67.259646    
     24590   1047.2322     -5495.287      -5287.5011      1873.3345      54618.175      67.240759    
     24600   1034.184      -5493.7233     -5288.5264      1910.3213      54600.818      67.213583    
     24610   1023.7114     -5492.5276     -5289.4086      1855.5577      54582.15       67.181919    
     24620   1031.2281     -5494.7633     -5290.1529      1543.8373      54562.216      67.154098    
     24630   1030.1982     -5495.1874     -5290.7813      1425.9361      54540.844      67.125388    
     24640   1026.2064     -5494.9292     -5291.3152      1440.0558      54517.959      67.092537    
     24650   1017.1137     -5493.5757     -5291.7658      1580.7744      54493.655      67.058171    
     24660   1020.9786     -5494.7322     -5292.1554      1628.7164      54468.032      67.026076    
     24670   1021.5911     -5495.2145     -5292.5162      1780.7151      54441.107      67.005567    
     24680   1008.1654     -5492.8824     -5292.848       1953.1282      54412.955      66.999265    
     24690   1007.8293     -5493.1285     -5293.1608      1860.9549      54383.597      67.001036    
     24700   1000.5391     -5491.9655     -5293.4442      1803.4454      54352.816      67.000939    
     24710   1000.7576     -5492.2643     -5293.6996      1765.737       54320.472      66.989805    
     24720   1011.1764     -5494.5604     -5293.9286      1816.5213      54286.669      66.961039    
     24730   1024.6855     -5497.4883     -5294.176       2054.3746      54251.614      66.912949    
     24740   1031.271      -5499.1058     -5294.4869      2409.5033      54215.592      66.839046    
     24750   1030.1237     -5499.2754     -5294.8841      2750.7607      54178.959      66.7457      
     24760   1027.3163     -5499.2131     -5295.3789      2908.5813      54141.878      66.649272    
     24770   1035.9736     -5501.5323     -5295.9803      2753.3229      54104.301      66.557402    
     24780   1043.2185     -5503.7098     -5296.7203      2496.2539      54066.018      66.46909     
     24790   1042.2845     -5504.4203     -5297.6161      2379.0503      54026.807      66.377149    
     24800   1036.9396     -5504.3785     -5298.6349      2478.4456      53986.738      66.27396     
     24810   1021.6408     -5502.4259     -5299.7177      2730.6299      53946.161      66.170188    
     24820   1002.7663     -5499.7423     -5300.7791      3032.8742      53905.575      66.073283    
     24830   993.89504     -5498.9447     -5301.7417      3283.1237      53865.503      65.973776    
     24840   997.73917     -5500.5813     -5302.6156      3345.313       53826.119      65.85874     
     24850   1000.9097     -5502.0033     -5303.4085      3378.7242      53787.363      65.72502     
     24860   995.38834     -5501.6353     -5304.136       3365.4115      53749.19       65.581458    
     24870   990.4033      -5501.3112     -5304.801       3234.5626      53711.598      65.446999    
     24880   974.92389     -5498.8286     -5305.3897      3175.1755      53674.362      65.334597    
     24890   964.08117     -5497.1631     -5305.8756      3119.7166      53637.241      65.241974    
     24900   976.33852     -5499.9774     -5306.2579      2999.7823      53600.348      65.161721    
     24910   988.80762     -5502.7665     -5306.5729      3016.8672      53563.984      65.085112    
     24920   1005.9598     -5506.4908     -5306.894       3263.0357      53528.45       65.008395    
     24930   995.99484     -5504.8667     -5307.2471      3773.5887      53493.994      64.934106    
     24940   995.12973     -5505.0802     -5307.6322      4067.6908      53460.971      64.872097    
     24950   1004.9597     -5507.4492     -5308.0508      3968.9297      53429.699      64.831599    
     24960   1004.3855     -5507.826      -5308.5416      3935.3439      53400.2        64.805865    
     24970   1002.2953     -5507.9564     -5309.0867      3934.8282      53372.515      64.780706    
     24980   1021.1665     -5512.348      -5309.734       3742.105       53346.805      64.748278    
     24990   1017.0872     -5512.2953     -5310.4906      3648.4598      53323.043      64.711367    
     25000   1018.229      -5513.3998     -5311.3686      3582.4872      53301.081      64.668223    
     25010   1006.3037     -5511.9902     -5312.3252      3643.0812      53280.718      64.611856    
     25020   991.47247     -5510.0072     -5313.2849      3621.1036      53261.974      64.550742    
     25030   995.73493     -5511.7767     -5314.2087      3408.3091      53244.994      64.498112    
     25040   995.38458     -5512.5912     -5315.0926      3313.3603      53229.796      64.456662    
     25050   985.0038      -5511.3585     -5315.9197      3441.7169      53216.379      64.425059    
     25060   979.04419     -5510.9315     -5316.6751      3610.5222      53204.626      64.393608    
     25070   966.49487     -5509.1023     -5317.3359      3821.0654      53194.244      64.360417    
     25080   959.14073     -5508.1959     -5317.8887      3955.5775      53185.134      64.330233    
     25090   966.07864     -5510.0402     -5318.3563      4021.2013      53177.425      64.314278    
     25100   971.71822     -5511.5709     -5318.7681      4065.8951      53171.158      64.315671    
     25110   963.12282     -5510.2526     -5319.1552      4270.9549      53166.324      64.332861    
     25120   953.04462     -5508.5962     -5319.4985      4371.3558      53163.198      64.367652    
     25130   954.68904     -5509.218      -5319.794       4226.9926      53162.112      64.420631    
     25140   950.36864     -5508.6075     -5320.0408      4063.7885      53163.282      64.482524    
     25150   950.18915     -5508.7844     -5320.2533      3920.9778      53166.776      64.53943     
     25160   958.87267     -5510.6825     -5320.4284      3744.9979      53172.451      64.585127    
     25170   980.77532     -5515.2228     -5320.6229      3439.5638      53180.008      64.632222    
     25180   977.26656     -5514.7778     -5320.8741      3438.3066      53189.122      64.686515    
     25190   967.55118     -5513.1746     -5321.1985      3340.5331      53199.809      64.743572    
     25200   960.43203     -5512.1309     -5321.5674      3103.1751      53212.195      64.801314    
     25210   957.11203     -5511.8617     -5321.957       2921.6574      53226.256      64.861921    
     25220   953.02825     -5511.4574     -5322.3629      2941.2334      53241.777      64.935324    
     25230   947.65385     -5510.796      -5322.7679      3171.7971      53258.625      65.029857    
     25240   949.50774     -5511.5706     -5323.1746      3416.8647      53276.807      65.137991    
     25250   962.57332     -5514.5819     -5323.5936      3536.8993      53296.217      65.250956    
     25260   961.22        -5514.7771     -5324.0573      3608.9962      53316.59       65.366231    
     25270   947.74405     -5512.6121     -5324.5661      3615.7918      53337.816      65.478582    
     25280   946.26972     -5512.8461     -5325.0926      3392.1178      53359.99       65.58159     
     25290   947.57078     -5513.6356     -5325.624       3129.6351      53383.047      65.677155    
     25300   949.15885     -5514.4955     -5326.1688      3087.9372      53406.704      65.775987    
     25310   947.16549     -5514.6764     -5326.7452      3289.9375      53430.864      65.885155    
     25320   943.46269     -5514.5292     -5327.3327      3482.9715      53455.796      66.006889    
     25330   963.28634     -5519.0786     -5327.9488      3222.3691      53481.739      66.145455    
     25340   965.39723     -5520.1765     -5328.6279      2964.6294      53508.316      66.294003    
     25350   949.63911     -5517.78       -5329.358       2813.6786      53534.963      66.434761    
     25360   937.87297     -5516.1779     -5330.0904      2748.7052      53561.412      66.5595      
     25370   938.61669     -5517.0165     -5330.7815      2703.7937      53587.637      66.671464    
     25380   950.92578     -5520.1271     -5331.4498      2624.4         53613.678      66.777133    
     25390   947.7467      -5520.1392     -5332.0926      2712.6019      53639.456      66.86418     
     25400   955.92135     -5522.3906     -5332.7221      2724.9794      53664.87       66.92211     
     25410   965.2311      -5524.8644     -5333.3487      2565.6624      53689.841      66.971069    
     25420   966.20039     -5525.6832     -5333.9752      2358.4076      53714.102      67.023492    
     25430   955.36533     -5524.1609     -5334.6027      2213.9691      53737.397      67.079627    
     25440   934.18852     -5520.531      -5335.1746      2190.5111      53759.689      67.147496    
     25450   919.20286     -5518.0239     -5335.6409      2227.7282      53781.041      67.230851    
     25460   916.55        -5517.8525     -5335.9959      2238.812       53801.591      67.323064    
     25470   918.30813     -5518.4623     -5336.2568      2260.6863      53821.418      67.416806    
     25480   906.26203     -5516.2551     -5336.4398      2342.8424      53840.462      67.506219    
     25490   901.37446     -5515.3857     -5336.5401      2451.2319      53858.663      67.585475    
     25500   902.04006     -5515.5421     -5336.5644      2559.0019      53876.102      67.655091    
     25510   910.47826     -5517.1809     -5336.529       2506.8258      53893.049      67.727857    
     25520   924.8626      -5519.9637     -5336.4578      2233.9936      53909.604      67.817128    
     25530   931.15681     -5521.1598     -5336.4049      1936.9041      53925.566      67.925038    
     25540   931.54956     -5521.2206     -5336.3878      1801.8013      53940.676      68.046916    
     25550   931.44833     -5521.2283     -5336.4156      1704.464       53954.914      68.178273    
     25560   928.34631     -5520.6921     -5336.4949      1674.4635      53968.387      68.313189    
     25570   922.12783     -5519.5715     -5336.6082      1689.6988      53981.129      68.448034    
     25580   916.27236     -5518.5458     -5336.7442      1646.2116      53992.987      68.570775    
     25590   906.54243     -5516.7506     -5336.8796      1716.1955      54003.764      68.66711     
     25600   908.30382     -5517.2205     -5337           1729.5868      54013.391      68.736808    
     25610   921.15835     -5519.8923     -5337.1213      1597.1851      54021.696      68.797513    
     25620   926.21966     -5521.0536     -5337.2783      1640.2555      54028.448      68.861902    
     25630   924.28498     -5520.8928     -5337.5014      1717.8488      54033.615      68.931417    
     25640   906.52837     -5517.6482     -5337.78        1941.5677      54037.338      68.998697    
     25650   891.18349     -5514.8859     -5338.0623      2063.1788      54039.879      69.053902    
     25660   898.3279      -5516.5657     -5338.3246      2026.7913      54041.477      69.098121    
     25670   913.33044     -5519.7979     -5338.58        1937.6424      54042.14       69.136568    
     25680   925.02652     -5522.4291     -5338.8906      1902.8842      54041.667      69.167883    
     25690   930.41378     -5523.9137     -5339.3063      1987.628       54039.948      69.194092    
     25700   932.97855     -5524.9691     -5339.8528      2168.7381      54037.032      69.223268    
     25710   931.6668      -5525.413      -5340.5569      2280.853       54033.089      69.25464     
     25720   934.23827     -5526.791      -5341.4248      2149.9849      54028.311      69.283576    
     25730   933.78768     -5527.7281     -5342.4513      1978.4113      54022.74       69.305971    
     25740   920.51262     -5526.2271     -5343.5842      1903.4114      54016.217      69.325382    
     25750   909.65334     -5525.2119     -5344.7237      1763.1649      54008.497      69.344042    
     25760   904.12309     -5525.1735     -5345.7825      1595.4591      53999.508      69.355494    
     25770   905.13109     -5526.3065     -5346.7155      1465.3751      53989.32       69.365464    
     25780   899.74033     -5526.0333     -5347.512       1376.4466      53977.874      69.38485     
     25790   897.2626      -5526.2025     -5348.1728      1298.0776      53965.174      69.402989    
     25800   891.24731     -5525.5485     -5348.7122      1262.6731      53951.402      69.411215    
     25810   871.80762     -5522.1101     -5349.131       1311.5745      53936.739      69.411894    
     25820   864.41569     -5520.9371     -5349.4247      1186.7904      53921.291      69.41719     
     25830   868.94075     -5522.027      -5349.6167      958.08258      53904.939      69.436269    
     25840   868.12354     -5521.9768     -5349.7287      971.05479      53887.54       69.461112    
     25850   858.77775     -5520.1619     -5349.7681      1220.1033      53869.165      69.480408    
     25860   857.63607     -5519.8945     -5349.7273      1357.2144      53850.035      69.495439    
     25870   862.08513     -5520.6603     -5349.6102      1363.9237      53830.292      69.505483    
     25880   865.95381     -5521.2385     -5349.4209      1320.9355      53809.99       69.497744    
     25890   887.62752     -5525.3119     -5349.1939      1206.5231      53789.188      69.466102    
     25900   905.14451     -5528.5767     -5348.983       1194.4832      53767.788      69.420529    
     25910   906.62375     -5528.7404     -5348.8532      1377.7754      53745.644      69.374942    
     25920   895.66727     -5526.5281     -5348.8149      1646.8155      53722.706      69.334503    
     25930   885.0214      -5524.4396     -5348.8387      1871.527       53698.967      69.303284    
     25940   879.97266     -5523.4841     -5348.885       2034.6494      53674.479      69.278006    
     25950   876.48998     -5522.8451     -5348.9369      2131.4675      53649.428      69.264167    
     25960   882.7527      -5524.1532     -5349.0024      2063.5038      53624.015      69.272308    
     25970   885.94711     -5524.8805     -5349.0959      2149.7377      53598.376      69.295271    
     25980   876.28254     -5523.0875     -5349.2205      2375.2628      53572.846      69.316426    
     25990   876.63864     -5523.3094     -5349.3718      2515.1049      53547.769      69.321635    
     26000   883.3406      -5524.8135     -5349.5461      2503.2191      53523.224      69.30541     
     26010   896.77595     -5527.7252     -5349.792       2528.4576      53499.161      69.270325    
     26020   903.26995     -5529.3735     -5350.1518      2601.7212      53475.498      69.226281    
     26030   902.70855     -5529.7698     -5350.6595      2680.4102      53452.227      69.190445    
     26040   901.05133     -5530.1129     -5351.3314      2720.0672      53429.41       69.168361    
     26050   891.34509     -5528.9967     -5352.1411      2870.334       53407.174      69.159451    
     26060   886.94026     -5529.0465     -5353.0649      2961.1615      53385.76       69.158246    
     26070   878.65378     -5528.3789     -5354.0414      3001.6247      53365.304      69.148698    
     26080   875.34599     -5528.6993     -5355.0182      2969.1844      53345.767      69.116398    
     26090   877.20272     -5530.0042     -5355.9546      2886.9763      53326.898      69.066866    
     26100   882.3831      -5531.9147     -5356.8372      2873.2328      53308.438      69.0183      
     26110   876.35842     -5531.5217     -5357.6397      2965.8146      53290.448      68.987871    
     26120   875.35294     -5532.0476     -5358.365       3052.7547      53273.041      68.984691    
     26130   869.39394     -5531.5049     -5359.0047      3206.0703      53256.247      69.000483    
     26140   878.94181     -5533.9669     -5359.5723      3021.0893      53240.108      69.022958    
     26150   898.67422     -5538.4427     -5360.1329      2694.3957      53224.526      69.0419      
     26160   903.38745     -5540.001      -5360.756       2382.4063      53209.264      69.05103     
     26170   891.95868     -5538.412      -5361.4346      2295.1371      53194.079      69.045664    
     26180   886.41462     -5538.0282     -5362.1508      2281.0161      53178.857      69.026304    
     26190   876.11488     -5536.7098     -5362.8761      2419.3216      53163.6        68.997492    
     26200   872.20212     -5536.6458     -5363.5884      2665.5102      53148.402      68.959872    
     26210   868.70816     -5536.6512     -5364.2871      2875.3174      53133.363      68.921212    
     26220   862.82638     -5536.1624     -5364.9652      2972.1723      53118.654      68.892286    
     26230   858.94687     -5536.0419     -5365.6145      2856.9736      53104.452      68.875973    
     26240   860.90649     -5537.0654     -5366.2493      2642.4638      53090.715      68.863596    
     26250   856.92577     -5536.8911     -5366.8648      2444.8149      53077.332      68.85124     
     26260   862.65598     -5538.6519     -5367.4886      2167.2756      53064.219      68.840085    
     26270   854.6417      -5537.6862     -5368.113       2078.7771      53051.204      68.829369    
     26280   843.21255     -5536.0316     -5368.7262      2174.502       53038.111      68.816419    
     26290   833.72618     -5534.7198     -5369.2966      2351.9884      53024.862      68.800854    
     26300   828.31876     -5534.1449     -5369.7946      2628.0943      53011.508      68.779965    
     26310   836.46109     -5536.2129     -5370.247       2833.3351      52998.221      68.75431     
     26320   828.738       -5535.089      -5370.6555      3087.908       52985.145      68.729397    
     26330   824.24298     -5534.5594     -5371.0178      3168.8986      52972.408      68.708678    
     26340   840.1813      -5538.0513     -5371.3473      2857.7699      52959.981      68.697797    
     26350   849.67694     -5540.2793     -5371.6912      2478.9497      52947.609      68.703313    
     26360   846.60307     -5540.0555     -5372.0774      2236.8916      52935.082      68.721669    
     26370   843.41384     -5539.8486     -5372.5032      2070.6919      52922.291      68.743703    
     26380   848.45236     -5541.3186     -5372.9735      1888.3845      52909.131      68.766826    
     26390   846.76113     -5541.5032     -5373.4936      1794.523       52895.353      68.793941    
     26400   845.39022     -5541.8035     -5374.0659      1757.7016      52880.759      68.82131     
     26410   845.63872     -5542.4696     -5374.6828      1714.0666      52865.257      68.83365     
     26420   844.73785     -5542.9468     -5375.3387      1771.8858      52848.844      68.826872    
     26430   842.19435     -5543.1215     -5376.018       1880.4081      52831.734      68.81807     
     26440   839.71563     -5543.3214     -5376.7098      2125.745       52814.284      68.814269    
     26450   825.82267     -5541.2358     -5377.3808      2506.7047      52796.902      68.808898    
     26460   816.97871     -5540.1024     -5378.0021      2804.6905      52779.967      68.798828    
     26470   806.27317     -5538.5109     -5378.5347      3007.3159      52763.718      68.792226    
     26480   803.82607     -5538.46       -5378.9694      3089.5936      52748.418      68.794758    
     26490   806.37701     -5539.3173     -5379.3205      2913.4236      52734.237      68.804558    
     26500   811.3773      -5540.592      -5379.6032      2634.972       52721.167      68.81719     
     26510   816.6912      -5541.8976     -5379.8544      2345.4277      52709.1        68.832678    
     26520   810.21589     -5540.8326     -5380.0742      2367.7892      52697.98       68.8459      
     26530   818.01688     -5542.589      -5380.2827      2319.3873      52688.021      68.849471    
     26540   821.96588     -5543.5763     -5380.4865      2196.5955      52679.313      68.844561    
     26550   818.61486     -5543.1277     -5380.7028      2048.0803      52671.694      68.829824    
     26560   827.29571     -5545.0939     -5380.9466      1841.3488      52664.948      68.809723    
     26570   828.14657     -5545.5487     -5381.2326      1829.581       52659.024      68.789564    
     26580   824.83057     -5545.2202     -5381.562       1826.2266      52653.955      68.770549    
     26590   832.58004     -5547.1487     -5381.9529      1699.4715      52649.57       68.758443    
     26600   832.61346     -5547.6196     -5382.4172      1634.8623      52645.392      68.758964    
     26610   827.46809     -5547.1322     -5382.9507      1800.2876      52641.076      68.769535    
     26620   819.67424     -5546.1636     -5383.5285      2081.1472      52636.718      68.782968    
     26630   816.50372     -5546.1288     -5384.1228      2263.849       52632.605      68.798312    
     26640   825.6065      -5548.5472     -5384.7351      2189.4612      52628.893      68.81226     
     26650   831.60725     -5550.3794     -5385.3766      2116.4073      52625.475      68.819364    
     26660   830.28524     -5550.795      -5386.0546      2102.0375      52622.195      68.821106    
     26670   814.82172     -5548.4011     -5386.7288      2335.3854      52619.097      68.823281    
     26680   810.00101     -5548.0679     -5387.3521      2578.9323      52616.371      68.823009    
     26690   810.81218     -5548.7871     -5387.9104      2714.4756      52614.155      68.814862    
     26700   810.36354     -5549.1984     -5388.4106      2770.6616      52612.478      68.803588    
     26710   811.66483     -5549.9169     -5388.8709      2773.6252      52611.334      68.802558    
     26720   804.04778     -5548.8245     -5389.2899      2842.8332      52610.765      68.820665    
     26730   798.56435     -5548.1202     -5389.6736      2843.2726      52610.914      68.858587    
     26740   791.67233     -5547.0835     -5390.0044      2807.8349      52611.96       68.910967    
     26750   793.87335     -5547.8057     -5390.2898      2715.517       52614.033      68.960931    
     26760   799.84467     -5549.2544     -5390.5538      2620.1066      52617.01       69.001453    
     26770   801.19416     -5549.7913     -5390.8229      2534.3099      52620.493      69.040151    
     26780   797.9997      -5549.4309     -5391.0963      2589.358       52624.08       69.081605    
     26790   795.62145     -5549.2478     -5391.3851      2709.1252      52627.691      69.119045    
     26800   796.567       -5549.7345     -5391.6842      2817.6916      52631.566      69.15264     
     26810   799.38016     -5550.6101     -5392.0016      2878.727       52635.939      69.186734    
     26820   806.25472     -5552.3273     -5392.3548      2899.5698      52640.931      69.217297    
     26830   809.84888     -5553.4556     -5392.7699      2840.6591      52646.706      69.242777    
     26840   803.68682     -5552.7158     -5393.2528      2739.4621      52653.436      69.269533    
     26850   795.36732     -5551.5963     -5393.784       2585.521       52661.105      69.305908    
     26860   789.26995     -5550.9298     -5394.3273      2394.607       52669.461      69.354506    
     26870   782.17134     -5550.0626     -5394.8686      2334.3732      52678.165      69.411265    
     26880   765.72569     -5547.2999     -5395.369       2442.8887      52686.983      69.466607    
     26890   759.15849     -5546.421      -5395.7931      2473.4025      52695.829      69.508291    
     26900   772.35169     -5549.3925     -5396.1468      2231.7671      52704.6        69.534273    
     26910   788.42907     -5552.9059     -5396.4703      1883.324       52712.934      69.556612    
     26920   797.46029     -5555.0515     -5396.824       1618.4649      52720.56       69.587087    
     26930   799.7812      -5555.9249     -5397.2369      1464.9402      52727.573      69.629908    
     26940   799.89732     -5556.4222     -5397.7112      1383.1436      52734.175      69.678563    
     26950   798.14545     -5556.6123     -5398.2488      1352.973       52740.53       69.717306    
     26960   790.02528     -5555.5807     -5398.8284      1383.6931      52746.864      69.746749    
     26970   779.66596     -5554.1122     -5399.4153      1393.9965      52753.322      69.779064    
     26980   768.07093     -5552.3712     -5399.9749      1492.9999      52759.922      69.814416    
     26990   759.28631     -5551.1111     -5400.4578      1576.73        52766.646      69.84673     
     27000   765.30358     -5552.722      -5400.8749      1579.3626      52773.425      69.876548    
     27010   765.09199     -5553.0414     -5401.2362      1645.4553      52780.05       69.908067    
     27020   759.02533     -5552.1544     -5401.5529      1719.9653      52786.361      69.94108     
     27030   760.28074     -5552.6755     -5401.8249      1735.1628      52792.246      69.970262    
     27040   770.13654     -5554.8743     -5402.0681      1667.9224      52797.615      69.993259    
     27050   780.3861      -5557.1605     -5402.3207      1508.985       52802.405      70.007499    
     27060   784.87528     -5558.3474     -5402.6169      1332.7592      52806.429      70.010748    
     27070   785.13944     -5558.759      -5402.9761      1050.2281      52809.546      70.005107    
     27080   773.33288     -5556.824      -5403.3837      958.23565      52811.698      69.996247    
     27090   765.60156     -5555.7078     -5403.8014      985.90206      52812.901      69.994267    
     27100   761.39578     -5555.2822     -5404.2104      1086.2988      52813.236      70.007041    
     27110   761.84638     -5555.777      -5404.6157      1234.1236      52812.767      70.02813     
     27120   765.23502     -5556.8467     -5405.0131      1342.3163      52811.52       70.050707    
     27130   766.29017     -5557.4586     -5405.4157      1392.4695      52809.539      70.073937    
     27140   767.98639     -5558.2145     -5405.835       1408.9055      52806.891      70.097037    
     27150   768.3891      -5558.7308     -5406.2714      1421.1633      52803.645      70.109788    
     27160   766.68038     -5558.851      -5406.7306      1490.0138      52799.947      70.101074    
     27170   755.86143     -5557.1635     -5407.1897      1630.2652      52795.994      70.07973     
     27180   748.36989     -5556.1124     -5407.6251      1717.0899      52791.938      70.060767    
     27190   751.31403     -5557.0975     -5408.0261      1738.8376      52787.815      70.043186    
     27200   758.81608     -5558.9681     -5408.4082      1653.6037      52783.618      70.030531    
     27210   761.79279     -5559.9529     -5408.8023      1660.9011      52779.271      70.030678    
     27220   755.12139     -5559.0315     -5409.2046      1751.2338      52774.72       70.042769    
     27230   745.82291     -5557.585      -5409.603       1848.3739      52769.954      70.062919    
     27240   745.698       -5557.931      -5409.9739      1833.3308      52764.987      70.086833    
     27250   742.5187      -5557.6483     -5410.322       1819.165       52759.81       70.111291    
     27260   726.17883     -5554.7157     -5410.6314      1875.4517      52754.432      70.131236    
     27270   733.03766     -5556.3365     -5410.8914      1752.8027      52748.848      70.138783    
     27280   746.4072      -5559.223      -5411.1251      1568.1792      52742.997      70.140339    
     27290   748.00367     -5559.7826     -5411.368       1582.1036      52736.812      70.142336    
     27300   744.48957     -5559.3571     -5411.6397      1749.0171      52730.289      70.143221    
     27310   739.7731      -5558.6986     -5411.917       1846.8344      52723.412      70.139604    
     27320   745.12464     -5560.0554     -5412.212       1845.2801      52716.009      70.128203    
     27330   744.85927     -5560.3162     -5412.5254      1882.5389      52707.939      70.109726    
     27340   742.87122     -5560.2631     -5412.8668      1897.0158      52699.268      70.086861    
     27350   743.7504      -5560.8029     -5413.2321      1814.1896      52690.162      70.069056    
     27360   749.34689     -5562.3094     -5413.6283      1759.6538      52680.725      70.07598     
     27370   750.45365     -5562.9672     -5414.0664      1834.3156      52670.978      70.116804    
     27380   748.24905     -5563.014      -5414.5507      1961.9252      52660.977      70.176279    
     27390   753.23312     -5564.5265     -5415.0742      1854.4412      52650.868      70.237752    
     27400   748.24528     -5564.101      -5415.6384      1801.1139      52640.753      70.290575    
     27410   734.91986     -5562.0245     -5416.2059      1868.9496      52630.729      70.329877    
     27420   725.46678     -5560.6758     -5416.7328      1998.7863      52620.971      70.356488    
     27430   718.76326     -5559.8009     -5417.188       2141.0318      52611.767      70.37373     
     27440   718.96704     -5560.2253     -5417.572       2117.7603      52603.362      70.389768    
     27450   723.4789      -5561.451      -5417.9025      1979.0249      52595.752      70.408874    
     27460   728.34963     -5562.7222     -5418.2072      1855.5028      52588.838      70.429814    
     27470   725.5755      -5562.464      -5418.4994      1843.9352      52582.562      70.447971    
     27480   728.09112     -5563.2528     -5418.7891      1865.8639      52576.811      70.463393    
     27490   730.71071     -5564.0709     -5419.0875      1932.4849      52571.459      70.47411     
     27500   727.63477     -5563.7725     -5419.3993      2041.8966      52566.407      70.476172    
     27510   727.2261      -5564.0178     -5419.7257      2117.6221      52561.589      70.466883    
     27520   731.6165      -5565.2417     -5420.0785      2007.8832      52557.038      70.445801    
     27530   731.72074     -5565.6467     -5420.4629      1913.5512      52552.839      70.420425    
     27540   727.6867      -5565.2648     -5420.8813      1763.4667      52549.17       70.397981    
     27550   723.79519     -5564.9341     -5421.3227      1606.0251      52546.026      70.380328    
     27560   715.86279     -5563.8113     -5421.7738      1457.1933      52543.238      70.372167    
     27570   705.04958     -5562.0945     -5422.2025      1359.0648      52540.639      70.371515    
     27580   706.90978     -5562.8613     -5422.6003      1264.9242      52538.153      70.37072     
     27590   710.98208     -5564.0376     -5422.9686      1310.8544      52535.833      70.365694    
     27600   721.86457     -5566.571      -5423.3428      1419.5186      52533.755      70.352271    
     27610   722.0496      -5567.0083     -5423.7433      1603.3999      52531.922      70.335636    
     27620   716.94975     -5566.4297     -5424.1766      1745.7339      52530.302      70.317552    
     27630   708.40424     -5565.171      -5424.6135      1840.7492      52528.795      70.297302    
     27640   713.93438     -5566.7029     -5425.0481      1669.189       52527.298      70.283326    
     27650   725.52792     -5569.4583     -5425.5031      1456.962       52525.685      70.281686    
     27660   734.2747      -5571.7061     -5426.0154      1327.0388      52523.934      70.290401    
     27670   726.88386     -5570.8129     -5426.5887      1554.0904      52522.18       70.303675    
[...]
     48200   461.48667     -5644.8204     -5553.2549      71.729781      52278.633      97.569599    
     48210   456.44903     -5643.8522     -5553.2861      116.47125      52270.738      97.593434    
     48220   449.68764     -5642.5664     -5553.3419      135.93749      52263.91       97.617453    
     48230   444.87663     -5641.6681     -5553.3982      190.06474      52258.381      97.642594    
     48240   440.85829     -5640.9031     -5553.4305      281.08652      52254.589      97.670734    
     48250   441.83348     -5641.0972     -5553.4311      295.52493      52253.197      97.703449    
     48260   447.22459     -5642.1343     -5553.3985      226.78992      52254.272      97.741238    
     48270   450.39052     -5642.7202     -5553.3563      157.59452      52257.257      97.781268    
     48280   449.99027     -5642.5928     -5553.3083      79.143686      52261.513      97.820472    
     48290   452.84182     -5643.1143     -5553.264      -40.735868      52266.356      97.858119    
     48300   451.80467     -5642.8685     -5553.224      -159.91974      52270.779      97.896871    
     48310   448.91783     -5642.2588     -5553.1871     -249.53575      52273.82       97.938721    
     48320   446.19686     -5641.6732     -5553.1414     -324.76125      52274.757      97.97662     
     48330   446.0182      -5641.5677     -5553.0714     -350.0045       52272.961      98.001925    
     48340   449.50409     -5642.1716     -5552.9836     -337.4154       52268.233      98.014933    
     48350   451.77232     -5642.521      -5552.8829     -295.21825      52260.719      98.02342     
     48360   450.88507     -5642.2397     -5552.7777     -148.79502      52250.876      98.033481    
     48370   451.98877     -5642.3492     -5552.6682     -50.534907      52239.851      98.04801     
     48380   456.75882     -5643.1842     -5552.5567     -22.478299      52228.475      98.066431    
     48390   459.67725     -5643.6643     -5552.4578      25.302253      52217.058      98.087289    
     48400   459.06948     -5643.4706     -5552.3846      109.40841      52206.017      98.110733    
     48410   456.70521     -5642.9583     -5552.3414      218.66485      52196.038      98.133053    
     48420   456.99382     -5642.9963     -5552.3222      300.33299      52188.003      98.149008    
     48430   458.84591     -5643.375      -5552.3334      322.48107      52182.577      98.153479    
     48440   461.82718     -5644.0177     -5552.3846      288.3521       52179.926      98.144528    
     48450   465.94028     -5644.9519     -5552.5027      185.13732      52179.702      98.126856    
     48460   465.02155     -5644.9724     -5552.7055      124.0747       52181.086      98.116038    
     48470   460.00317     -5644.2711     -5552.9999      118.07966      52183.548      98.122753    
     48480   454.36745     -5643.5266     -5553.3736      122.7313       52186.977      98.139819    
     48490   445.57918     -5642.2061     -5553.7968      172.3612       52191.426      98.158714    
     48500   437.30488     -5640.995      -5554.2274      316.1795       52197.389      98.180794    
     48510   434.51964     -5640.843      -5554.6281      381.33869      52205.913      98.213297    
     48520   438.14537     -5641.9277     -5554.9934      352.05885      52217.543      98.262374    
     48530   442.27336     -5643.0743     -5555.321       278.78672      52232.07       98.328005    
     48540   442.99731     -5643.5237     -5555.6267      164.79496      52248.82       98.406273    
     48550   440.23997     -5643.2542     -5555.9042      92.654863      52266.864      98.493458    
     48560   442.40977     -5643.928      -5556.1475      16.263323      52285.528      98.588359    
     48570   445.43849     -5644.7443     -5556.3629     -60.039453      52304.16       98.685792    
     48580   444.2809      -5644.7106     -5556.5589     -57.254181      52322.197      98.777446    
     48590   444.99725     -5645.0281     -5556.7342     -86.800078      52339.572      98.857233    
     48600   446.40516     -5645.4628     -5556.8896     -189.27021      52355.995      98.920197    
     48610   449.16608     -5646.1578     -5557.0369     -284.09327      52370.661      98.963192    
     48620   449.80823     -5646.4376     -5557.1892     -357.48872      52382.771      98.99125     
     48630   447.39031     -5646.1146     -5557.346      -394.70421      52391.727      99.014843    
     48640   448.68615     -5646.5317     -5557.506      -434.53654      52397.225      99.044928    
     48650   450.26152     -5647.0111     -5557.6728     -515.63951      52398.901      99.086353    
     48660   446.50282     -5646.4442     -5557.8517     -543.86235      52396.177      99.136899    
     48670   437.42243     -5644.8186     -5558.0277     -521.94195      52388.825      99.189151    
     48680   431.76601     -5643.8372     -5558.1686     -514.66559      52377.019      99.229459    
     48690   435.16785     -5644.6007     -5558.2572     -578.49189      52360.79       99.243883    
     48700   439.4849      -5645.4965     -5558.2964     -542.16374      52339.788      99.230009    
     48710   439.81686     -5645.5605     -5558.2946     -355.8424       52314.399      99.197656    
     48720   438.72328     -5645.2947     -5558.2457     -104.26041      52286.157      99.161077    
     48730   437.67879     -5644.9753     -5558.1336      154.09527      52257.217      99.130283    
     48740   443.16419     -5645.8813     -5557.9512      261.54102      52229.658      99.110737    
     48750   447.0344      -5646.3933     -5557.6953      307.55137      52204.482      99.105485    
     48760   450.30253     -5646.7229     -5557.3764      279.41556      52182.038      99.11472     
     48770   459.54028     -5648.1826     -5557.0032      101.61792      52162.005      99.133855    
     48780   470.39484     -5649.9448     -5556.6118     -78.407294      52142.962      99.15245     
     48790   480.46655     -5651.5807     -5556.2492     -186.77001      52123.367      99.160815    
     48800   482.8015      -5651.7671     -5555.9724     -158.18653      52102.386      99.15832     
     48810   471.59465     -5649.379      -5555.8079      32.39431       52080.301      99.151327    
     48820   460.08125     -5647.006      -5555.7193      175.24951      52058.569      99.143804    
     48830   458.20044     -5646.5896     -5555.6761      122.8527       52038.282      99.133311    
     48840   456.37953     -5646.2142     -5555.662       15.822187      52019.108      99.115297    
     48850   452.79363     -5645.5195     -5555.6788     -70.013711      52000.175      99.08947     
     48860   452.51365     -5645.4979     -5555.7127     -125.06786      51980.731      99.057432    
     48870   452.76839     -5645.5957     -5555.76       -156.11813      51960.313      99.019321    
     48880   452.39175     -5645.5851     -5555.8241     -146.58833      51938.687      98.976687    
     48890   452.3813      -5645.6678     -5555.9089     -49.933724      51916.005      98.932487    
     48900   450.65059     -5645.4287     -5556.0132      68.557218      51892.985      98.888659    
     48910   446.4258      -5644.7095     -5556.1322      236.73646      51870.676      98.845952    
     48920   446.36076     -5644.8175     -5556.2531      306.29595      51850.402      98.803379    
     48930   447.76783     -5645.2152     -5556.3717      318.44136      51832.753      98.76141     
     48940   445.40096     -5644.8582     -5556.4842      389.31363      51817.879      98.720953    
     48950   444.05296     -5644.6912     -5556.5847      436.60178      51806.313      98.680723    
     48960   440.99216     -5644.1638     -5556.6647      497.8113       51798.504      98.638662    
     48970   438.21186     -5643.6584     -5556.7109      543.06327      51794.922      98.597415    
     48980   438.3096      -5643.6874     -5556.7205      499.997        51795.856      98.564249    
     48990   435.78604     -5643.1399     -5556.6737      420.16706      51800.942      98.545337    
     49000   434.70117     -5642.8143     -5556.5634      360.76738      51809.576      98.540676    
     49010   441.24764     -5643.9335     -5556.3836      202.92224      51821.096      98.546073    
     49020   447.26593     -5644.8864     -5556.1424      88.327799      51834.294      98.560611    
     49030   450.65011     -5645.2797     -5555.8642     -14.726119      51848.142      98.587506    
     49040   454.36923     -5645.7177     -5555.5643     -73.425975      51861.804      98.626246    
     49050   459.97757     -5646.5266     -5555.2605     -83.219836      51874.781      98.67089     
     49060   463.40524     -5646.9207     -5554.9744     -73.033749      51886.967      98.715278    
     49070   461.42434     -5646.2787     -5554.7255      25.058038      51898.532      98.757408    
     49080   455.8533      -5644.9596     -5554.5118      142.20927      51910.24       98.797783    
     49090   449.54836     -5643.5149     -5554.3181      239.50349      51923.069      98.836936    
     49100   449.06858     -5643.2183     -5554.1166      214.63612      51937.747      98.875121    
     49110   453.05534     -5643.7958     -5553.9031      113.6687       51954.093      98.912378    
     49120   453.42085     -5643.6489     -5553.6837      66.320357      51971.323      98.948363    
     49130   449.86019     -5642.7253     -5553.4666      91.920514      51989.085      98.983814    
     49140   446.6894      -5641.8662     -5553.2366      126.75779      52007.548      99.019295    
     49150   448.77548     -5642.0288     -5552.9853      97.991056      52026.902      99.056306    
     49160   453.80251     -5642.7513     -5552.7104      13.875734      52046.929      99.095612    
     49170   452.67855     -5642.2507     -5552.4328      31.073916      52067.058      99.1381      
     49180   447.96261     -5641.0305     -5552.1483      141.76439      52087.403      99.186509    
     49190   446.34266     -5640.4098     -5551.849       267.57858      52108.861      99.240622    
     49200   446.29358     -5640.0681     -5551.5171      373.46787      52132.468      99.299483    
     49210   450.6994      -5640.5826     -5551.1574      386.98876      52159.047      99.364139    
     49220   454.70976     -5641.0012     -5550.7803      308.09662      52188.698      99.434751    
     49230   459.18581     -5641.5161     -5550.4071      162.39495      52220.814      99.507995    
     49240   462.53603     -5641.8336     -5550.0598     -19.077945      52254.159      99.577945    
     49250   462.22881     -5641.4663     -5549.7535     -144.87991      52287.201      99.64235     
     49260   460.20232     -5640.8009     -5549.4902     -208.96246      52318.844      99.701929    
     49270   459.6648      -5640.475      -5549.2709     -245.2083       52348.555      99.757458    
     49280   458.76508     -5640.1106     -5549.085      -305.16682      52375.972      99.811993    
     49290   456.51903     -5639.5133     -5548.9334     -337.50217      52400.633      99.865402    
     49300   455.21345     -5639.1229     -5548.8021     -390.13591      52422.225      99.912904    
     49310   453.98655     -5638.7629     -5548.6855     -412.45184      52440.347      99.950559    
     49320   453.19827     -5638.5033     -5548.5823     -351.72847      52454.91       99.975883    
     49330   452.20287     -5638.2114     -5548.4879     -260.79824      52466.416      99.988126    
     49340   454.95967     -5638.6674     -5548.3968     -221.05414      52475.594      99.988742    
     49350   462.13295     -5640.015      -5548.3212     -261.53632      52482.753      99.980654    
     49360   466.46787     -5640.8419     -5548.288      -324.55181      52487.615      99.968811    
     49370   466.18098     -5640.8126     -5548.3156     -340.6143       52489.719      99.955823    
     49380   470.36512     -5641.7611     -5548.4339     -425.70629      52488.802      99.941898    
     49390   470.27595     -5641.9783     -5CHGNet v0.3.0 initialized with 412,525 parameters
CHGNet will run on cuda:0
CHGNet will run on cuda:0
548.6688     -463.18333      52484.259      99.926588    
     49400   465.22107     -5641.3586     -5549.0521     -428.13927      52475.811      99.910323    
     49410   459.2641      -5640.7115     -5549.587      -450.2394       52463.654      99.892001    
     49420   451.49409     -5639.837      -5550.2541     -500.8458       52447.674      99.869802    
     49430   444.97798     -5639.291      -5551.001      -626.41696      52427.396      99.842381    
     49440   438.7533      -5638.8083     -5551.7534     -749.53125      52401.816      99.804782    
     49450   435.49333     -5638.8483     -5552.4402     -814.72654      52369.949      99.755149    
     49460   437.2733      -5639.7839     -5553.0226     -834.05268      52331.283      99.695383    
     49470   441.24219     -5641.0547     -5553.5059     -795.72628      52285.712      99.62453     
     49480   445.73654     -5642.3459     -5553.9054     -689.05906      52233.652      99.541298    
     49490   448.79586     -5643.2904     -5554.2429     -562.24991      52176.03       99.447599    
     49500   448.99953     -5643.6193     -5554.5313     -411.27064      52114.026      99.347389    
     49510   448.92751     -5643.8562     -5554.7826     -264.25794      52049.006      99.243593    
     49520   451.59163     -5644.6022     -5554.9999     -89.274143      51982.321      99.137478    
     49530   457.16906     -5645.9103     -5555.2014      79.937525      51915.445      99.031169    
     49540   462.24994     -5647.1268     -5555.4098      262.73255      51849.904      98.92413     
     49550   464.39974     -5647.7856     -5555.6421      495.46849      51787.357      98.81563     
     49560   462.7053      -5647.7131     -5555.9058      742.88987      51729.732      98.706679    
     49570   460.5454      -5647.5787     -5556.1999      927.09922      51678.971      98.598271    
     49580   463.02715     -5648.387      -5556.5157      1046.2807      51636.526      98.497191    
     49590   463.87028     -5648.9037     -5556.8652      1119.7379      51603.279      98.417697    
     49600   457.661       -5648.0464     -5557.2399      1260.1456      51579.845      98.370389    
     49610   449.85015     -5646.8668     -5557.6101      1347.9676      51567.138      98.356483    
     49620   446.34457     -5646.5153     -5557.9541      1359.5976      51565.726      98.369995    
     49630   445.2632      -5646.609      -5558.2624      1276.5627      51575.541      98.405686    
     49640   443.03717     -5646.438      -5558.5331      1137.4988      51595.767      98.462221    
     49650   442.32678     -5646.5219     -5558.7579      995.31497      51625.209      98.538228    
     49660   443.90988     -5647.0195     -5558.9415      796.20053      51662.477      98.628539    
     49670   446.25997     -5647.6307     -5559.0864      586.67535      51705.85       98.725165    
     49680   448.88526     -5648.2753     -5559.21        416.90474      51753.58       98.822247    
     49690   445.31864     -5647.6772     -5559.3196      334.96139      51804.183      98.917939    
     49700   434.85063     -5645.6785     -5559.3979      306.38423      51856.896      99.012664    
     49710   429.9366      -5644.7256     -5559.42        148.33697      51911.305      99.105142    
     49720   432.30069     -5645.1376     -5559.3629     -77.206484      51966.132      99.19461     
     49730   433.87031     -5645.317      -5559.2309     -252.27616      52019.551      99.285285    
     49740   434.24078     -5645.1936     -5559.034      -374.88156      52070.054      99.379708    
     49750   434.79124     -5645.0431     -5558.7743     -499.29344      52116.563      99.475556    
     49760   432.91541     -5644.3524     -5558.4558     -512.8697       52158.192      99.566437    
     49770   435.73636     -5644.5392     -5558.0828     -506.48987      52194.812      99.645777    
     49780   441.26624     -5645.2148     -5557.6613     -509.31329      52226.5        99.709145    
     49790   445.34118     -5645.5796     -5557.2175     -478.88787      52253.364      99.754931    
     49800   450.48739     -5646.1655     -5556.7824     -476.81922      52275.679      99.785989    
     49810   452.38968     -5646.141      -5556.3804     -442.19401      52293.569      99.806448    
     49820   453.17466     -5645.9451     -5556.0287     -395.83915      52307.437      99.822222    
     49830   459.96574     -5646.9979     -5555.7341     -426.97733      52317.64       99.838941    
     49840   461.9513      -5647.1726     -5555.5149     -371.98042      52324.1        99.852753    
     49850   455.1693      -5645.6741     -5555.362      -261.30039      52327.323      99.858653    
     49860   450.17418     -5644.5732     -5555.2522     -208.57363      52328.237      99.856617    
     49870   447.40441     -5643.9302     -5555.1587     -245.24968      52327.281      99.847502    
     49880   443.74556     -5643.1095     -5555.064      -271.68417      52324.249      99.83148     
     49890   443.53144     -5642.9612     -5554.9582     -298.6831       52318.94       99.809027    
     49900   443.65811     -5642.8696     -5554.8415     -322.14614      52311.163      99.782821    
     49910   440.2037      -5642.0552     -5554.7125     -245.02521      52300.854      99.758425    
     49920   438.79359     -5641.6282     -5554.5652     -127.19087      52288.681      99.740687    
     49930   445.00482     -5642.6913     -5554.396      -59.299523      52275.58       99.733623    
     49940   451.97144     -5643.902      -5554.2244     -8.6097659      52262.164      99.737739    
     49950   453.85789     -5644.1213     -5554.0694      104.87202      52248.985      99.748594    
     49960   455.68031     -5644.3561     -5553.9426      187.88561      52236.916      99.761937    
     49970   459.21194     -5644.9633     -5553.849       242.79822      52226.669      99.773324    
     49980   460.12352     -5645.094      -5553.7989      251.68634      52218.638      99.77913     
     49990   457.10786     -5644.4883     -5553.7915      175.01525      52212.78       99.779054    
     50000   451.47291     -5643.3893     -5553.8106      135.17692      52208.552      99.773915    
Loop time of 5766.22 on 1 procs for 20000 steps with 1536 atoms

Performance: 0.300 ns/day, 80.086 hours/ns, 3.468 timesteps/s, 5.328 katom-step/s
133.1% CPU use with 1 MPI tasks x 1 OpenMP threads

MPI task timing breakdown:
Section |  min time  |  avg time  |  max time  |%varavg| %total
---------------------------------------------------------------
Pair    | 5736       | 5736       | 5736       |   0.0 | 99.48
Bond    | 0.047699   | 0.047699   | 0.047699   |   0.0 |  0.00
Neigh   | 4.8515     | 4.8515     | 4.8515     |   0.0 |  0.08
Comm    | 0.70947    | 0.70947    | 0.70947    |   0.0 |  0.01
Output  | 22.781     | 22.781     | 22.781     |   0.0 |  0.40
Modify  | 1.575      | 1.575      | 1.575      |   0.0 |  0.03
Other   |            | 0.2482     |            |       |  0.00

Nlocal:           1536 ave        1536 max        1536 min
Histogram: 1 0 0 0 0 0 0 0 0 0
Nghost:           2449 ave        2449 max        2449 min
Histogram: 1 0 0 0 0 0 0 0 0 0
Neighs:              0 ave           0 max           0 min
Histogram: 1 0 0 0 0 0 0 0 0 0
FullNghs:        44520 ave       44520 max       44520 min
Histogram: 1 0 0 0 0 0 0 0 0 0

Total # of neighbors = 44520
Ave neighs/atom = 28.984375
Ave special neighs/atom = 0
Neighbor list builds = 2000
Dangerous builds = 2000
System init for write_data ...
System init for write_restart ...
Total wall time: 2:26:24
