LAMMPS (29 Sep 2021 - Update 3)
OMP_NUM_THREADS environment is not set. Defaulting to 1 thread. (src/comm.cpp:98)
  using 1 OpenMP thread(s) per MPI task
units	metal
atom_style	full

read_data	mixed.data
Reading data file ...
  orthogonal box = (0.0000000 0.0000000 0.0000000) to (16.534670 17.767358 74.594796)
  1 by 2 by 8 MPI processor grid
  reading atoms ...
  864 atoms
Finding 1-2 1-3 1-4 neighbors ...
  special bond factors lj:    0        0        0       
  special bond factors coul:  0        0        0       
     0 = max # of 1-2 neighbors
     0 = max # of 1-3 neighbors
     0 = max # of 1-4 neighbors
     1 = max # of special neighbors
  special bonds CPU = 0.002 seconds
  read_data CPU = 0.025 seconds

pair_style	quip
pair_coeff	* * /ocean/projects/cts180021p/wuziqi/clease/mint-PD/PhaseDiagram-Clease/Liquid/GAP_potential/gap_LiKCl.xml "Potential xml_label=GAP_2021_9_27_0_1_17_37_618" 17 19 3

neighbor	0.3 bin
neigh_modify	delay 10

timestep	0.001
compute	msd all msd
thermo_style	custom step temp pe etotal press vol c_msd[4]
thermo	10
dump	1 all custom 10 xyz-mix.dump type id x y z
dump	2 all custom 10 force-mix.dump type id fx fy fz

fix     1 all nve
run     2000
Neighbor list info ...
  update every 1 steps, delay 10 steps, check yes
  max neighbors/atom: 2000, page size: 100000
  master list distance cutoff = 6.22
  ghost atom cutoff = 6.22
  binsize = 3.11, bins = 6 6 24
  1 neighbor lists, perpetual/occasional/extra = 1 0 0
  (1) pair quip, perpetual
      attributes: full, newton on
      pair build: full/bin
      stencil: full/bin/3d
      bin: standard
Per MPI rank memory allocation (min/avg/max) = 8.894 | 8.906 | 8.915 Mbytes
Step Temp PotEng TotEng Press Volume c_msd[4] 
       0            0   -8413.4292   -8413.4292   -12531.916    21914.265            0 
      10    63.367096   -8420.5059   -8413.4372   -13062.757    21914.265 0.00028900792 
      20    162.23389   -8431.5423   -8413.4448   -13580.932    21914.265 0.0035442006 
      30    203.76318   -8436.1707   -8413.4406   -13263.999    21914.265  0.011998633 
      40     225.5427      -8438.6   -8413.4404   -13091.981    21914.265  0.023619499 
      50    238.39464   -8440.0352   -8413.4419   -13192.953    21914.265  0.036411648 
      60    237.91747   -8439.9798   -8413.4397    -13151.82    21914.265  0.049420327 
      70    242.25882   -8440.4649   -8413.4405   -12986.142    21914.265  0.062561747 
      80    243.33226   -8440.5825   -8413.4384   -12841.846    21914.265  0.075987004 
      90     256.1439    -8442.014   -8413.4408   -12985.089    21914.265  0.088683986 
     100    260.92723   -8442.5467   -8413.4399   -13129.532    21914.265   0.10092572 
     110    263.36735   -8442.8185   -8413.4395   -13314.209    21914.265   0.11296329 
     120    267.45703   -8443.2754   -8413.4402   -13403.997    21914.265   0.12509928 
     130    267.20277   -8443.2463   -8413.4395   -13198.457    21914.265   0.13819283 
     140    269.21359   -8443.4705   -8413.4393   -12839.711    21914.265   0.15259322 
     150     276.3754   -8444.2699   -8413.4398   -12564.061    21914.265   0.16775295 
     160    282.09052   -8444.9077   -8413.4401   -12400.914    21914.265   0.18315323 
     170    283.74907   -8445.0928   -8413.4402     -12430.3    21914.265    0.1989762 
     180    279.57367   -8444.6271   -8413.4402   -12727.353    21914.265   0.21536827 
     190    272.01519   -8443.7829   -8413.4391   -12943.608    21914.265   0.23180139 
     200    272.98877   -8443.8921   -8413.4397   -13066.814    21914.265    0.2476891 
     210    278.28656   -8444.4833     -8413.44   -13119.162    21914.265   0.26290373 
     220    281.61115   -8444.8543   -8413.4402    -13052.65    21914.265   0.27743582 
     230    283.45537   -8445.0589    -8413.439   -12948.839    21914.265   0.29133107 
     240    292.81696   -8446.1046   -8413.4404   -13016.029    21914.265    0.3048675 
     250    295.20203   -8446.3705   -8413.4402   -13077.887    21914.265   0.31931215 
     260    290.46684   -8445.8415   -8413.4394   -13040.528    21914.265   0.33532684 
     270    290.61991    -8445.858   -8413.4389   -13235.455    21914.265   0.35239777 
     280    301.25443   -8447.0456   -8413.4402   -13515.282    21914.265   0.36952956 
     290    308.28623   -8447.8304   -8413.4406   -13611.572    21914.265   0.38667041 
     300    309.20907   -8447.9319   -8413.4392   -13455.868    21914.265    0.4041006 
     310     314.5316   -8448.5273   -8413.4408   -13198.597    21914.265   0.42152557 
     320    312.09261   -8448.2546   -8413.4402   -12968.083    21914.265   0.43866959 
     330    305.84421   -8447.5573   -8413.4399   -12657.381    21914.265   0.45536472 
     340    303.20988   -8447.2632   -8413.4397   -12498.026    21914.265   0.47172581 
     350    307.13857   -8447.7018     -8413.44   -12492.368    21914.265   0.48754232 
     360    312.15901   -8448.2619   -8413.4401   -12369.505    21914.265   0.50223919 
     370     318.6847   -8448.9898     -8413.44   -12195.898    21914.265   0.51545083 
     380    326.66636   -8449.8808   -8413.4407   -12030.164    21914.265   0.52751087 
     390    328.67292   -8450.1043   -8413.4403   -11786.931    21914.265   0.53983918 
     400    329.42172   -8450.1875     -8413.44   -11529.418    21914.265   0.55338123 
     410    329.12824   -8450.1558   -8413.4411   -11363.621    21914.265   0.56856317 
     420    321.17839   -8449.2675   -8413.4396   -11329.503    21914.265   0.58578319 
     430    319.73313   -8449.1067     -8413.44   -11645.546    21914.265   0.60460993 
     440    321.87014   -8449.3455   -8413.4404   -12168.872    21914.265   0.62482739 
     450    321.69175   -8449.3257   -8413.4405   -12517.526    21914.265   0.64605131 
     460    321.58625   -8449.3131   -8413.4397   -12738.117    21914.265   0.66602281 
     470    327.73765   -8450.0009   -8413.4413    -13118.13    21914.265   0.68222539 
     480    325.78012   -8449.7811   -8413.4399   -13518.975    21914.265   0.69547134 
     490    325.26696   -8449.7242   -8413.4402   -13912.333    21914.265   0.70709849 
     500    326.02809   -8449.8096   -8413.4407    -14245.82    21914.265    0.7181905 
     510     321.8067   -8449.3384   -8413.4404   -14358.421    21914.265   0.73031831 
     520    314.82643   -8448.5595   -8413.4401   -14393.561    21914.265   0.74493886 
     530    311.55922   -8448.1945   -8413.4396    -14504.26    21914.265   0.76206346 
     540    316.52181   -8448.7487   -8413.4402   -14692.451    21914.265   0.78048733 
     550    323.45997   -8449.5224     -8413.44   -14675.954    21914.265   0.79880458 
     560    332.20295   -8450.4987   -8413.4409    -14432.97    21914.265   0.81596428 
     570    332.37528   -8450.5179   -8413.4409   -14008.452    21914.265   0.83234674 
     580    324.44532    -8449.632   -8413.4397   -13682.622    21914.265   0.84880328 
     590    322.54654   -8449.4211   -8413.4405   -13611.186    21914.265   0.86493346 
     600    320.03229     -8449.14   -8413.4399   -13618.158    21914.265   0.88136827 
     610     322.0694   -8449.3667   -8413.4393   -13770.866    21914.265   0.89972436 
     620    332.97088   -8450.5844    -8413.441   -14040.679    21914.265   0.91979176 
     630    336.52886   -8450.9806   -8413.4403   -14106.634    21914.265    0.9400978 
     640    340.63169   -8451.4378   -8413.4399   -14084.373    21914.265   0.95883362 
     650     349.6267   -8452.4431   -8413.4417   -14126.089    21914.265   0.97518253 
     660     345.3101   -8451.9607   -8413.4408    -13925.09    21914.265   0.98949595 
     670    335.30236   -8450.8431   -8413.4396   -13541.064    21914.265    1.0025057 
     680    335.35657   -8450.8495     -8413.44   -13120.509    21914.265    1.0157598 
     690    342.86707   -8451.6878   -8413.4405   -12807.122    21914.265    1.0306556 
     700    350.61517   -8452.5527    -8413.441   -12613.893    21914.265    1.0481195 
     710    351.61871   -8452.6647   -8413.4411    -12558.63    21914.265     1.067876 
     720    346.37378   -8452.0785     -8413.44   -12478.274    21914.265    1.0873947 
     730    347.79156   -8452.2373   -8413.4406   -12593.955    21914.265    1.1041491 
     740    351.02442    -8452.599   -8413.4417   -12781.856    21914.265    1.1188548 
     750    344.89782   -8451.9145   -8413.4406   -12888.282    21914.265     1.133643 
     760      340.342   -8451.4064   -8413.4407   -13050.736    21914.265    1.1491825 
     770    340.04955   -8451.3737   -8413.4407   -13326.749    21914.265    1.1643304 
     780      345.357   -8451.9656   -8413.4405   -13558.373    21914.265    1.1777023 
     790    357.12317   -8453.2788   -8413.4411   -13831.043    21914.265    1.1886997 
     800    366.64045   -8454.3407   -8413.4414   -14129.874    21914.265    1.1976392 
     810    368.68447   -8454.5688   -8413.4415   -14063.484    21914.265    1.2056605 
     820    366.60174   -8454.3361   -8413.4411   -13908.726    21914.265    1.2141717 
     830    365.85586   -8454.2531   -8413.4413   -13853.131    21914.265    1.2243585 
     840     368.4524   -8454.5423   -8413.4409   -13972.673    21914.265    1.2365636 
     850    371.87492   -8454.9262    -8413.443    -14131.16    21914.265    1.2503596 
     860     358.1746   -8453.3954   -8413.4405     -13818.7    21914.265    1.2649975 
     870    354.45705   -8452.9806   -8413.4404   -13465.958    21914.265     1.278191 
     880    366.65296   -8454.3425   -8413.4418   -13399.092    21914.265    1.2880847 
     890    376.93995   -8455.4909   -8413.4426    -13274.53    21914.265    1.2959326 
     900    375.96913   -8455.3817   -8413.4418   -13062.805    21914.265    1.3041818 
     910    374.01489   -8455.1632   -8413.4413   -12824.206    21914.265    1.3130528 
     920    378.94842   -8455.7136   -8413.4414   -12747.174    21914.265    1.3222121 
     930    388.54983   -8456.7859   -8413.4426   -12880.601    21914.265    1.3329508 
     940    389.80019   -8456.9258    -8413.443   -12981.003    21914.265    1.3457299 
     950    382.52604   -8456.1127   -8413.4413   -12918.004    21914.265    1.3587946 
     960    381.75271   -8456.0275   -8413.4424   -13120.356    21914.265    1.3710856 
     970    380.20365    -8455.854   -8413.4417   -13297.868    21914.265    1.3835601 
     980    384.06597   -8456.2848   -8413.4416    -13360.21    21914.265    1.3967998 
     990    391.39252    -8457.104   -8413.4436    -13319.56    21914.265    1.4114384 
    1000    385.55287   -8456.4508   -8413.4418   -13032.957    21914.265    1.4285977 
    1010    381.98963   -8456.0536   -8413.4421   -12900.345    21914.265    1.4480597 
    1020    382.08452   -8456.0644   -8413.4423   -12891.786    21914.265    1.4678099 
    1030    380.66666   -8455.9065   -8413.4425   -12820.478    21914.265    1.4859085 
    1040    378.02017   -8455.6107    -8413.442   -12814.774    21914.265    1.5012686 
    1050    381.70997   -8456.0224   -8413.4421   -12925.622    21914.265    1.5119118 
    1060    391.42566   -8457.1073   -8413.4432    -13146.33    21914.265    1.5173209 
    1070    396.24192   -8457.6441   -8413.4428   -13102.084    21914.265    1.5196151 
    1080    397.63032   -8457.7993    -8413.443   -12889.784    21914.265    1.5211703 
    1090    396.12759   -8457.6308   -8413.4422   -12537.537    21914.265    1.5231683 
    1100    400.33119   -8458.1002   -8413.4426   -12299.668    21914.265    1.5256834 
    1110    407.17314   -8458.8635   -8413.4428   -12099.612    21914.265    1.5296348 
    1120    413.19804   -8459.5369    -8413.444   -11926.861    21914.265    1.5369315 
    1130    409.94165   -8459.1721   -8413.4425   -11927.354    21914.265    1.5487344 
    1140    411.69689   -8459.3679   -8413.4425   -12274.932    21914.265    1.5644715 
    1150    417.92932   -8460.0654   -8413.4448   -12599.199    21914.265    1.5822789 
    1160    409.45399   -8459.1175   -8413.4423   -12608.558    21914.265    1.6004412 
    1170    405.75202   -8458.7057   -8413.4435   -12496.116    21914.265    1.6169469 
    1180    399.97271   -8458.0606    -8413.443   -12466.412    21914.265    1.6317671 
    1190    393.04741   -8457.2883   -8413.4433   -12618.331    21914.265    1.6460138 
    1200    381.93867   -8456.0489   -8413.4431   -12576.103    21914.265    1.6602667 
    1210    376.72969   -8455.4667   -8413.4419   -12745.258    21914.265    1.6726433 
    1220     387.4652   -8456.6661   -8413.4437   -13270.317    21914.265    1.6819979 
    1230    392.11995   -8457.1848   -8413.4433   -13698.725    21914.265    1.6894908 
    1240    392.35374   -8457.2109   -8413.4432   -14054.078    21914.265    1.6958816 
    1250    387.63167   -8456.6848   -8413.4439   -14383.659    21914.265    1.7022745 
    1260    377.01437   -8455.4984   -8413.4419   -14780.957    21914.265    1.7098627 
    1270    380.16106   -8455.8505   -8413.4429    -15291.91    21914.265    1.7186286 
    1280    386.65141    -8456.575   -8413.4435   -15684.863    21914.265    1.7280931 
    1290    386.45138   -8456.5524   -8413.4431   -15669.118    21914.265    1.7377267 
    1300    384.49318   -8456.3333   -8413.4425   -15192.167    21914.265    1.7465203 
    1310    389.16883   -8456.8559   -8413.4435   -14748.802    21914.265    1.7543822 
    1320    395.91985   -8457.6092   -8413.4437   -14540.669    21914.265    1.7626209 
    1330    402.24128   -8458.3144   -8413.4438   -14482.176    21914.265    1.7719127 
    1340    406.72312   -8458.8138   -8413.4433   -14593.779    21914.265    1.7822942 
    1350    413.88937   -8459.6138   -8413.4438   -14633.206    21914.265    1.7929881 
    1360    418.26368   -8460.1021   -8413.4441   -14272.723    21914.265    1.8043383 
    1370    412.53709   -8459.4628   -8413.4437   -13640.472    21914.265    1.8173742 
    1380    404.03017    -8458.513   -8413.4428   -13053.663    21914.265    1.8314414 
    1390    402.11865   -8458.3013   -8413.4444   -12796.252    21914.265    1.8446224 
    1400    396.75786   -8457.7017   -8413.4428   -12890.081    21914.265    1.8555613 
    1410     401.1626   -8458.1945   -8413.4442   -13251.623    21914.265    1.8625402 
    1420    405.53922    -8458.683   -8413.4445   -13540.901    21914.265    1.8651673 
    1430    404.12534   -8458.5245   -8413.4437   -13662.885    21914.265    1.8648977 
    1440    405.72045   -8458.7027    -8413.444   -13771.634    21914.265    1.8643414 
    1450    406.67484   -8458.8092    -8413.444   -13873.149    21914.265    1.8661066 
    1460    406.94702   -8458.8395   -8413.4439   -13898.845    21914.265    1.8707341 
    1470    405.99802   -8458.7335   -8413.4438    -13583.81    21914.265    1.8783175 
    1480    405.25435   -8458.6503   -8413.4436   -13097.342    21914.265    1.8881067 
    1490    408.19865    -8458.979   -8413.4439   -12662.726    21914.265    1.8977467 
    1500    414.56579   -8459.6887   -8413.4433   -12296.863    21914.265    1.9065246 
    1510    429.03716   -8461.3044   -8413.4447   -11735.577    21914.265    1.9156573 
    1520    435.43303   -8462.0188   -8413.4456   -11140.275    21914.265    1.9269758 
    1530    420.46896   -8460.3486   -8413.4446     -10759.3    21914.265    1.9420002 
    1540    404.55727   -8458.5707   -8413.4417   -10562.297    21914.265    1.9594173 
    1550     414.5371   -8459.6878   -8413.4456   -10873.945    21914.265    1.9756145 
    1560    415.64167   -8459.8093   -8413.4438    -11180.84    21914.265    1.9896674 
    1570    417.51903   -8460.0192   -8413.4444   -11574.862    21914.265      2.00287 
    1580    420.71133   -8460.3754   -8413.4444   -12084.028    21914.265    2.0173903 
    1590    422.23753   -8460.5459   -8413.4446   -12650.323    21914.265    2.0354221 
    1600    420.26548   -8460.3254   -8413.4441   -13157.964    21914.265    2.0567995 
    1610    418.97614   -8460.1816   -8413.4442   -13379.664    21914.265    2.0784503 
    1620    422.99101    -8460.629   -8413.4437   -13476.483    21914.265    2.0978277 
    1630    431.41255   -8461.5707    -8413.446   -13473.665    21914.265     2.115193 
    1640    426.28653   -8460.9963   -8413.4434   -13430.412    21914.265    2.1338075 
    1650    431.13487   -8461.5387    -8413.445   -13658.596    21914.265       2.1559 
    1660    436.17822   -8462.1019   -8413.4456   -13638.641    21914.265    2.1797337 
    1670    428.12023   -8461.2022   -8413.4447   -13252.346    21914.265    2.2035441 
    1680    422.66155   -8460.5919   -8413.4434   -13022.696    21914.265    2.2262152 
    1690    430.34848   -8461.4521    -8413.446   -12966.155    21914.265    2.2464937 
    1700    426.21611   -8460.9896   -8413.4446   -12849.343    21914.265    2.2649593 
    1710    421.63281   -8460.4781   -8413.4443    -12902.06    21914.265    2.2822078 
    1720    425.52952   -8460.9136   -8413.4451   -13254.993    21914.265    2.2992296 
    1730    433.21398   -8461.7705   -8413.4448   -13760.925    21914.265    2.3170264 
    1740    441.86781   -8462.7372   -8413.4461   -14050.542    21914.265    2.3352522 
    1750    438.27813    -8462.336   -8413.4454   -13921.401    21914.265    2.3528289 
    1760    429.17186   -8461.3192   -8413.4444   -13408.002    21914.265    2.3694072 
    1770    428.81898   -8461.2807   -8413.4453    -12917.73    21914.265    2.3858611 
    1780    433.34916   -8461.7857    -8413.445   -12638.931    21914.265    2.4026666 
    1790     441.0669   -8462.6474   -8413.4457   -12705.172    21914.265     2.419074 
    1800    447.24535   -8463.3359    -8413.445   -12842.309    21914.265    2.4345236 
    1810    451.04914   -8463.7611   -8413.4459   -13058.485    21914.265    2.4502124 
    1820    445.08252   -8463.0941   -8413.4445   -13035.825    21914.265    2.4671851 
    1830    441.70858   -8462.7187   -8413.4454   -12922.342    21914.265    2.4853863 
    1840    432.65555   -8461.7082   -8413.4449   -13058.866    21914.265    2.5046773 
    1850    428.24526   -8461.2146   -8413.4432   -13494.155    21914.265    2.5239509 
    1860    442.70809   -8462.8312   -8413.4464     -14052.9    21914.265    2.5417036 
    1870    445.34398   -8463.1238   -8413.4451   -14177.248    21914.265    2.5577578 
    1880    449.56383   -8463.5931   -8413.4436   -14088.107    21914.265    2.5732932 
    1890    469.70151   -8465.8424   -8413.4465   -13965.821    21914.265    2.5900107 
    1900    475.61979   -8466.5029   -8413.4468   -13338.709    21914.265    2.6092547 
    1910    460.77113   -8464.8444   -8413.4447   -12266.897    21914.265    2.6300063 
    1920    453.29076   -8464.0097   -8413.4444   -11600.031    21914.265    2.6488623 
    1930    455.01355   -8464.2038   -8413.4464   -11532.276    21914.265     2.664581 
    1940    446.57627   -8463.2611   -8413.4448   -11610.068    21914.265    2.6787843 
    1950    442.24787   -8462.7779   -8413.4445    -12067.88    21914.265     2.691974 
    1960    445.34565   -8463.1243   -8413.4453   -12574.104    21914.265    2.7033659 
    1970     445.3849   -8463.1293   -8413.4459   -12683.518    21914.265    2.7130116 
    1980    438.45896   -8462.3558    -8413.445   -12521.804    21914.265    2.7223802 
    1990    435.82997    -8462.062   -8413.4445   -12590.151    21914.265    2.7312795 
    2000    445.20858   -8463.1089   -8413.4452   -13039.215    21914.265    2.7384799 
Loop time of 1182.79 on 16 procs for 2000 steps with 864 atoms

Performance: 0.146 ns/day, 164.276 hours/ns, 1.691 timesteps/s
97.0% CPU use with 16 MPI tasks x 1 OpenMP threads

MPI task timing breakdown:
Section |  min time  |  avg time  |  max time  |%varavg| %total
---------------------------------------------------------------
Pair    | 382.39     | 676.56     | 1161.1     | 855.4 | 57.20
Bond    | 0.00017095 | 0.00033419 | 0.00084186 |   0.0 |  0.00
Neigh   | 0.017655   | 0.029875   | 0.055162   |   6.5 |  0.00
Comm    | 21.126     | 445.46     | 694.75     | 968.5 | 37.66
Output  | 0.4194     | 41.727     | 93.151     | 543.1 |  3.53
Modify  | 0.0082717  | 0.0096125  | 0.01136    |   0.9 |  0.00
Other   |            | 19         |            |       |  1.61

Nlocal:        54.0000 ave          84 max          36 min
Histogram: 3 3 4 0 0 2 1 0 1 2
Nghost:        477.750 ave         592 max         348 min
Histogram: 2 0 2 1 3 3 1 0 0 4
Neighs:         0.00000 ave           0 max           0 min
Histogram: 16 0 0 0 0 0 0 0 0 0
FullNghs:      2234.12 ave        4892 max        1038 min
Histogram: 5 5 0 0 2 0 2 0 0 2

Total # of neighbors = 35746
Ave neighs/atom = 41.372685
Ave special neighs/atom = 0.0000000
Neighbor list builds = 199
Dangerous builds = 198
unfix   1

velocity    all create 825.0 1312343 dist gaussian
fix     2 all npt temp 825.0 825.0 $(100.0*dt) aniso 0.0 1.01325 $(1000.0*dt)
fix     2 all npt temp 825.0 825.0 0.10000000000000000555 aniso 0.0 1.01325 $(1000.0*dt)
fix     2 all npt temp 825.0 825.0 0.10000000000000000555 aniso 0.0 1.01325 1
run     3000
Per MPI rank memory allocation (min/avg/max) = 8.894 | 8.907 | 8.916 Mbytes
Step Temp PotEng TotEng Press Volume c_msd[4] 
    2000          825   -8463.1089   -8371.0789    -10974.25    21914.265    2.7384799 
    2010    751.90201   -8455.0329   -8371.1571   -10087.646      21906.3    2.7398008 
    2020    657.35478   -8444.5913   -8371.2624   -8558.4047     21883.68    2.7416895 
    2030    649.60711   -8443.6883   -8371.2237   -8094.2448    21848.486     2.740118 
    2040    647.31517   -8443.1572   -8370.9482   -7208.7173    21801.758    2.7354689 
    2050    649.34094   -8442.8879   -8370.4529   -6153.1186    21744.954    2.7302123 
    2060    665.58075   -8444.0662   -8369.8197   -5196.7076    21679.914    2.7271814 
    2070    658.40202   -8442.6106   -8369.1648   -3581.9295    21608.622    2.7277209 
    2080    662.40315   -8442.4233   -8368.5313   -1967.8914    21533.875    2.7304424 
    2090    677.05474   -8443.4022   -8367.8758   -1054.5068    21458.484    2.7342086 
    2100     683.8655   -8443.4727   -8367.1865   -807.14277    21384.296    2.7372162 
    2110    701.04046   -8444.6683   -8366.4662   -1006.1418    21312.144    2.7376223 
    2120    711.85288   -8445.1123   -8365.7041   -1190.7807     21242.23    2.7377657 
    2130    715.46144   -8444.7235   -8364.9127   -1490.5617    21174.636    2.7423292 
    2140    721.79291   -8444.5997   -8364.0826   -2073.8352    21109.233    2.7537997 
    2150    724.32152   -8444.0168   -8363.2176   -2312.6171    21045.569    2.7706598 
    2160    730.81776   -8443.8326   -8362.3088   -1870.1886    20983.583    2.7880922 
    2170    741.65531   -8444.0683   -8361.3355   -1014.1135     20923.96    2.8027709 
    2180    754.27328   -8444.4364   -8360.2961     89.40783    20867.832    2.8146556 
    2190    782.23609   -8446.4811   -8359.2215    666.67951     20816.35    2.8251375 
    2200    801.67875   -8447.6003   -8358.1718    982.24145    20769.923    2.8373363 
    2210    789.71493   -8445.2893   -8357.1954    1697.5786    20728.582    2.8540559 
    2220    778.17215   -8443.0918   -8356.2856    2200.6826    20692.688    2.8735034 
    2230    788.48169   -8443.3542   -8355.3979    1799.6281     20662.27    2.8929133 
    2240    795.81077    -8443.278   -8354.5041    1283.0652    20636.407    2.9092407 
    2250     806.2949    -8443.539   -8353.5955    989.11349    20614.037    2.9228627 
    2260    807.71078   -8442.7759   -8352.6746    1479.1446    20594.554    2.9387345 
    2270    814.86929   -8442.6706   -8351.7707    1909.1584    20578.205    2.9590682 
    2280    832.75969   -8443.8042   -8350.9086    1597.5587    20565.198    2.9818411 
    2290    843.99106   -8444.2723   -8350.1239    1062.2883    20554.926    3.0039416 
    2300    825.61176   -8441.5289   -8349.4306    1557.7824    20546.682    3.0256035 
    2310    827.43984    -8441.103   -8348.8009    2146.1465    20540.828    3.0481391 
    2320    856.27584   -8443.7179   -8348.1991     2150.691    20537.888    3.0739296 
    2330    874.85698   -8445.2558   -8347.6642     2399.831    20537.835    3.1070589 
    2340    853.96359   -8442.4996   -8347.2386    2814.0902    20540.833    3.1468918 
    2350    863.17471   -8443.2085     -8346.92    2128.2704    20547.133    3.1868234 
    2360    896.07175   -8446.6571    -8346.699    815.00471    20555.811    3.2269658 
    2370    878.04202   -8444.5695   -8346.6226    95.565636    20565.255    3.2724539 
    2380     850.9557   -8441.5965   -8346.6711   -11.319466    20574.567    3.3231221 
    2390    870.74376   -8443.9315   -8346.7987   -554.11746    20583.485    3.3753281 
    2400    882.21949   -8445.4474   -8347.0345   -770.41318    20591.441     3.428313 
    2410    872.93177   -8444.7954   -8347.4185   -417.27816    20598.224     3.485237 
    2420    852.52589   -8443.0294   -8347.9289    55.182095    20604.295    3.5465793 
    2430    855.89285   -8443.9955   -8348.5193   -322.80599    20610.131     3.610534 
    2440    880.85582   -8447.4703   -8349.2095   -539.57936    20615.417    3.6759966 
    2450    888.08242   -8449.1144   -8350.0475   -13.495611    20619.943    3.7428853 
    2460    875.81356   -8448.6983        -8351     718.5466    20624.352    3.8102374 
    2470    884.63052   -8450.7133   -8352.0314      812.442    20629.482    3.8764731 
    2480    899.02494   -8453.4478   -8353.1602    544.57181    20635.428     3.941876 
    2490    877.91439   -8452.2846    -8354.352     668.1654    20641.914      4.00612 
    2500    855.79362   -8450.9768   -8355.5117    598.58915    20648.993    4.0680011 
    2510    847.12241   -8451.0993   -8356.6015    538.47143    20656.569    4.1287985 
    2520    828.71341     -8450.05   -8357.6058    1136.6815    20664.629    4.1914347 
    2530    832.35714    -8451.375   -8358.5244     1866.409    20673.834     4.258233 
    2540    865.27153   -8455.9394   -8359.4171    2007.0056    20684.974    4.3298594 
    2550    876.67399   -8458.1646   -8360.3703    2054.6331    20698.197    4.4053776 
    2560    840.99202   -8455.1583   -8361.3444    2157.9125    20713.458    4.4835421 
    2570    807.84219   -8452.3311   -8362.2151    2027.7414    20730.767    4.5643786 
    2580    817.76243   -8454.1673   -8362.9446    1182.1938    20749.793    4.6471281 
    2590    841.91553   -8457.5242   -8363.6072    121.13215    20769.401    4.7274402 
    2600    831.38466   -8456.9928   -8364.2506    -370.2956    20788.299    4.8021172 
    2610    842.23642   -8458.8499   -8364.8972   -1115.8334    20805.773    4.8716275 
    2620    850.30788   -8460.4297   -8365.5766   -1873.7577    20820.957     4.939639 
    2630    821.37904   -8457.8894   -8366.2633   -1828.9332    20833.117    5.0084564 
    2640     831.8554   -8459.7274   -8366.9327   -1952.0038    20842.299    5.0755524 
    2650    861.56418    -8463.736   -8367.6273   -1824.8274    20848.543    5.1370915 
    2660    846.41884   -8462.7893     -8368.37   -1004.2507    20852.234    5.1948172 
    2670    837.10484   -8462.5064   -8369.1261   -523.89385    20854.426    5.2511556 
    2680    827.01761   -8462.1105   -8369.8554   -525.40926    20855.763    5.3087518 
    2690    816.31774   -8461.5925    -8370.531   -183.17341    20856.421    5.3709555 
    2700    833.75495   -8464.1787   -8371.1721   -311.67387    20856.745    5.4350899 
    2710    839.29389    -8465.433   -8371.8085    104.33236    20856.715    5.4970789 
    2720    819.91104   -8463.8945   -8372.4322    1062.3985    20856.894    5.5578427 
    2730    826.63124   -8465.2399   -8373.0279    1411.1815    20858.382    5.6198257 
    2740    844.76536   -8467.8536   -8373.6187    1228.6334    20861.563    5.6857898 
    2750    840.31838   -8467.9676   -8374.2288    1158.8027    20866.203    5.7559174 
    2760    832.70774   -8467.7391   -8374.8493    1197.8911    20872.153     5.827367 
    2770    819.67425   -8466.8824   -8375.4465    1273.6332    20879.395    5.8966198 
    2780    813.07531   -8466.6885   -8375.9887    863.44457    20887.903    5.9597804 
    2790    823.26199   -8468.3222   -8376.4861    88.189847    20897.099    6.0169674 
    2800    825.49497    -8469.037   -8376.9518   -375.65516    20906.031    6.0724049 
    2810    838.47222   -8470.9579   -8377.4251   -924.73203    20914.049    6.1288784 
    2820    826.63808   -8470.1265   -8377.9137   -1447.4731    20920.508     6.187354 
    2830    825.81615   -8470.5321    -8378.411   -2288.4458    20924.713    6.2464661 
    2840    832.56563   -8471.7823   -8378.9084   -2551.4672     20925.83    6.3025322 
    2850    825.43804   -8471.4782   -8379.3993   -2435.5108    20923.622    6.3536653 
    2860    831.93734   -8472.6932   -8379.8893   -2595.7213    20918.296    6.3971878 
    2870    821.28545   -8472.0005   -8380.3848   -2370.0986    20909.873    6.4332364 
    2880    803.38634   -8470.4699    -8380.851   -1769.3755    20898.776    6.4649742 
    2890    798.22686    -8470.297   -8381.2536   -1245.6204    20885.837    6.4943258 
    2900    791.50044   -8469.8615   -8381.5684   -808.16767    20871.806    6.5209325 
    2910    807.97697   -8471.9549   -8381.8238    -664.4379    20857.265    6.5441755 
    2920    813.33707   -8472.7741   -8382.0452    -338.1953    20842.502    6.5699639 
    2930      828.485   -8474.6757    -8382.257    74.016263    20827.929    6.6018953 
    2940    829.86657   -8475.0406   -8382.4677    690.28416    20814.085    6.6398561 
    2950    827.04241   -8474.9339    -8382.676    1259.3455    20801.703    6.6816813 
    2960    841.62097   -8476.7891    -8382.905    1420.5917    20791.391    6.7252695 
    2970    829.82573   -8475.7378   -8383.1695    1834.9383    20783.366    6.7735486 
    2980     819.7944   -8474.9027   -8383.4534    1898.6639    20777.991    6.8290453 
    2990    836.21601    -8477.039   -8383.7579    1391.8747    20775.222    6.8945203 
    3000    820.86785   -8475.6442   -8384.0752    1494.2349    20774.434    6.9706121 
    3010    801.52046   -8473.7799   -8384.3691    2042.2006    20775.659    7.0528402 
    3020    818.11793    -8475.887   -8384.6247    2019.6885    20779.409    7.1351531 
    3030    844.92456   -8479.1472   -8384.8946    1282.3695     20785.54    7.2132436 
    3040     851.1081   -8480.1557   -8385.2133    244.29655     20793.08     7.288243 
    3050    872.37871   -8482.9283   -8385.6131   -727.72124     20800.68    7.3626516 
    3060    851.80253   -8481.1211   -8386.1013   -803.72509     20807.17    7.4393026 
    3070    820.97506   -8478.2007   -8386.6197   -561.62565    20812.442    7.5186545 
    3080    836.32493   -8480.4326   -8387.1393   -1240.3177    20816.696    7.5968323 
    3090    828.79274   -8480.1259   -8387.6728   -1442.1342    20819.255     7.671451 
    3100    822.05722   -8479.9039   -8388.2022   -1150.9886     20819.91    7.7431033 
    3110    840.95232   -8482.5392   -8388.7297    -1092.127     20819.04    7.8087907 
    3120    845.34102   -8483.5714   -8389.2724   -919.31947    20816.825    7.8674673 
    3130    841.97754   -8483.7628   -8389.8389   -965.34441    20813.467    7.9230765 
    3140    824.70316   -8482.4046   -8390.4077   -749.70197    20808.998    7.9787968 
    3150    798.15954   -8479.9635   -8390.9276   -81.500433     20803.76    8.0362621 
    3160    774.57191   -8477.7358   -8391.3311    420.73642    20798.589    8.0939343 
    3170    783.88456   -8479.0472   -8391.6037    9.4095745    20794.023    8.1466647 
    3180    814.93978   -8482.6977     -8391.79   -634.51641    20789.604    8.1945401 
    3190     839.8833   -8485.6388   -8391.9486   -829.17923    20784.578    8.2424137 
    3200    846.52664   -8486.5587   -8392.1274   -467.37233     20778.72    8.2922416 
    3210     837.0819   -8485.7266   -8392.3488    252.37532    20772.491    8.3479867 
    3220    836.39891   -8485.8933   -8392.5917    503.77983    20766.735     8.411948 
    3230    849.19855   -8487.6052   -8392.8758    -44.69324    20761.708    8.4821104 
    3240    812.47502   -8483.8135   -8393.1807   -163.36678    20756.844    8.5580082 
    3250    807.21083   -8483.5122   -8393.4666   -510.21467    20751.898    8.6402531 
    3260    831.99949    -8486.542   -8393.7312   -1044.2769    20746.416    8.7218065 
    3270    809.68955   -8484.2863   -8393.9642   -547.20459    20739.909    8.7913712 
    3280    826.00449   -8486.3114   -8394.1694   -858.65533    20732.791    8.8443306 
    3290     849.7269   -8489.1654   -8394.3771   -1646.6455    20724.726    8.8843969 
    3300    844.12561   -8488.7947   -8394.6312   -1349.1416    20714.918    8.9169013 
    3310    834.07168   -8487.9721   -8394.9301   -288.60633    20703.769     8.949549 
    3320    832.85141   -8488.1445   -8395.2386    207.23953    20692.516    8.9901814 
    3330    867.74318   -8492.4058   -8395.6077     484.9979    20681.835    9.0412732 
    3340    835.63883   -8489.2666   -8396.0499    1741.4638    20672.248     9.101313 
    3350    809.95356   -8486.8667   -8396.5152    1722.4897    20665.028    9.1648496 
    3360    829.18912   -8489.4791   -8396.9818     479.0534    20660.082    9.2251946 
    3370    841.95029   -8491.3901   -8397.4692   -165.38846    20655.971    9.2775812 
    3380     846.6861   -8492.4446   -8397.9955   -719.42431    20651.789    9.3205095 
    3390     859.6794   -8494.4829   -8398.5844   -1485.6937    20646.794    9.3562541 
    3400    858.13885    -8494.972   -8399.2453   -2477.0338    20640.014    9.3900749 
    3410    842.74783   -8493.9601   -8399.9503   -3472.2925    20630.246    9.4239117 
    3420    833.12526   -8493.5844    -8400.648   -3741.7649    20616.394    9.4554226 
    3430    840.36977   -8495.0404   -8401.2959   -3437.4454     20598.19    9.4812102 
    3440    861.00685    -8497.952   -8401.9054   -2676.3903    20576.146    9.4989096 
    3450    853.47608   -8497.6705   -8402.4639   -1433.1102    20551.367    9.5064432 
    3460    848.88514   -8497.6403   -8402.9459   -86.624339     20525.47    9.5078515 
    3470    845.82138   -8497.6993   -8403.3466    882.59268    20500.127    9.5123653 
    3480    842.79384   -8497.6955   -8403.6806    1555.9972    20476.574    9.5225176 
    3490    852.61515   -8499.0887   -8403.9782    1650.9444    20455.556     9.539318 
    3500    859.11538   -8500.1149   -8404.2793    1408.7836    20437.146    9.5677094 
    3510    857.83744   -8500.2944   -8404.6014    994.69228    20420.993    9.6150674 
    3520    864.73581   -8501.4277   -8404.9651    695.33149    20406.544    9.6812937 
    3530    851.21659   -8500.3102   -8405.3557    802.30973    20393.406    9.7547756 
    3540    849.95476   -8500.5768   -8405.7631    1036.5273    20381.628    9.8249595 
    3550    859.94304   -8502.1247   -8406.1968    1251.7648    20371.461     9.890132 
    3560    879.54162    -8504.812   -8406.6978     1372.273    20363.115    9.9530714 
    3570    875.42349   -8504.9465   -8407.2917     1881.022    20356.742    10.018695 
    3580    854.21275   -8503.2475   -8407.9588    2794.6955    20352.936    10.088833 
    3590    850.97437   -8503.5719   -8408.6445    2705.0296    20352.611    10.162933 
    3600    874.49483   -8506.9203   -8409.3691    726.27478    20355.423    10.243352 
    3610     863.4828   -8506.4608    -8410.138    -547.8762    20359.163    10.331101 
    3620    846.66932   -8505.3421   -8410.8949   -958.35444    20362.219    10.422225 
    3630    847.23824    -8506.118   -8411.6073   -1189.0618    20364.015    10.511941 
    3640    829.21104   -8504.7667   -8412.2669    -862.7979    20364.349    10.598221 
    3650     821.3707   -8504.4782    -8412.853   -751.69043    20363.586    10.681316 
    3660    854.69597    -8508.736   -8413.3934   -1350.4794    20361.834    10.763125 
    3670    865.25659   -8510.4723   -8413.9516   -1611.7319    20358.485    10.846349 
    3680    847.67989   -8509.0954   -8414.5354   -1404.9676    20353.253    10.926044 
    3690    838.79685   -8508.6823   -8415.1133   -888.56162    20346.478    10.996281 
    3700    863.32255   -8512.0056   -8415.7007   -1301.6482    20338.656    11.060396 
    3710    855.47917   -8511.7459    -8416.316   -1028.8096    20329.524    11.127315 
    3720    821.05271   -8508.5041   -8416.9144   -73.534749    20319.435    11.199862 
    3730    810.11921   -8507.8128   -8417.4428    208.62548    20309.443    11.274215 
    3740    818.38282   -8509.1972   -8417.9053    -217.2196    20299.901    11.341035 
    3750    822.03467   -8510.0255   -8418.3263   -601.69248    20290.367    11.394251 
    3760    831.16283   -8511.4445    -8418.727   -818.29067    20280.365    11.438572 
    3770    839.98303   -8512.8445   -8419.1432   -606.90431     20269.66    11.482304 
    3780    833.42484   -8512.5393   -8419.5695    14.355732    20258.551    11.532582 
    3790    846.32045   -8514.4089   -8420.0006    428.40587    20247.731    11.590079 
    3800    841.48647     -8514.31   -8420.4409    718.98886    20237.724    11.650356 
    3810    840.46133   -8514.6592   -8420.9045    924.75548     20228.85    11.710732 
    3820    849.20153   -8516.1292   -8421.3995    1698.7641    20221.409    11.772039 
    3830    848.76156   -8516.6063   -8421.9257    2337.1716     20216.23     11.83992 
    3840    858.10306   -8518.2227      -8422.5    2356.7584     20213.98    11.918685 
    3850     851.0133   -8518.0449   -8423.1131    2166.1351    20214.676    12.008567 
    3860    863.01913   -8520.0247   -8423.7536    1234.0544    20217.933    12.111522 
    3870    886.49649   -8523.3464   -8424.4564    410.43014     20222.65    12.231536 
    3880    874.57516   -8522.7889   -8425.2288    178.02554    20227.827    12.367832 
    3890    864.13678    -8522.418   -8426.0222   -358.27118    20233.047    12.513525 
    3900    859.72561   -8522.6948   -8426.7911   -478.03932     20237.78    12.659188 
    3910    866.27597    -8524.164   -8427.5296   -367.46467    20241.854    12.794609 
    3920    880.53211   -8526.5036   -8428.2789   -577.20871    20245.337     12.91688 
    3930    868.87137   -8525.9539     -8429.03   -876.22399    20248.029    13.030862 
    3940    879.83191   -8527.9208   -8429.7742   -1968.9943    20249.474    13.141683 
    3950    879.69781    -8528.651   -8430.5194   -2540.9443    20248.525    13.253797 
    3960    857.59579   -8526.9101    -8431.244   -2481.8685    20244.547    13.370998 
    3970    838.87211   -8525.4899   -8431.9125   -2367.8476    20237.648    13.489153 
    3980     841.2438   -8526.3585   -8432.5165   -2693.8663    20227.983    13.600887 
    3990    879.54031   -8531.2391   -8433.1251   -3350.0309    20215.226    13.703354 
    4000    871.42021   -8530.9942    -8433.786   -2546.8586    20198.894    13.795532 
    4010    839.11323    -8528.045   -8434.4407   -659.30579    20180.067    13.877189 
    4020    847.72389    -8529.631   -8435.0661    429.34752    20160.935    13.952004 
    4030    866.75661   -8532.3849   -8435.6969    770.83624    20142.837    14.023449 
    4040    878.79502   -8534.4176   -8436.3867    1093.6199    20126.216    14.094085 
    4050    859.83302   -8533.0478   -8437.1322    1888.2422    20111.493    14.171067 
    4060    834.66895   -8530.9734   -8437.8648    2396.3835    20099.495    14.259872 
    4070     824.3444   -8530.4889   -8438.5321    2074.9287    20090.679    14.357767 
    4080    830.23925    -8531.748   -8439.1336    1038.8044    20084.557    14.459162 
    4090    838.42598   -8533.2309   -8439.7032    479.38032    20079.918    14.560863 
    4100    831.59709   -8532.9996   -8440.2337    665.69673    20076.093    14.663371 
    4110    837.32882    -8534.152   -8440.7467    368.10661    20073.135    14.769643 
    4120    831.43424   -8533.9985   -8441.2508       273.14    20070.759    14.879071 
    4130    838.78606   -8535.3151   -8441.7473   -87.999062    20068.759    14.985843 
    4140     823.8452   -8534.1361   -8442.2349   -396.17021    20066.723    15.085931 
    4150     821.2182   -8534.3017   -8442.6935   -881.30955    20064.255    15.183989 
    4160    853.10018   -8538.3082   -8443.1436   -1850.2628    20060.739    15.283808 
    4170    852.18059   -8538.6891   -8443.6271   -1262.8012    20055.316    15.379855 
    4180    843.73618   -8538.2584   -8444.1383    -221.3949    20048.607    15.464827 
    4190    867.98876    -8541.518   -8444.6925   -456.46309    20041.684    15.538098 
    4200    859.27563   -8541.1707   -8445.3173   -834.04111    20034.422    15.606582 
    4210    822.69769   -8537.7375   -8445.9644   -582.16471    20026.434    15.675367 
    4220    811.72551   -8537.1111   -8446.5619   -182.37609    20017.991     15.74644 
    4230    814.78187   -8537.9689   -8447.0788    187.42636    20009.603      15.8227 
    4240    827.85502   -8539.8831   -8447.5347    660.06557    20001.712    15.907313 
    4250    842.51829   -8541.9595   -8447.9753    1459.8881    19994.912     15.99979 
    4260      840.539   -8542.1883   -8448.4249    2098.0421    19990.063    16.095856 
    4270    822.74676   -8540.6479   -8448.8693    2762.7655    19987.882    16.189604 
    4280    823.05532   -8541.1121    -8449.299    3342.2867    19989.084    16.278159 
    4290    826.44351   -8541.9166   -8449.7256     3456.513    19994.219     16.36774 
    4300    813.69308   -8540.9129   -8450.1442    3243.1403    20003.323    16.466068 
    4310    814.34051   -8541.3772   -8450.5363    2750.7343    20016.044    16.577704 
    4320    821.67149   -8542.5476   -8450.8889     2362.889    20031.732    16.700224 
    4330     834.2853   -8544.2849   -8451.2191    2214.8588    20049.862    16.830278 
    4340    836.37784   -8544.8355   -8451.5363    1423.4998    20070.093    16.970593 
    4350    850.05807   -8546.6834   -8451.8581   -144.26793      20091.4    17.118774 
    4360    859.69159   -8548.1194   -8452.2195   -1952.2979    20111.891    17.267516 
    4370    828.95531   -8545.1068   -8452.6356    -2250.742    20129.615    17.415687 
    4380    799.90493   -8542.2802   -8453.0496   -2186.1496    20144.143    17.566734 
    4390    829.61063   -8545.9805   -8453.4362   -3253.4174    20155.466    17.722342 
    4400    827.71917   -8546.1514   -8453.8181   -3844.0484    20162.563    17.877972 
    4410    810.01763   -8544.5501   -8454.1914   -3585.6423    20164.868    18.023411 
    4420    822.49122   -8546.3012   -8454.5511   -2893.3472    20162.777    18.150606 
    4430    806.48269   -8544.8271   -8454.8627   -1572.4501    20157.306    18.261771 
    4440    814.45733   -8545.9806   -8455.1267   -1058.6214    20150.007    18.367039 
    4450    805.97271   -8545.2453   -8455.3378   -1363.4102    20141.583    18.471102 
    4460    810.63748    -8545.937   -8455.5092   -2051.2373    20131.718    18.567771 
    4470    818.07396   -8546.9202   -8455.6629   -2429.8766    20119.709    18.647706 
    4480    795.51235   -8544.5369   -8455.7963   -2102.3349    20105.217    18.709116 
    4490    800.01075   -8545.1288   -8455.8864   -2139.3152    20088.579    18.753087 
    4500    824.44131   -8547.9061   -8455.9384   -2420.1647    20069.838    18.780398 
    4510    833.57947   -8548.9637   -8455.9766   -1751.6963    20048.869    18.794523 
    4520    839.64977   -8549.6812    -8456.017    -366.2488    20026.536    18.796603 
    4530    851.55639   -8551.0777   -8456.0854    1071.7846    20004.444    18.789218 
    4540    840.48567   -8549.9553   -8456.1978    2912.8263    19984.385    18.778875 
    4550    833.97779   -8549.3965   -8456.3651    3547.3789    19968.286    18.775656 
    4560    824.69481   -8548.5833   -8456.5874    2967.3173    19956.798    18.787945 
    4570    820.87338    -8548.431   -8456.8613    1822.1912    19949.137    18.818367 
    4580    828.97339   -8549.6647   -8457.1914    1271.1554    19943.932    18.858091 
    4590    826.22759   -8549.7612   -8457.5943    1848.1226    19940.492    18.891197 
    4600    811.46926   -8548.5816   -8458.0609    2890.1905    19939.428     18.91269 
    4610    833.67384   -8551.6137   -8458.6162    2554.5637    19941.681    18.932725 
    4620    832.17104    -8552.124   -8459.2941    1985.8374    19946.915    18.962526 
    4630    814.04337   -8550.8867   -8460.0789    1669.0395     19954.42    19.011568 
    4640    823.84516   -8552.8428   -8460.9417    1070.1051     19963.69    19.081049 
    4650    814.64428   -8552.7233   -8461.8485     492.0327    19974.018    19.161003 
    4660    812.67142   -8553.3705   -8462.7158   -566.37469    19984.642    19.237946 
    4670    850.32103   -8558.4232   -8463.5686   -1960.8598     19994.29    19.298934 
    4680    831.92781   -8557.1982   -8464.3954   -2285.2842    20001.473     19.33802 
    4690    816.64424   -8556.2257   -8465.1278   -2494.5541    20005.738    19.360617 
    4700    825.07062   -8557.7825   -8465.7446   -3045.1608    20006.869    19.374359 
    4710    818.85017   -8557.6108   -8466.2668   -2768.0684    20004.419    19.379886 
    4720    802.88026   -8556.2553   -8466.6928   -2152.2045    19998.753    19.371527 
    4730    802.69598   -8556.5539   -8467.0119   -2404.7069    19990.554    19.346732 
    4740    815.72788   -8558.2517   -8467.2561   -2859.7444    19979.654    19.306411 
    4750    818.69158   -8558.7771   -8467.4508   -2812.5836    19965.662    19.252298 
    4760    821.14298   -8559.2113   -8467.6115   -2251.8677    19948.707    19.193507 
    4770    812.61496   -8558.3837   -8467.7353   -958.28744    19929.571    19.138976 
    4780    805.65549   -8557.6756   -8467.8035    501.15031     19909.79      19.0914 
    4790    821.56153   -8559.4738   -8467.8274    1578.4884    19891.057    19.044839 
    4800    820.65949   -8559.3717   -8467.8259    2539.5626    19874.666    18.998827 
    4810    813.20886   -8558.5242   -8467.8095    2892.2379     19861.61    18.959374 
    4820    811.95338   -8558.3504   -8467.7758    2999.6497     19852.28    18.926596 
    4830    810.72383   -8558.1554    -8467.718    3296.8392    19846.759    18.900988 
    4840    824.21241   -8559.5852   -8467.6431    3372.6214    19845.255    18.887385 
    4850     846.7753   -8562.0377   -8467.5787    2795.5229     19847.73    18.886357 
    4860    848.59625   -8562.2256   -8467.5634    2215.8739    19853.489     18.89369 
    4870    834.45545   -8560.6812   -8467.5964    1993.6495    19861.817    18.904306 
    4880    845.69669   -8562.0016   -8467.6629    1236.7706     19872.25    18.909321 
    4890    846.51579   -8562.2015   -8467.7714    805.86117    19883.976    18.903029 
    4900    843.78636   -8562.0619   -8467.9363    601.59563    19896.467    18.890003 
    4910     859.5472   -8564.0485   -8468.1647   -293.07055    19909.344    18.878188 
    4920    872.51963    -8565.819   -8468.4881   -1935.3858    19921.512    18.875492 
    4930    848.86312   -8563.6121   -8468.9202   -3019.9313    19931.188    18.884663 
    4940     821.0484   -8561.0104   -8469.4212   -3350.8315    19937.151    18.901101 
    4950    811.40807   -8560.4701   -8469.9563   -4070.5615     19938.92    18.913607 
    4960    799.58208   -8559.6776    -8470.483   -4863.4385    19935.777    18.914599 
    4970     832.9313    -8563.948   -8471.0332   -5797.1593    19926.843    18.901435 
    4980    833.99019   -8564.6772   -8471.6444    -5791.352    19911.255    18.876616 
    4990    823.84862    -8564.199   -8472.2975   -5054.4817    19889.128    18.845267 
    5000     826.2532   -8565.1423   -8472.9725   -4048.8803    19861.449    18.809263 
Loop time of 1964.7 on 16 procs for 3000 steps with 864 atoms

Performance: 0.132 ns/day, 181.917 hours/ns, 1.527 timesteps/s
96.3% CPU use with 16 MPI tasks x 1 OpenMP threads

MPI task timing breakdown:
Section |  min time  |  avg time  |  max time  |%varavg| %total
---------------------------------------------------------------
Pair    | 683.41     | 1266.3     | 1935.4     |1012.6 | 64.45
Bond    | 0.00024366 | 0.00057259 | 0.0019622  |   0.0 |  0.00
Neigh   | 0.028066   | 0.048051   | 0.088533   |   9.3 |  0.00
Comm    | 7.2809     | 455.94     | 1028.7     |1337.5 | 23.21
Output  | 0.19966    | 0.20422    | 0.26978    |   3.7 |  0.01
Modify  | 0.20595    | 242.21     | 746.02     |1516.8 | 12.33
Other   |            | 0.01415    |            |       |  0.00

Nlocal:        54.0000 ave          86 max          34 min
Histogram: 3 3 3 1 0 2 0 2 0 2
Nghost:        501.312 ave         671 max         350 min
Histogram: 2 2 1 2 2 2 1 0 2 2
Neighs:         0.00000 ave           0 max           0 min
Histogram: 16 0 0 0 0 0 0 0 0 0
FullNghs:      2563.75 ave        5607 max        1011 min
Histogram: 5 4 1 0 0 2 1 1 0 2

Total # of neighbors = 41020
Ave neighs/atom = 47.476852
Ave special neighs/atom = 0.0000000
Neighbor list builds = 300
Dangerous builds = 300
unfix   2

fix     3 all npt temp 825.0 825.0 $(100.0*dt) aniso 1.01325 1.01325 $(1000.0*dt)
fix     3 all npt temp 825.0 825.0 0.10000000000000000555 aniso 1.01325 1.01325 $(1000.0*dt)
fix     3 all npt temp 825.0 825.0 0.10000000000000000555 aniso 1.01325 1.01325 1
run     20000
Per MPI rank memory allocation (min/avg/max) = 8.899 | 8.909 | 8.923 Mbytes
Step Temp PotEng TotEng Press Volume c_msd[4] 
    5000     826.2532   -8565.1423   -8472.9725   -4048.8803    19861.449    18.809263 
    5010    803.03831   -8562.5422   -8472.9621   -3836.1151    19859.078    18.830615 
    5020    832.10888    -8565.767    -8472.944   -4148.5602    19852.038    18.829797 
    5030    858.69672   -8568.7423   -8472.9534   -4208.3396    19840.041    18.807607 
    5040    849.18708   -8567.7634   -8473.0353   -3287.2655    19823.116    18.777303 
    5050    858.74023    -8568.977   -8473.1832    -2712.797    19802.222    18.753863 
    5060    883.73028   -8572.0129   -8473.4315   -2777.3113    19778.057    18.746496 
    5070     883.3201   -8572.3753   -8473.8396   -2371.5945    19750.657    18.753423 
    5080    844.13445   -8568.5359   -8474.3714   -838.87271     19720.58     18.76198 
    5090    817.30296   -8566.1023   -8474.9309    906.12518    19689.586    18.759996 
    5100    808.34521   -8565.6352   -8475.4631    2402.6167    19659.722    18.750331 
    5110    830.44463    -8568.609   -8475.9717    3482.3175    19632.738    18.743687 
    5120    854.69065   -8571.8782   -8476.5362    4334.4299    19609.908    18.739718 
    5130    841.02798   -8570.9901   -8477.1722    5643.9753    19592.278    18.733774 
    5140    852.95189   -8573.0203   -8477.8723    6193.0709    19581.213    18.731879 
    5150    861.59638   -8574.7537   -8478.6413    5199.1959    19577.235     18.74707 
    5160    854.22017   -8574.7492   -8479.4596    3851.3848    19579.296    18.781832 
    5170    839.61076    -8573.905   -8480.2451    2799.7195    19585.863    18.828319 
    5180    847.60449    -8575.495   -8480.9435    1908.5344    19595.698    18.882236 
    5190    841.31947   -8575.3941   -8481.5436    1359.1513    19607.795    18.942392 
    5200    831.89817    -8574.836   -8482.0365    1650.2637    19621.568    19.001791 
    5210    862.43071   -8578.6738   -8482.4684    1360.4661    19637.183    19.059351 
    5220    878.56014   -8580.8979   -8482.8932    403.59898    19654.303    19.115684 
    5230    863.01783   -8579.5933   -8483.3224   -448.79749    19671.872    19.170423 
    5240    846.24849   -8578.1398   -8483.7395   -1364.9099     19688.85    19.223381 
    5250    837.06893   -8577.5077   -8484.1314   -2567.5551     19704.12    19.269343 
    5260    832.03269   -8577.3071   -8484.4926   -3499.3756    19716.359       19.302 
    5270    815.17288   -8575.7413   -8484.8076   -4102.3275    19724.461    19.318734 
    5280    813.93881   -8575.8692   -8485.0731   -4678.2243    19727.674    19.316716 
    5290    849.45727   -8580.0898   -8485.3316    -5290.804    19725.349     19.29156 
    5300    852.11914   -8580.6989   -8485.6437   -5126.7139    19716.875    19.239291 
    5310    843.20244   -8580.0804   -8486.0199   -4158.2443     19702.47    19.163346 
    5320    836.53305   -8579.7396   -8486.4231   -2700.3089    19683.308    19.074982 
    5330    840.45369   -8580.5862   -8486.8323   -891.15973    19661.171    18.983214 
    5340    849.12481   -8581.9802   -8487.2591    677.57341    19638.137    18.896358 
    5350    831.89886   -8580.4762   -8487.6766    2115.8071    19616.106    18.821858 
    5360     856.6036   -8583.6323   -8488.0769    2531.0066    19596.658    18.762242 
    5370    893.95225   -8588.2853   -8488.5636    2553.9317    19580.307     18.71731 
    5380    861.22395   -8585.2272   -8489.1564     3551.102    19567.225    18.690105 
    5390    869.38617   -8586.8079   -8489.8266    3749.7806    19558.304    18.680372 
    5400    881.89311   -8588.9533   -8490.5768      3436.12    19553.773    18.679792 
    5410    881.42907   -8589.7217    -8491.397    3099.9914    19553.278    18.681611 
    5420    884.04142   -8590.8843   -8492.2681    2475.6328    19556.355    18.690115 
    5430    868.26412   -8589.9979   -8493.1417    2333.3819    19562.336     18.71148 
    5440    877.89894   -8591.9204   -8493.9894    1815.6504     19570.93      18.7456 
    5450     875.7815   -8592.5141   -8494.8193    1189.9837    19581.546    18.793761 
    5460    851.92809   -8590.6341   -8495.6003    1098.7273    19593.542    18.856478 
    5470    866.11163   -8592.9429   -8496.3269   -49.887232    19606.606    18.935494 
    5480    872.25428   -8594.3248   -8497.0235   -1721.3216    19619.467    19.026759 
    5490    867.56084   -8594.4945   -8497.7168   -2923.6981    19630.263    19.124067 
    5500    843.76647    -8592.529   -8498.4056   -2964.5762    19637.676    19.226919 
    5510     813.7433    -8589.814   -8499.0398   -2183.2325    19641.657    19.330783 
    5520    809.65497   -8589.9018   -8499.5836   -1786.8712     19642.99      19.4334 
    5530    846.64196   -8594.5307   -8500.0865   -1925.6339    19642.167    19.540425 
    5540    848.51852   -8595.2567   -8500.6032   -1581.7089    19639.177    19.656118 
    5550    822.31374   -8592.8406   -8501.1102   -1124.5604    19634.379    19.775921 
    5560    829.30789   -8594.0891   -8501.5785   -1507.9199    19628.219    19.889502 
    5570    821.35315   -8593.6482    -8502.025   -1639.2702    19620.383    19.995316 
    5580    819.96746   -8593.9222   -8502.4536   -1457.2751    19610.756    20.097233 
    5590    838.93469   -8596.4569   -8502.8725   -1250.0224    19599.581    20.192222 
    5600    834.70987   -8596.4133   -8503.3001   -759.34448     19587.13    20.274376 
    5610    824.67344   -8595.7113   -8503.7177    292.03844    19574.057    20.345314 
    5620     857.2217   -8599.7726   -8504.1483    575.70757    19561.431    20.411451 
    5630    859.47125   -8600.5063    -8504.631    719.40632    19549.682     20.47706 
    5640    843.19109   -8599.2152    -8505.156    518.76005    19538.923    20.542865 
    5650    855.47562    -8601.139   -8505.7094   -193.90818    19528.898    20.618518 
    5660    870.73869   -8603.4519   -8506.3197   -592.08404    19518.864     20.71204 
    5670    874.35913   -8604.5417   -8507.0056   -249.99834    19508.409    20.818335 
    5680    855.55415    -8603.182   -8507.7437    467.67793    19497.901    20.927219 
    5690     830.5439   -8601.0972   -8508.4488    1705.4712    19488.219    21.028663 
    5700    843.16176   -8603.1677   -8509.1118    2364.8135    19480.616    21.123358 
    5710    831.41164   -8602.4913   -8509.7461    3411.8325    19475.919    21.220042 
    5720    790.73812      -8598.5   -8510.2919    4761.0388    19475.277    21.320691 
    5730     817.0083   -8601.8988   -8510.7603     4767.992    19479.962    21.424512 
    5740    844.01966    -8605.358   -8511.2063    4418.2226    19489.991    21.538568 
    5750    847.19761   -8606.1707   -8511.6645    4311.6837    19504.924    21.674847 
    5760    849.12573   -8606.8739   -8512.1526    3995.8752    19524.471    21.837885 
    5770    837.51723   -8606.0846   -8512.6583    3426.4122    19548.178    22.027808 
    5780    874.07232   -8610.6965   -8513.1924    1893.1566    19575.249    22.239712 
    5790    871.33967   -8610.9807   -8513.7814    799.25678    19604.003    22.465763 
    5800    832.33415   -8607.2415   -8514.3933    13.346942    19633.105     22.69763 
    5810    834.21597   -8608.0244   -8514.9664   -1491.2233    19661.516    22.928805 
    5820    832.38549    -8608.336   -8515.4821   -2684.9849    19687.582    23.151905 
    5830    831.79135   -8608.7361   -8515.9486   -3539.3654    19709.914    23.362684 
    5840    831.85451   -8609.1827   -8516.3881   -4026.4087    19727.622    23.558487 
    5850    823.95353   -8608.7272   -8516.8139   -4545.5814     19740.18    23.730368 
    5860    805.30156   -8607.0468   -8517.2142   -4369.9523    19747.189    23.870612 
    5870    799.44381    -8606.735   -8517.5558   -3775.9593    19748.961    23.982296 
    5880    821.57105    -8609.495   -8517.8475   -3308.6229    19746.254    24.075324 
    5890    809.75501   -8608.4385   -8518.1091   -2260.2868    19739.803    24.164465 
    5900    785.94006   -8606.0018    -8518.329   -1148.4327     19730.89      24.2625 
    5910    789.42119    -8606.537   -8518.4759    -1266.612    19720.731    24.370983 
    5920    832.39094   -8611.4334   -8518.5789   -1981.4906    19709.288    24.479758 
    5930    833.78117   -8611.6933   -8518.6838   -1436.2937    19695.988    24.583025 
    5940    818.89528   -8610.1559   -8518.8069   -613.26785     19681.38    24.683674 
    5950     817.0189   -8610.0664   -8518.9267    92.925955     19666.44    24.784961 
    5960    801.23117   -8608.3917   -8519.0132    693.27779    19652.012    24.895605 
    5970    815.70099   -8610.0578   -8519.0651    534.04761    19638.709    25.029133 
    5980    809.76244   -8609.4254   -8519.0952    291.81139    19626.405    25.190331 
    5990    802.91938   -8608.6837   -8519.1168    -542.5637    19614.724    25.371389 
    6000     832.9165   -8612.0382   -8519.1251   -1711.4759    19602.725    25.563309 
    6010    831.84322   -8611.8822   -8519.0888   -1839.1253    19589.239     25.75655 
    6020    822.97533   -8610.8062   -8519.0021   -1427.8337    19574.111    25.939945 
    6030      805.133   -8608.6591   -8518.8453   -538.11451    19557.894    26.107051 
    6040    814.55208   -8609.4842   -8518.6197   -191.10585    19541.554    26.259215 
    6050    820.33676   -8609.8482   -8518.3384   -379.36745    19525.528    26.397838 
    6060    825.48782   -8610.1216   -8518.0372    -1095.839    19509.559    26.518944 
    6070    840.03682   -8611.4272   -8517.7198   -1738.2707    19492.887    26.618574 
    6080    847.88943   -8612.0009   -8517.4175   -1569.6823    19474.875    26.699072 
    6090    819.04379   -8608.4762   -8517.1107    18.709542    19455.846    26.767996 
    6100    837.56151   -8610.1916   -8516.7604    1245.5948    19437.442    26.837224 
    6110    860.51043    -8612.358   -8516.3668    2111.1519    19421.042    26.914621 
    6120    845.88601   -8610.3388    -8515.979    2803.2918    19407.566    26.999953 
    6130    869.02761     -8612.56   -8515.6186     2676.924    19397.616    27.091105 
    6140    872.06838    -8612.577   -8515.2965     2656.511     19391.03    27.185458 
    6150    865.52478   -8611.6079   -8515.0573    2397.0265    19387.608    27.278952 
    6160    855.98737   -8610.3717    -8514.885    1931.4467    19386.988    27.366861 
    6170    864.68968   -8611.2385    -8514.781    1853.3524    19388.595    27.446581 
    6180     863.9183   -8611.1341   -8514.7627     2295.963    19392.305    27.528505 
    6190     876.7782   -8612.6702   -8514.8643      2104.82    19398.459    27.625498 
    6200    879.97275   -8613.2713   -8515.1091    1572.9135    19406.816    27.738233 
    6210    869.02685   -8612.4633    -8515.522    1295.7857    19416.758    27.856141 
    6220    851.97501   -8611.1103   -8516.0712    1212.7258    19427.982    27.969341 
    6230    872.80983   -8614.1254   -8516.7622    464.64671    19440.281    28.072673 
    6240    862.64207   -8613.8281   -8517.5991    116.65235    19452.922    28.171009 
    6250    849.47804   -8613.2734   -8518.5128   -851.83183    19465.384    28.270729 
    6260    876.82322   -8617.3024   -8519.4914   -2453.4229    19476.574    28.360635 
    6270    866.26836   -8617.1364   -8520.5028    -3405.585    19484.829    28.417045 
    6280    856.44594   -8617.0377   -8521.4999   -3941.3411    19489.071    28.425742 
    6290    830.26318   -8615.0095   -8522.3924     -3631.81    19488.818    28.391437 
    6300    813.72501   -8613.8957   -8523.1234   -3202.2289    19484.424    28.334746 
    6310    817.14659   -8614.8554   -8523.7015    -2798.218     19476.42    28.274278 
    6320    815.21478   -8615.0897   -8524.1513   -1877.3534    19465.381    28.216213 
    6330    805.97634   -8614.3834   -8524.4755   -197.23929    19452.476    28.161263 
    6340    808.98211   -8614.9436   -8524.7004    1046.4458    19439.499    28.114667 
    6350    808.20772   -8615.0144   -8524.8577    2210.7567    19427.937    28.087381 
    6360    839.40075   -8618.6291   -8524.9927    2658.8758    19419.012    28.085449 
    6370    876.49157   -8622.9594   -8525.1854    2357.9556    19413.156    28.112414 
    6380    878.48981   -8623.4883   -8525.4915    2327.3648    19410.094    28.166632 
    6390     876.6105   -8623.7234   -8525.9362    2531.6132    19409.756    28.245698 
    6400    864.51006   -8622.9368   -8526.4994    2544.2086    19412.301    28.349333 
    6410    870.61996    -8624.298   -8527.1791    1832.3186    19417.638    28.472126 
    6420    857.96264   -8623.6588   -8527.9518      1260.81    19425.043    28.613155 
    6430    830.11755   -8621.3473   -8528.7464    323.63025     19433.79    28.775822 
    6440    803.19324   -8619.0599   -8529.4625    -1324.061    19442.755    28.955743 
    6450    806.34782   -8620.0105   -8530.0612   -3267.0033    19450.077    29.139502 
    6460    813.73879   -8621.3361   -8530.5623   -4603.4761    19453.639    29.313202 
    6470    807.03776    -8621.007   -8530.9807   -4726.5387    19452.031    29.472874 
    6480    823.65362   -8623.2266   -8531.3468   -4636.1767    19445.027    29.627213 
    6490    821.12883   -8623.2773   -8531.6791   -4197.1634     19432.87    29.784043 
    6500    819.97221   -8623.4576   -8531.9884   -4058.7214    19416.093    29.941747 
    6510    824.20461   -8624.2449   -8532.3036   -3196.7495    19395.044    30.094073 
    6520      804.794   -8622.3691   -8532.5931   -1292.3151    19370.858    30.237605 
    6530     806.7271     -8622.82   -8532.8284   -223.39348    19345.556    30.368677 
    6540    817.26957   -8624.1829   -8533.0152    648.37068    19320.514    30.483288 
    6550    832.74932   -8626.0723   -8533.1779    972.69157    19296.671    30.589009 
    6560     846.6339   -8627.7763    -8533.333     921.2249    19274.378    30.699394 
    6570    847.28304   -8628.0267    -8533.511    884.25287    19253.599    30.815381 
    6580    856.02774   -8629.2251    -8533.734    1107.9823    19234.315    30.927178 
    6590    878.94417   -8632.1162   -8534.0686    1723.1684    19216.727    31.030667 
    6600    849.38664   -8629.2852   -8534.5348     3377.585    19201.571    31.132136 
    6610     811.1984   -8625.5441   -8535.0537    4766.1161    19190.488     31.24105 
    6620    810.86477   -8626.0152    -8535.562    5220.7285    19184.861    31.363228 
    6630    811.22393   -8626.5277   -8536.0345    4475.9735    19185.021    31.496794 
    6640    801.07396    -8625.814    -8536.453    3476.3344    19190.116    31.640426 
    6650    802.05252   -8626.2849   -8536.8147    3366.0255    19199.044     31.79661 
    6660    817.42779   -8628.3228   -8537.1375    3616.0069    19211.546     31.96437 
    6670    823.63342    -8629.327   -8537.4494    3416.4015    19227.754    32.138832 
    6680    816.74811   -8628.8541   -8537.7447    2530.8536    19247.328    32.313955 
    6690    823.24613   -8629.8382   -8538.0039     1332.353    19269.251    32.482456 
    6700    826.61306   -8630.4473   -8538.2374    295.97068    19292.163    32.643283 
    6710    811.73046   -8628.9945   -8538.4448   -523.85766    19314.912    32.802678 
    6720    825.16518   -8630.6716   -8538.6232   -2434.0506    19336.414      32.9591 
    6730    828.24232   -8631.1818   -8538.7901   -4240.9116      19354.7    33.096393 
    6740    807.30854   -8629.0236   -8538.9671   -4972.2386    19367.902    33.197854 
    6750    809.71415   -8629.4675   -8539.1426   -5731.1693    19375.168    33.255399 
    6760    834.59983   -8632.4431   -8539.3422   -6386.2327    19375.777    33.266092 
    6770     812.9979   -8630.2719   -8539.5808   -5283.4107    19369.368     33.23592 
    6780    806.62283   -8629.8109   -8539.8309   -4200.9235    19357.132    33.182585 
    6790    807.97001   -8630.1919   -8540.0616   -3522.2129    19340.377    33.123655 
    6800    792.69212   -8628.6787   -8540.2527   -2274.7497    19320.123     33.06905 
    6810    812.52518   -8631.0427   -8540.4043   -1686.5871    19297.707     33.02549 
    6820    829.44657   -8633.0676   -8540.5416   -1519.8049    19273.861    32.998478 
    6830    824.46001   -8632.6561   -8540.6863    -1066.973    19248.889    32.990683 
    6840    831.58007   -8633.6057   -8540.8417   -529.04471    19223.305    33.001483 
    6850    841.95575   -8634.9653   -8541.0439    59.822687    19197.743    33.024754 
    6860    825.04294   -8633.3637   -8541.3289    1072.5478      19172.9    33.050021 
    6870    809.30792   -8631.9587   -8541.6792    1968.7689    19149.832    33.076146 
    6880    818.55762   -8633.4108   -8542.0994    2257.9099    19129.411    33.111255 
    6890    810.16721   -8632.9537   -8542.5784    2696.5596    19111.997    33.167648 
    6900    809.89836   -8633.4676   -8543.1222    2436.0596    19097.897    33.249252 
    6910    813.68763   -8634.4874   -8543.7193    1621.2283    19086.748    33.352333 
    6920    833.31102   -8637.3367   -8544.3796    976.53172    19077.643    33.479261 
    6930    839.10045   -8638.7007   -8545.0978    705.57704    19069.846    33.627483 
    6940    839.35086   -8639.4859    -8545.855    206.09422    19062.966    33.782618 
    6950    840.84725   -8640.4319   -8546.6341   -378.47604    19056.456    33.937536 
    6960    832.11783   -8640.2322   -8547.4082   -808.24606    19049.685    34.093372 
    6970    835.90862   -8641.3888   -8548.1419   -1204.1442    19042.178    34.251971 
    6980    840.68132   -8642.6178   -8548.8386   -915.85324    19033.603    34.418004 
    6990     815.8154   -8640.4748   -8549.4693   -3.8478682    19024.297    34.592695 
    7000    797.59427    -8638.978   -8550.0051    612.94373    19015.191    34.771923 
    7010    794.91999   -8639.1065   -8550.4319    439.23538    19006.893    34.943302 
    7020    815.85825   -8641.7711   -8550.7609   -5.9913232    18999.248    35.092927 
    7030    845.86179   -8645.4111   -8551.0539   -523.20906    18991.751     35.21866 
    7040    822.60558   -8643.1219    -8551.359    306.97272    18983.989    35.324986 
    7050    784.54861   -8639.1348   -8551.6173    1482.2309    18976.791    35.423647 
    7060    835.52093   -8645.0378   -8551.8342    707.26647    18971.163    35.528364 
    7070    853.12274    -8647.236   -8552.0689    441.70872    18966.492    35.648996 
    7080    819.35072   -8643.7447   -8552.3449    1029.5455    18962.496    35.795275 
    7090    821.91775   -8644.3163   -8552.6302    1375.0956    18959.671    35.974176 
    7100    833.04419   -8645.8535   -8552.9262    2012.9556    18958.422    36.183827 
    7110    803.07451    -8642.801   -8553.2168    3113.7565    18959.427    36.414486 
    7120    809.65053   -8643.7747   -8553.4569    3166.4899    18963.672    36.659141 
    7130    852.90265   -8648.8031   -8553.6605    2427.5739    18971.203    36.913242 
    7140    843.25702    -8647.969   -8553.9024    2236.5291    18981.281    37.171135 
    7150    799.08642   -8643.3122   -8554.1729    1775.7931    18993.555    37.431143 
    7160    809.15206   -8644.6845   -8554.4224   -249.98468    19007.342    37.695345 
    7170     826.7779   -8646.8861   -8554.6578   -2239.7365    19020.585    37.966754 
    7180    805.12482   -8644.6989    -8554.886   -2895.8983    19031.243     38.24343 
    7190    817.97486   -8646.3422   -8555.0958   -2535.0248    19038.612    38.518456 
    7200    840.59236   -8649.0569   -8555.2875   -1419.4357    19043.132    38.787291 
    7210    836.59253   -8648.8201   -8555.4969   -177.84661    19046.007    39.055216 
    7220    814.82648   -8646.6216   -8555.7265    495.05478    19048.562    39.321714 
    7230    813.96028   -8646.7483   -8555.9498    373.56583    19051.532    39.578468 
    7240    836.20193    -8649.468   -8556.1884    236.81704    19054.868    39.818476 
    7250    823.69531   -8648.3529   -8556.4685    534.30199    19058.445    40.046568 
    7260    819.35283   -8648.1716   -8556.7716     1075.454    19062.567    40.276116 
    7270    834.83306   -8650.2282   -8557.1013    1951.2019    19067.822    40.511877 
    7280    841.36013   -8651.3554   -8557.5004    2180.6804     19075.02    40.750351 
    7290    829.97966   -8650.5818   -8557.9963    1756.4209    19084.394    40.989026 
    7300    813.66347   -8649.3213   -8558.5559    1276.4531    19095.475    41.232986 
    7310    835.83794   -8652.4097   -8559.1707    526.68525    19107.668    41.488674 
    7320    834.55032   -8652.9375   -8559.8422   -305.32883    19120.166    41.753387 
    7330    827.43958   -8652.8622     -8560.56   -1226.5457    19132.041    42.016044 
    7340    820.57699   -8652.8486    -8561.312   -1932.2354     19142.31    42.268607 
    7350    810.64802   -8652.4893   -8562.0603   -2499.7039     19150.23    42.515375 
    7360    818.59472   -8654.0903   -8562.7748   -2651.3916    19155.267    42.764826 
    7370    813.17928   -8654.1445   -8563.4331   -2130.7467    19157.341    43.013889 
    7380    805.48604   -8653.8488   -8563.9957   -1873.1016    19156.992    43.253644 
    7390    805.74982   -8654.3377   -8564.4551   -1933.6029    19154.545    43.474237 
    7400    797.55696   -8653.7737    -8564.805   -1918.9729    19150.033    43.670634 
    7410    798.59816   -8654.1461   -8565.0613   -2233.2182    19143.488    43.848191 
    7420    798.39275   -8654.2928   -8565.2309   -2453.3314    19134.659    44.014377 
    7430    804.87194   -8655.1244   -8565.3397    -1513.205    19123.454    44.166793 
    7440    789.03309   -8653.3898    -8565.372   -44.182212    19110.882    44.291697 
    7450    826.89089    -8657.593   -8565.3521    305.93604    19098.403    44.384764 
    7460    838.49771    -8658.851   -8565.3153    1115.5098    19086.598    44.468435 
    7470    817.99876   -8656.5305   -8565.2816    2901.3799    19076.398    44.563299 
    7480    842.60032   -8659.2541   -8565.2607    3769.5997    19069.493    44.681026 
    7490    835.78976   -8658.5108   -8565.2772    4228.0523    19066.835    44.823934 
    7500    808.81233   -8655.5528   -8565.3286     4254.374    19068.841    44.993932 
    7510    812.77655   -8656.0441   -8565.3777    2954.4477    19075.345    45.193183 
    7520    822.42917    -8657.155   -8565.4118    1427.5975     19084.96    45.413012 
    7530    833.56095   -8658.4349   -8565.4499    358.66324    19096.029    45.648825 
    7540    847.23031   -8660.0166   -8565.5068   -754.87345    19107.276    45.904566 
    7550    845.60777   -8659.9278    -8565.599   -1642.1464    19117.502    46.187341 
    7560    832.62635   -8658.6004   -8565.7197   -2002.4142    19125.767    46.498323 
    7570    818.07193   -8657.0909   -8565.8338   -1819.3236    19131.731    46.824068 
    7580    819.27561   -8657.3033   -8565.9119   -2170.2566    19135.524    47.141377 
    7590    826.90155   -8658.2061    -8565.964   -2542.4598    19136.862    47.428196 
    7600    815.60185   -8656.9817   -8566.0001   -2406.7829    19135.431     47.67678 
    7610    836.46971   -8659.3484    -8566.039   -1929.5338    19131.418    47.890775 
    7620    832.58709   -8658.9777   -8566.1013   -704.46506    19125.449    48.073814 
    7630    798.83885   -8655.2807    -8566.169    1087.3266    19118.923      48.2338 
    7640     824.9558   -8658.2402   -8566.2151    1330.0283    19113.568    48.388306 
    7650    857.61602    -8661.938   -8566.2697    783.67364     19109.73    48.553604 
    7660    846.69583    -8660.833   -8566.3828    773.47081    19106.909    48.732816 
    7670    830.02452    -8659.138   -8566.5476    814.90518    19104.999    48.918161 
    7680    828.16475   -8659.1228   -8566.7397    279.08624    19103.961    49.100993 
    7690    834.63958   -8660.0738   -8566.9685   -310.14453    19103.267    49.271525 
    7700    838.95826   -8660.8485   -8567.2615   -822.34454    19102.257    49.417616 
    7710    840.54502   -8661.4186   -8567.6545   -1193.5319     19100.39    49.523929 
    7720    838.08789    -8661.663    -8568.173   -1218.6647    19097.285    49.589528 
    7730    831.46135   -8661.5849   -8568.8341   -213.17729    19093.007    49.624128 
    7740    823.32936   -8661.4649   -8569.6213    925.67092    19088.586    49.653408 
    7750    841.57573   -8664.4245   -8570.5455    1299.5676    19085.209    49.700744 
    7760    841.04219   -8665.4286   -8571.6091    1188.7053    19083.268    49.766667 
    7770    815.16987   -8663.6344    -8572.701    1031.9392    19082.691    49.847117 
    7780     811.0109   -8664.1781   -8573.7086   -170.62478    19083.166    49.943952 
    7790    801.44544   -8663.9661   -8574.5636   -976.93366    19083.523    50.058304 
    7800    793.51855   -8663.7424   -8575.2242   -1149.6587    19082.871    50.183697 
    7810    800.38342   -8664.9969   -8575.7129   -1241.4862    19080.968    50.308312 
    7820    797.17821   -8664.9785   -8576.0521   -1163.3232    19077.768    50.423196 
    7830    809.70052   -8666.6025   -8576.2792   -690.51272    19073.396    50.525768 
    7840    820.86785   -8668.0088   -8576.4398   -502.30403    19068.284     50.61724 
    7850      800.152   -8665.8076   -8576.5494   -553.36971     19062.69    50.697676 
    7860    813.57442    -8667.369   -8576.6136   -1029.2185    19056.552    50.767202 
    7870    840.83225   -8670.4581    -8576.662   -1762.5412    19049.362    50.823924 
    7880    830.89794    -8669.416   -8576.7281   -1486.2781    19040.447    50.862943 
    7890    833.76834   -8669.8214   -8576.8132   -613.47194    19030.071    50.883737 
    7900    845.99271   -8671.2917   -8576.9199   -57.071609    19019.141    50.892128 
    7910     842.3451    -8671.033   -8577.0681    262.67759     19008.29    50.889464 
    7920    830.86486   -8669.9256   -8577.2414    475.88174    18997.869      50.8684 
    7930    843.89562   -8671.5742   -8577.4364    221.94219    18988.033    50.824694 
    7940    835.71549   -8670.8736   -8577.6483    804.84911    18978.658    50.769958 
    7950    824.27997   -8669.8249   -8577.8752    1836.2328    18970.323     50.71623 
    7960    834.66213   -8671.2142   -8578.1064    2296.4492    18964.033     50.67684 
    7970    854.73203    -8673.729   -8578.3823    2463.0536    18960.274    50.669592 
    7980    834.83152   -8671.8464   -8578.7197    3360.5017    18959.349    50.705233 
    7990      827.649   -8671.4295    -8579.104    3221.4616    18961.981    50.788044 
    8000    825.99067   -8671.6489   -8579.5084    2449.7343    18968.042    50.905665 
    8010    803.57021   -8669.5442   -8579.9048    1352.1533    18976.679     51.03987 
    8020    794.31105   -8668.8529   -8580.2463   -100.70187    18986.684    51.179654 
    8030    821.44384   -8672.1791   -8580.5458   -1634.8564    18996.467    51.316236 
    8040    825.12054   -8672.8764   -8580.8329   -1622.4693    19004.542     51.44712 
    8050    839.01947   -8674.7406   -8581.1468   -1422.3177    19010.763    51.579422 
    8060    838.11505   -8674.9993   -8581.5064   -1388.2054    19015.347    51.721885 
    8070    826.54227   -8674.1208   -8581.9188   -1272.8609    19018.381    51.875812 
    8080    842.64905   -8676.3983   -8582.3995   -2035.5285    19019.902    52.042644 
    8090    841.95934   -8676.8606   -8582.9387   -3045.7692    19019.186    52.214604 
    8100    833.32296   -8676.4763   -8583.5178    -3775.363    19015.187    52.374858 
    8110    810.04731   -8674.4744   -8584.1124   -3828.6364    19007.209    52.512418 
    8120    797.46696   -8673.6174   -8584.6587   -4404.6342    18995.119    52.619219 
    8130    834.26266   -8678.2328   -8585.1696    -5007.227    18978.416     52.68512 
    8140    836.63788   -8678.9996   -8585.6714   -3754.5331    18956.758     52.70783 
    8150    827.15625   -8678.4116   -8586.1411   -1616.0908    18931.549    52.700469 
    8160    841.13085   -8680.4132   -8586.5838   -82.061817    18905.072    52.686207 
    8170    828.84847   -8679.4613    -8587.002    1194.5276    18879.092    52.681165 
    8180    824.33734   -8679.3578   -8587.4017     1499.834    18854.899    52.686225 
    8190    836.40492   -8681.1184   -8587.8161    1203.7473    18832.812    52.685764 
    8200    834.47533   -8681.3272   -8588.2402    1823.3427    18812.626    52.665497 
    8210    822.57558   -8680.4064   -8588.6469    2783.8449    18794.881    52.629012 
    8220     814.1802   -8679.8306   -8589.0076    3230.6947    18780.456    52.600603 
    8230    825.13399   -8681.3683   -8589.3234    2781.3149      18769.7    52.602708 
    8240    835.50189    -8682.803   -8589.6015    2038.3353    18762.105    52.631411 
    8250    849.01223   -8684.5799   -8589.8713    1233.9386    18756.819    52.677774 
    8260    843.94971    -8684.288   -8590.1441    1474.7807    18753.064    52.741289 
    8270    828.90263   -8682.8689   -8590.4035     2941.773    18751.074    52.827931 
    8280     843.4245   -8684.7359   -8590.6506    3896.6089    18752.196     52.95426 
    8290    853.22024   -8686.0934   -8590.9154     4156.675    18757.374    53.128539 
    8300    836.30784   -8684.4826   -8591.1912    3834.4179    18766.821    53.342875 
    8310    849.71784   -8686.2476   -8591.4603    2075.5966    18780.034    53.581916 
    8320    870.53035   -8688.8481   -8591.7392   -47.439317    18795.191    53.826019 
    8330    858.57863   -8687.8278    -8592.052   -1483.3633    18810.062    54.063853 
    8340    824.17197   -8684.3058   -8592.3682   -2012.0975    18823.128    54.291105 
    8350    813.81128   -8683.4208   -8592.6389   -2557.2428    18833.787    54.507265 
    8360    834.04751   -8685.9119   -8592.8726   -3475.0997    18841.463    54.712878 
    8370    827.79279   -8685.4307   -8593.0892   -3759.8148    18845.352    54.904862 
    8380    832.59483   -8686.1809   -8593.3037   -3847.6718    18845.162    55.080542 
    8390    843.76651   -8687.6676   -8593.5442   -3819.2337    18840.865    55.243295 
    8400     842.2011   -8687.7834   -8593.8346   -3301.1485     18832.62    55.400673 
    8410    835.51592   -8687.3677   -8594.1647   -2525.8174    18821.055    55.556187 
    8420    827.41274   -8686.8123   -8594.5132   -1863.6854    18807.049    55.707427 
    8430    811.60899   -8685.3878   -8594.8516   -1344.1214    18791.349    55.841787 
    8440    811.39186   -8685.6491   -8595.1371   -370.68999    18774.638    55.955428 
    8450    857.33384   -8691.0366   -8595.3997    496.55253    18757.924    56.074021 
    8460    878.69793   -8693.7626   -8595.7426    1078.2016      18742.1    56.230119 
    8470    850.10673    -8691.024   -8596.1933    2152.1221    18727.867    56.437845 
[...]
   22890    830.05184   -8763.5779   -8670.9843   -1019.8137    18602.984    71.919855 
   22900    826.76241   -8763.3409   -8671.1143     585.6414    18587.852    71.793302 
   22910    819.72278    -8762.671   -8671.2297    1327.6471    18573.208    71.652782 
   22920    816.04816   -8762.3592   -8671.3278    1413.3134    18559.839    71.506132 
   22930    824.90165   -8763.4326   -8671.4136    1485.8467    18547.904     71.36019 
   22940    836.43443   -8764.8075   -8671.5019    2021.7831    18537.516    71.230473 
   22950    840.59143   -8765.3897   -8671.6205    2735.4284    18529.202    71.118011 
   22960    827.07558   -8764.0445    -8671.783    3640.3214    18523.752    71.006074 
   22970    806.06773   -8761.8755   -8671.9575    4312.9933     18522.08    70.879725 
   22980    820.28071   -8763.6246    -8672.121     3997.897    18524.839    70.741604 
   22990    831.30397   -8765.0121   -8672.2789    3007.8012    18531.748    70.594718 
   23000    826.11575   -8764.6002   -8672.4457    2619.6419    18541.932    70.444493 
   23010    813.14187   -8763.3126   -8672.6054    2521.4843    18554.981    70.316796 
   23020    801.23873   -8762.1225   -8672.7431    1669.6623    18570.713     70.23327 
   23030    799.19722    -8761.984   -8672.8323    278.52885    18588.301    70.189481 
   23040    812.29318   -8763.4917   -8672.8792   -1330.5559    18606.278    70.158855 
   23050    805.47662   -8762.7335   -8672.8813   -2098.8243    18623.049    70.119985 
   23060    820.35363   -8764.3569   -8672.8452   -2302.1284    18637.771    70.080549 
   23070    831.70181   -8765.5635   -8672.7859   -2528.0371    18650.155    70.056047 
   23080    834.74786   -8765.8584   -8672.7411   -2711.0501    18659.939    70.045479 
   23090    827.30346   -8765.0022   -8672.7152    -2914.197     18666.89    70.031387 
   23100    838.59317   -8766.2436   -8672.6973   -3318.2744    18670.766    69.992962 
   23110    853.18551    -8767.871   -8672.6968   -3607.6037    18671.154    69.923634 
   23120    833.03162   -8765.6746   -8672.7487   -2916.0871      18667.8    69.831648 
   23130    805.25607    -8762.656   -8672.8285   -1627.7397    18661.377    69.727309 
   23140    815.79329   -8763.9003   -8672.8973   -810.79672    18653.158     69.62195 
   23150    818.40206   -8764.2414   -8672.9474   -141.34359    18644.047    69.524581 
   23160    819.75066   -8764.4361   -8672.9917    631.18699    18634.761    69.451116 
   23170    840.49545    -8766.813   -8673.0545    710.03244    18626.022    69.406563 
   23180    853.65671   -8768.4203   -8673.1936    425.49745    18617.942    69.382513 
   23190    817.94385   -8764.6414   -8673.3985    1289.9927    18610.424    69.376325 
   23200    822.58763   -8765.3975   -8673.6366    1407.9858    18604.128    69.386453 
   23210    841.75545   -8767.8084   -8673.9093    1530.6743    18599.309    69.415915 
   23220    832.91677   -8767.1511    -8674.238    1475.2233    18596.052    69.479626 
   23230    808.32699   -8764.7528   -8674.5827    1185.6187    18594.325    69.586148 
   23240    798.74754   -8764.0088   -8674.9073    687.97129    18593.817    69.731166 
   23250    804.01905   -8764.8899   -8675.2003    473.91051    18594.071    69.908672 
   23260    821.16644    -8767.079   -8675.4766    453.37324    18594.854    70.105885 
   23270    821.16208   -8767.3505   -8675.7487    940.88862    18596.169    70.302477 
   23280    822.23624   -8767.7554   -8676.0337     1450.978    18598.489    70.488014 
   23290    804.90727   -8766.1141   -8676.3255    1394.4553     18602.33    70.667268 
   23300    786.14206   -8764.2881   -8676.5928    409.58707    18607.591    70.850468 
   23310    802.68175   -8766.3632   -8676.8228   -1693.7063    18613.183    71.036312 
   23320    778.08508   -8763.7687   -8676.9722   -2831.9284    18617.121    71.200047 
   23330    794.41383   -8765.6479   -8677.0298   -3447.9798    18618.116    71.308726 
   23340    819.29074   -8768.4239   -8677.0308   -3368.8189    18615.524    71.341354 
   23350    799.27789   -8766.1766    -8677.016   -1614.8641    18609.532    71.296964 
   23360    795.44338    -8765.687   -8676.9541    583.71128    18601.857    71.188126 
   23370    805.08797   -8766.6202   -8676.8115    1984.6585    18594.711    71.045181 
   23380     814.8001   -8767.4906   -8676.5985    2008.2634    18589.522    70.905488 
   23390    816.12497   -8767.3903   -8676.3504    1818.3502    18586.447    70.788689 
   23400    779.44806   -8763.0004   -8676.0518    2001.1126     18585.34    70.705576 
   23410    794.71444   -8764.3085   -8675.6569    961.00585    18586.211    70.657325 
   23420    818.92504   -8766.4874   -8675.1351    17.254462    18588.116    70.629189 
   23430    807.11699   -8764.5761    -8674.541    1103.2009     18590.26    70.603588 
   23440    801.74276   -8763.3353   -8673.8996    1846.2065    18593.537    70.569479 
   23450    822.36695   -8764.9439   -8673.2077    1936.0711    18598.732    70.529322 
   23460    821.85035   -8764.1788   -8672.5002    3039.8158    18606.112    70.505863 
   23470    816.61996   -8762.9238   -8671.8286    3661.8244    18616.697    70.523506 
   23480    829.24134   -8763.6888   -8671.1857    2469.9709    18631.055    70.580233 
   23490    839.82149    -8764.263   -8670.5797    510.48747    18648.063    70.643425 
   23500    849.48456   -8764.8101   -8670.0488   -1061.2602    18665.771     70.69005 
   23510    840.79397   -8763.4052   -8669.6133   -1376.1672    18682.588    70.720285 
   23520    874.35142   -8766.8286   -8669.2934   -1552.7573    18698.056    70.739614 
   23530    873.69181   -8766.5724   -8669.1107     -1582.88    18711.992    70.743635 
   23540    810.53148    -8759.468    -8669.052   -1371.7529    18724.356    70.716862 
   23550    815.91738   -8760.0403   -8669.0235   -2616.7596    18735.164    70.648001 
   23560    825.83536   -8761.0941   -8668.9709   -3884.6121    18743.251     70.54775 
   23570    823.83999   -8760.8218   -8668.9212   -4535.0705    18747.279    70.434472 
   23580    838.08304   -8762.3698   -8668.8803   -5001.4326     18746.46    70.309095 
   23590    810.55928   -8759.2451    -8668.826   -4120.2697    18740.427    70.169785 
   23600    804.28394   -8758.4533   -8668.7342   -2838.3755    18730.019     70.03492 
   23610    827.76419   -8760.9478   -8668.6095   -2627.6592    18716.467    69.919677 
   23620    843.61918    -8762.624    -8668.517   -2794.1753    18700.104    69.813263 
   23630    837.49078   -8761.8984   -8668.4751   -2051.8127    18680.882    69.702067 
   23640    845.46964   -8762.7517   -8668.4383   -389.18377    18659.663    69.584438 
   23650    865.66678    -8764.978   -8668.4116    818.82453    18638.093    69.473847 
   23660    853.34382   -8763.6408    -8668.449    2376.8042    18617.562    69.378251 
   23670    817.28971    -8759.699   -8668.5291    3655.5147    18599.671    69.297343 
   23680    822.01532   -8760.2996   -8668.6025    3110.8972    18585.584    69.229505 
   23690    829.06824    -8761.153   -8668.6692    2661.0725    18574.916    69.166795 
   23700    817.52522   -8759.9278   -8668.7317    2899.5748    18567.219    69.092618 
   23710    854.67416   -8764.1784   -8668.8382    1946.5734    18562.499    68.998093 
   23720    854.21243   -8764.3151   -8669.0265    1602.5308    18559.948    68.889482 
   23730    856.33975   -8764.8573   -8669.3314    1236.7202    18559.085    68.786693 
   23740    854.83804   -8765.1303   -8669.7718    455.56668    18559.461    68.701149 
   23750    837.35062   -8763.7575   -8670.3498    662.39983    18560.411    68.614195 
   23760    828.68235   -8763.4729   -8671.0321    589.76727    18562.026    68.512613 
   23770    826.27343   -8763.9381   -8671.7661   -237.19197    18564.196    68.400576 
   23780    844.04869   -8766.7345   -8672.5796   -1248.8709    18566.073    68.283107 
   23790    813.69513   -8764.2392   -8673.4703   -1205.0332     18566.75    68.158323 
   23800    799.81665    -8763.571   -8674.3502   -1005.8924    18566.189    68.023121 
   23810    831.17886   -8767.9083   -8675.1891     -1245.27    18564.528    67.872212 
   23820    818.56518    -8767.264   -8675.9519   -715.48939    18561.679    67.700536 
   23830    809.19267   -8766.8607   -8676.5941    15.499055    18558.136    67.522664 
   23840     811.7688   -8767.6821    -8677.128    418.44548    18554.624    67.361833 
   23850    774.89795   -8763.9616   -8677.5206    629.15217     18551.61    67.219168 
   23860    788.42597   -8765.7196   -8677.7695   -409.77127    18549.175    67.080285 
   23870    810.41588   -8768.3006   -8677.8975   -1030.6375    18546.394    66.941955 
   23880    784.23122   -8765.3994   -8677.9172   -77.007318    18542.765    66.814888 
   23890    782.14195   -8765.0923   -8677.8432    68.385872     18539.04    66.718295 
   23900    787.33432   -8765.5298   -8677.7014   -189.95564    18535.428    66.661627 
   23910    803.20248   -8767.1196   -8677.5212   -255.53717    18531.717    66.635582 
   23920    847.89168   -8771.9251   -8677.3415   -590.92836    18527.787    66.629951 
   23930    838.34196   -8770.7235   -8677.2052   -482.43585    18523.372     66.64457 
   23940    817.02875   -8768.2317   -8677.0909   -171.90021    18518.564    66.670902 
   23950    833.79631   -8769.9848   -8676.9736    359.08346    18513.695    66.698588 
   23960    813.17999   -8767.5724    -8676.861    1931.2969    18509.426    66.727508 
   23970    824.91634   -8768.7897   -8676.7691    2261.5766    18507.142    66.765804 
   23980    847.56911   -8771.2518   -8676.7042    570.11337    18507.063    66.828472 
   23990    830.82838   -8769.3576   -8676.6774   -1314.6827    18507.562    66.925645 
   24000    818.15707   -8767.9377    -8676.671   -2055.7114    18506.777    67.042298 
   24010    798.11117   -8765.6681   -8676.6376   -711.21859    18504.083    67.153283 
   24020     821.0067   -8768.1505   -8676.5659    669.91917    18500.706    67.240455 
   24030    846.46664   -8770.8982   -8676.4736    1684.6886     18498.08    67.295606 
   24040    846.88493   -8770.8857   -8676.4144    2573.0144    18497.228    67.338277 
   24050    837.88711    -8769.883   -8676.4155    2723.7923    18498.984    67.395903 
   24060    808.31288   -8766.6078   -8676.4393    1554.4207    18503.404    67.469339 
   24070    815.81806    -8767.457   -8676.4513      -28.141    18509.325    67.545725 
   24080    816.90272   -8767.5478   -8676.4211   -1279.0038    18515.141    67.622006 
   24090    841.53347   -8770.2513    -8676.377   -2309.1772    18519.526    67.682646 
   24100    837.33617   -8769.7491    -8676.343   -1823.5448    18521.571    67.707931 
   24110     821.4369   -8767.9509   -8676.3184   -499.33629     18521.75     67.70616 
   24120    836.88355   -8769.6544   -8676.2988    303.06324    18521.354    67.707431 
   24130    802.42159   -8765.7947   -8676.2834     1426.553    18521.326    67.727147 
   24140    793.39568   -8764.7507   -8676.2462    1921.1799    18522.723    67.762049 
   24150    808.04904   -8766.2825   -8676.1434    1896.2802    18526.022    67.813714 
   24160    812.08213   -8766.5666   -8675.9776    2389.8014    18531.269    67.891806 
   24170    849.92513   -8770.5844   -8675.7739    1963.4833    18538.784    68.006132 
   24180    845.54143   -8769.8825   -8675.5611    1300.2418     18548.16    68.151467 
   24190    820.75439   -8766.9186   -8675.3622    1121.9751    18558.787    68.310262 
   24200    837.54074   -8768.5734   -8675.1444    158.58787    18570.279    68.471562 
   24210    824.75573   -8766.8961   -8674.8934    8.3217337    18581.814    68.632782 
   24220    829.98825   -8767.2069   -8674.6205   -424.49343     18593.11    68.790409 
   24230    842.23129   -8768.2648   -8674.3127   -1236.1037    18603.717    68.928949 
   24240    850.06165   -8768.8232   -8673.9976     -1871.08     18612.84    69.040258 
   24250    866.34262   -8770.3502   -8673.7083   -1537.3189    18619.925    69.133489 
   24260    850.40414   -8768.3366   -8673.4727   -916.05125    18625.295    69.217814 
   24270    830.46178   -8765.9233    -8673.284   -702.37208    18629.579    69.297175 
   24280    829.93398   -8765.6805   -8673.1001   -810.95359    18633.014    69.392927 
   24290    829.17039   -8765.4015   -8672.9063   -665.41586    18635.581    69.518269 
   24300    835.02871   -8765.8571   -8672.7084   -480.45346    18637.431    69.656004 
   24310    845.95901   -8766.8813   -8672.5133   -572.72471     18638.73    69.788544 
   24320    842.35399   -8766.3113   -8672.3455   -140.34934    18639.469     69.91003 
   24330    837.79663   -8765.6617   -8672.2042    637.34718    18640.071    70.019885 
   24340    851.93059   -8767.1206   -8672.0865    1197.5358    18641.312    70.138654 
   24350    862.43905    -8768.219   -8672.0126    1886.8661    18643.817    70.289088 
   24360    862.02595   -8768.1881   -8672.0278    2432.0604    18648.253    70.475474 
   24370    828.77752   -8764.5662   -8672.1148    2153.2783    18655.111    70.689092 
   24380    834.67767   -8765.3395     -8672.23    829.94335    18664.012     70.90907 
   24390    855.94328   -8767.8696   -8672.3878   -15.196724     18673.71    71.118259 
   24400    841.14611   -8766.4464   -8672.6153    235.36523    18683.374    71.318689 
   24410    857.07676   -8768.5349   -8672.9267   -101.81968    18693.047    71.517665 
   24420    856.39908   -8768.8628   -8673.3301   -90.589937      18702.5    71.713883 
   24430    847.95709   -8768.4251   -8673.8342    647.16708      18711.8    71.913253 
   24440    828.71451    -8766.859   -8674.4146    1380.3845    18721.649    72.117443 
   24450    800.90174   -8764.3456   -8675.0038    1394.1141    18732.739    72.318819 
   24460     815.4067    -8766.535   -8675.5751    248.65814     18745.04    72.511245 
   24470    812.76468   -8766.7754   -8676.1103    -1481.833    18757.376    72.688904 
   24480    824.78699    -8768.624   -8676.6177   -3385.1813    18767.928    72.844404 
   24490     816.4448   -8768.1944   -8677.1187   -3892.1771    18774.838    72.976432 
   24500    777.66622   -8764.3131   -8677.5632   -2764.1992    18777.664    73.087824 
   24510     795.6674   -8766.6741   -8677.9162   -2073.5929    18777.464    73.174519 
   24520    818.86821   -8769.5562   -8678.2102   -1031.2068    18775.113    73.226124 
   24530    807.07397   -8768.5006   -8678.4702   -123.86744    18771.671    73.249377 
   24540    807.02138   -8768.7155    -8678.691   -296.89159    18768.033    73.260732 
   24550    830.38536   -8771.5115   -8678.8807     -866.829    18764.091    73.265605 
   24560    833.34098   -8772.0407   -8679.0802   -876.77156    18759.323    73.257392 
   24570    798.90589   -8768.3913   -8679.2722    378.72344     18753.82    73.223097 
   24580    826.23969   -8771.6106   -8679.4423    1519.6488    18748.769    73.161361 
   24590    838.39028   -8773.1327    -8679.609    2840.2343    18745.424    73.092024 
   24600    816.71442   -8770.8958   -8679.7901    3889.0917    18745.128    73.036096 
   24610    807.72214   -8770.0624   -8679.9598    3391.2569    18748.827     73.00074 
   24620      816.868   -8771.2278   -8680.1049    1708.3083    18755.996    72.990328 
   24630    827.21166   -8772.5139   -8680.2372     260.8582    18764.933     72.99948 
   24640    827.18305   -8772.6541   -8680.3806   -21.235058    18774.187    73.016702 
   24650     834.7026   -8773.6636   -8680.5513   -648.31545    18783.277    73.043204 
   24660    803.19169   -8770.3333   -8680.7361   -889.81106    18791.639    73.093153 
   24670    785.64391   -8768.5273   -8680.8876   -1519.3755     18798.93    73.177504 
   24680    811.57181   -8771.5249   -8680.9928    -2407.839    18804.498    73.288644 
   24690    794.82162   -8769.7305   -8681.0669    -2487.091    18807.535    73.397511 
   24700    777.96648   -8767.8763    -8681.093    -2663.324     18807.88    73.474383 
   24710    793.65663   -8769.5648   -8681.0312   -2995.8788    18805.357    73.503336 
   24720    815.73373   -8771.8723   -8680.8759   -2896.3888    18799.696    73.481017 
   24730    829.57268   -8773.1984   -8680.6584   -2120.4687     18791.05    73.419762 
   24740    826.60431   -8772.5954   -8680.3865   -924.07818    18780.274    73.347508 
   24750    832.94643   -8772.9691   -8680.0526   -399.81828    18768.547    73.293509 
   24760    842.44616   -8773.6476   -8679.6714   -759.03117    18756.364    73.270784 
   24770    811.82887   -8769.8134   -8679.2527   -628.75791    18743.514    73.269783 
   24780    801.07895   -8768.1317   -8678.7702    -58.57477    18730.131    73.276781 
   24790    810.77701   -8768.6261   -8678.1827     798.4795    18716.777    73.284257 
   24800    808.19613   -8767.6528   -8677.4973     2324.128    18704.439    73.286761 
   24810    829.28539    -8769.265    -8676.757    3088.5075    18694.603    73.276545 
   24820    843.64934    -8770.119   -8676.0086    3011.9652    18688.027    73.251049 
   24830    839.76142   -8768.9928   -8675.3161    3038.3887    18684.684    73.218533 
   24840    850.66393   -8769.5942   -8674.7014    2790.2072    18684.537    73.181358 
   24850    843.76976      -8768.3   -8674.1762    3196.5833     18687.44     73.15269 
   24860    823.61654   -8765.6176    -8673.742    3406.1192    18693.716    73.166564 
   24870    829.33996   -8765.8725   -8673.3584    2279.1073    18703.458    73.245042 
   24880    860.60604   -8769.0064   -8673.0045    289.99474    18715.503    73.371255 
   24890    860.44474   -8768.6951   -8672.7112   -1169.1963    18727.868    73.503853 
   24900    840.47863   -8766.2416   -8672.4849   -2322.9471    18738.978    73.613514 
   24910    862.82999   -8768.5569   -8672.3069   -4075.4233    18747.479    73.686675 
   24920    867.32139   -8768.9669   -8672.2159   -4550.9088    18751.716    73.719824 
   24930    836.34139   -8765.5213   -8672.2262    -2759.976    18751.307    73.723887 
   24940    834.42177    -8765.359    -8672.278   -1339.6704    18747.907     73.70933 
   24950    846.72542   -8766.8051   -8672.3516   -902.23986    18743.007    73.674506 
   24960    858.73045   -8768.2796   -8672.4869   -475.60624    18737.173    73.611537 
   24970    853.11817   -8767.8592   -8672.6926    304.15324    18730.921    73.517249 
   24980    859.74661   -8768.8686   -8672.9625    730.30196        18725    73.406051 
   24990     877.2661   -8771.1947   -8673.3344    998.56233    18719.861    73.297025 
   25000    852.97018   -8768.9629   -8673.8127    2164.6442    18715.923    73.210219 
Loop time of 13364.9 on 16 procs for 20000 steps with 864 atoms

Performance: 0.129 ns/day, 185.624 hours/ns, 1.496 timesteps/s
95.9% CPU use with 16 MPI tasks x 1 OpenMP threads

MPI task timing breakdown:
Section |  min time  |  avg time  |  max time  |%varavg| %total
---------------------------------------------------------------
Pair    | 3418.7     | 7515.4     | 13100      |4054.3 | 56.23
Bond    | 0.0014808  | 0.0033601  | 0.0096414  |   3.6 |  0.00
Neigh   | 0.16405    | 0.34229    | 0.64775    |  31.3 |  0.00
Comm    | 204.32     | 4425.4     | 8776.2     |4470.7 | 33.11
Output  | 1.7789     | 1.8076     | 2.2242     |   8.0 |  0.01
Modify  | 58.307     | 1421.9     | 6151.4     |5256.5 | 10.64
Other   |            | 0.0916     |            |       |  0.00

Nlocal:        54.0000 ave          89 max          30 min
Histogram: 6 2 0 2 0 0 1 1 1 3
Nghost:        517.500 ave         688 max         334 min
Histogram: 2 2 1 3 0 2 0 1 1 4
Neighs:         0.00000 ave           0 max           0 min
Histogram: 16 0 0 0 0 0 0 0 0 0
FullNghs:      2829.62 ave        6027 max         802 min
Histogram: 8 0 2 0 0 0 1 1 0 4

Total # of neighbors = 45274
Ave neighs/atom = 52.400463
Ave special neighs/atom = 0.0000000
Neighbor list builds = 2000
Dangerous builds = 2000
unfix   3
                
Total wall time: 4:35:17
