LAMMPS (29 Sep 2021 - Update 3)
OMP_NUM_THREADS environment is not set. Defaulting to 1 thread. (src/comm.cpp:98)
  using 1 OpenMP thread(s) per MPI task
units	metal
atom_style	full

read_data	mixed.data
Reading data file ...
  orthogonal box = (0.0000000 0.0000000 0.0000000) to (19.174564 18.334371 80.209106)
  2 by 1 by 8 MPI processor grid
  reading atoms ...
  864 atoms
Finding 1-2 1-3 1-4 neighbors ...
  special bond factors lj:    0        0        0       
  special bond factors coul:  0        0        0       
     0 = max # of 1-2 neighbors
     0 = max # of 1-3 neighbors
     0 = max # of 1-4 neighbors
     1 = max # of special neighbors
  special bonds CPU = 0.001 seconds
  read_data CPU = 0.027 seconds

pair_style	quip
pair_coeff	* * /ocean/projects/cts180021p/wuziqi/clease/mint-PD/PhaseDiagram-Clease/Liquid/GAP_potential/gap_LiKCl.xml "Potential xml_label=GAP_2021_9_27_0_1_17_37_618" 17 19 3

neighbor	0.3 bin
neigh_modify	delay 10

timestep	0.001
compute	msd all msd
thermo_style	custom step temp pe etotal press vol c_msd[4]
thermo	10
dump	1 all custom 10 xyz-mix.dump type id x y z
dump	2 all custom 10 force-mix.dump type id fx fy fz

fix     1 all nve
run     2000
Neighbor list info ...
  update every 1 steps, delay 10 steps, check yes
  max neighbors/atom: 2000, page size: 100000
  master list distance cutoff = 6.22
  ghost atom cutoff = 6.22
  binsize = 3.11, bins = 7 6 26
  1 neighbor lists, perpetual/occasional/extra = 1 0 0
  (1) pair quip, perpetual
      attributes: full, newton on
      pair build: full/bin
      stencil: full/bin/3d
      bin: standard
Per MPI rank memory allocation (min/avg/max) = 8.893 | 8.896 | 8.899 Mbytes
Step Temp PotEng TotEng Press Volume c_msd[4] 
       0            0   -7433.4988   -7433.4988   -3276.2935    28197.798            0 
      10    52.404798   -7439.3508    -7433.505   -3251.1444    28197.798 0.00037653742 
      20    139.99986   -7449.1283   -7433.5111   -2882.4638    28197.798 0.0046525409 
      30    184.89844   -7454.1347    -7433.509   -2125.0677    28197.798  0.015985103 
      40    208.94932   -7456.8149   -7433.5063   -1662.4669    28197.798  0.031135218 
      50    246.75939   -7461.0345   -7433.5082   -1664.6184    28197.798   0.04535964 
      60    276.85124   -7464.3928   -7433.5096   -1760.8171    28197.798  0.058304449 
      70    281.74509   -7464.9368   -7433.5077   -1780.9744    28197.798  0.071745136 
      80    278.62215   -7464.5886   -7433.5078   -1830.5145    28197.798  0.086537519 
      90    271.63877   -7463.8088   -7433.5071   -1784.3037    28197.798   0.10323335 
     100    268.54351   -7463.4633   -7433.5068   -1527.9053    28197.798   0.12174182 
     110    273.48277   -7464.0152   -7433.5078   -1273.3517    28197.798   0.14167857 
     120    278.69582   -7464.5968   -7433.5079   -1205.0202    28197.798   0.16248057 
     130    280.47217   -7464.7953   -7433.5082   -1323.1784    28197.798   0.18317475 
     140    277.20241   -7464.4295   -7433.5071   -1372.0801    28197.798   0.20283031 
     150    282.78617    -7465.053   -7433.5078   -1505.2169    28197.798   0.22058727 
     160     290.1136   -7465.8712   -7433.5086   -1674.0159    28197.798   0.23758181 
     170    284.88573   -7465.2876   -7433.5082   -1706.4981    28197.798   0.25570249 
     180    274.35333   -7464.1113   -7433.5068   -1718.6147    28197.798    0.2744632 
     190    276.48598   -7464.3491   -7433.5066   -1804.1052    28197.798   0.29182989 
     200    291.90348   -7466.0708   -7433.5085   -1940.0736    28197.798   0.30710935 
     210    297.83834   -7466.7336   -7433.5092    -1986.102    28197.798    0.3219422 
     220    286.77102   -7465.4971   -7433.5074   -2078.2599    28197.798   0.33684136 
     230    279.78719   -7464.7179   -7433.5072   -2190.0553    28197.798   0.35047641 
     240    281.73444   -7464.9357   -7433.5078    -2262.753    28197.798   0.36287355 
     250    285.80956   -7465.3901   -7433.5076    -2332.639    28197.798   0.37537005 
     260    292.11854   -7466.0939   -7433.5076   -2475.3781    28197.798    0.3890125 
     270    301.52725   -7467.1437   -7433.5079    -2617.426    28197.798   0.40407374 
     280    309.73897   -7468.0605   -7433.5086   -2752.0145    28197.798   0.42025778 
     290     308.0229   -7467.8686   -7433.5082   -2715.4369    28197.798   0.43692842 
     300    301.85764   -7467.1796   -7433.5069   -2565.9773    28197.798   0.45280033 
     310    304.69869   -7467.4976    -7433.508   -2628.8465    28197.798   0.46676108 
     320     307.0623   -7467.7615   -7433.5082   -2768.8787    28197.798   0.47983687 
     330    305.41709   -7467.5778    -7433.508      -2765.1    28197.798   0.49324396 
     340    302.56991     -7467.26   -7433.5078   -2716.3178    28197.798   0.50716353 
     350    300.34229   -7467.0112   -7433.5075   -2658.0167    28197.798   0.52121437 
     360    300.13685   -7466.9889   -7433.5081   -2535.9529    28197.798    0.5349885 
     370    296.38971   -7466.5706   -7433.5079   -2515.3636    28197.798   0.54851429 
     380    291.53808   -7466.0294   -7433.5079    -2529.736    28197.798   0.56205372 
     390     290.1885   -7465.8788   -7433.5078   -2482.9536    28197.798   0.57569719 
     400    291.57655   -7466.0341   -7433.5083   -2460.7608    28197.798   0.58950816 
     410    291.81754   -7466.0603   -7433.5076   -2418.5806    28197.798   0.60282046 
     420    298.48497   -7466.8046   -7433.5081   -2435.9821    28197.798   0.61423917 
     430    304.86003   -7467.5166    -7433.509   -2500.2682    28197.798   0.62410746 
     440    300.53815   -7467.0334   -7433.5079   -2482.1647    28197.798   0.63337578 
     450    297.90616   -7466.7393   -7433.5074   -2405.1031    28197.798   0.64188608 
     460    305.04414   -7467.5363   -7433.5082   -2344.8776    28197.798   0.64994066 
     470    313.18339   -7468.4445   -7433.5084   -2312.4999    28197.798   0.65909106 
     480    315.98519   -7468.7577   -7433.5091    -2216.287    28197.798   0.67012074 
     490    307.67199   -7467.8296   -7433.5083   -2089.9887    28197.798   0.68241459 
     500    299.91726   -7466.9628   -7433.5066    -1960.647    28197.798   0.69416783 
     510    308.53611   -7467.9263   -7433.5087   -1960.4852    28197.798   0.70416346 
     520    314.23793   -7468.5623   -7433.5086    -2016.915    28197.798   0.71410879 
     530    312.42144   -7468.3595   -7433.5085   -1984.2099    28197.798   0.72571833 
     540    307.01613   -7467.7561    -7433.508   -1823.8796    28197.798   0.73855723 
     550    303.44774   -7467.3583   -7433.5082   -1689.4313    28197.798   0.75080443 
     560    302.80868   -7467.2868   -7433.5081   -1721.8734    28197.798   0.76028881 
     570    306.14156   -7467.6591   -7433.5086   -1896.0317    28197.798   0.76577262 
     580    306.93991    -7467.748   -7433.5084   -2073.7003    28197.798   0.76829475 
     590    304.78082   -7467.5068   -7433.5081   -2160.3833    28197.798   0.76976388 
     600    306.71546   -7467.7219   -7433.5073    -2171.429    28197.798   0.77165514 
     610    317.96515   -7468.9782   -7433.5087   -2147.6693    28197.798   0.77469492 
     620    323.44563   -7469.5898    -7433.509   -2055.8519    28197.798   0.77920454 
     630    319.88606   -7469.1913   -7433.5076   -1961.8604    28197.798   0.78506808 
     640    323.09929   -7469.5502   -7433.5079   -1999.1427    28197.798   0.79162168 
     650    330.22678   -7470.3467   -7433.5094   -2105.0366    28197.798     0.799145 
     660    325.03755   -7469.7673   -7433.5088   -2197.0267    28197.798   0.80803625 
     670    314.39576   -7468.5789   -7433.5076   -2235.4599    28197.798    0.8167893 
     680    312.43479   -7468.3614   -7433.5088   -2308.4479    28197.798   0.82351397 
     690    307.50893   -7467.8118   -7433.5087   -2373.4206    28197.798   0.82881195 
     700    298.71836   -7466.8303   -7433.5078   -2292.5189    28197.798   0.83403601 
     710    295.74109    -7466.498   -7433.5077   -2234.6653    28197.798    0.8394168 
     720    303.45036   -7467.3579   -7433.5076   -2292.9548    28197.798   0.84453546 
     730    318.26702   -7469.0126   -7433.5094    -2401.384    28197.798   0.84949034 
     740    319.34393    -7469.132   -7433.5087   -2368.6494    28197.798   0.85545651 
     750    314.90106   -7468.6353   -7433.5076   -2297.5898    28197.798   0.86221479 
     760    318.89541   -7469.0818   -7433.5085   -2261.3305    28197.798     0.868374 
     770    321.30469   -7469.3508   -7433.5087   -2239.4677    28197.798   0.87328839 
     780     318.1442   -7468.9979   -7433.5085   -2193.7408    28197.798   0.87694376 
     790    311.48519   -7468.2551   -7433.5085   -2098.5648    28197.798   0.87939462 
     800    306.47815   -7467.6949   -7433.5068   -1982.0979    28197.798   0.88141231 
     810    316.96018   -7468.8665   -7433.5091    -1983.996    28197.798   0.88434461 
     820    319.28905   -7469.1263   -7433.5092    -1988.341    28197.798   0.89005413 
     830    311.73538   -7468.2821   -7433.5075   -1995.9118    28197.798   0.89840964 
     840    311.65354   -7468.2738   -7433.5084   -2001.3043    28197.798   0.90692957 
     850    312.67197   -7468.3873   -7433.5082   -2004.4044    28197.798    0.9137187 
     860    315.83867   -7468.7406   -7433.5083   -2079.1873    28197.798   0.91829904 
     870    320.71995   -7469.2858    -7433.509   -2168.5597    28197.798   0.92142159 
     880    320.57652   -7469.2691   -7433.5083   -2173.6428    28197.798   0.92519045 
     890    318.91447   -7469.0843   -7433.5089   -2156.9615    28197.798   0.93124072 
     900    312.61391   -7468.3805   -7433.5079    -2099.649    28197.798   0.93924677 
     910    312.10913   -7468.3244   -7433.5082   -2047.7717    28197.798   0.94673589 
     920    316.04181   -7468.7639    -7433.509   -1987.5347    28197.798   0.95198829 
     930    315.03787    -7468.652    -7433.509   -1844.1499    28197.798   0.95534233 
     940    309.80641    -7468.067   -7433.5076   -1661.8607    28197.798   0.95785559 
     950    314.68824   -7468.6122   -7433.5082   -1685.0824    28197.798   0.96071691 
     960    324.95429   -7469.7579   -7433.5087   -1820.0386    28197.798   0.96600779 
     970    331.35116   -7470.4718   -7433.5091    -1957.237    28197.798   0.97519119 
     980     329.7825   -7470.2967    -7433.509   -1901.9892    28197.798   0.98742251 
     990    322.65959   -7469.5016   -7433.5084   -1774.2109    28197.798    1.0002266 
    1000    316.60889   -7468.8269   -7433.5087   -1746.2277    28197.798     1.011533 
    1010    311.25193    -7468.229   -7433.5084   -1845.6806    28197.798      1.02082 
    1020    307.20804   -7467.7784   -7433.5089   -2068.9867    28197.798    1.0281087 
    1030    300.75734    -7467.058    -7433.508   -2239.9958    28197.798    1.0338805 
    1040    299.87308   -7466.9592   -7433.5079   -2372.2706    28197.798    1.0391214 
    1050    306.88679   -7467.7423   -7433.5086   -2472.0727    28197.798    1.0450663 
    1060    312.67567   -7468.3884    -7433.509   -2543.5336    28197.798    1.0516895 
    1070     312.8664   -7468.4091   -7433.5084   -2570.2571    28197.798    1.0572381 
    1080    312.76626   -7468.3979   -7433.5084   -2664.3961    28197.798    1.0603499 
    1090    312.81427   -7468.4033   -7433.5084   -2700.2906    28197.798    1.0615235 
    1100    312.52187   -7468.3705   -7433.5082   -2687.2237    28197.798    1.0621707 
    1110    312.75056   -7468.3963   -7433.5085   -2641.2369    28197.798    1.0634308 
    1120    311.63928   -7468.2725   -7433.5087   -2523.8064    28197.798    1.0656422 
    1130    309.44865   -7468.0275    -7433.508   -2319.4135    28197.798    1.0686259 
    1140    314.06598   -7468.5434   -7433.5089   -2167.0113    28197.798    1.0722483 
    1150    316.84713   -7468.8536   -7433.5088   -2057.6275    28197.798    1.0766087 
    1160     317.6305   -7468.9401    -7433.508   -1909.0819    28197.798    1.0804093 
    1170    324.21655   -7469.6761   -7433.5093   -1794.4319    28197.798    1.0823291 
    1180    324.83339   -7469.7444   -7433.5088   -1595.8979    28197.798      1.08324 
    1190     323.0656    -7469.547   -7433.5086   -1375.8946    28197.798    1.0843645 
    1200    326.00229   -7469.8755   -7433.5094   -1363.0761    28197.798    1.0866847 
    1210    323.60131   -7469.6075   -7433.5093   -1443.8788    28197.798    1.0914376 
    1220    314.86633   -7468.6315   -7433.5077    -1441.619    28197.798    1.0987426 
    1230    317.32768   -7468.9064    -7433.508   -1559.6432    28197.798    1.1065849 
    1240    326.61768   -7469.9442   -7433.5095    -1737.292    28197.798    1.1124274 
    1250    327.91435   -7470.0882   -7433.5088   -1749.2493    28197.798    1.1148136 
    1260    327.41425   -7470.0321   -7433.5085   -1712.0432    28197.798    1.1139762 
    1270    328.75653   -7470.1825   -7433.5092   -1683.8137    28197.798    1.1115386 
    1280    325.80598   -7469.8529   -7433.5088   -1538.0149    28197.798    1.1099118 
    1290    323.59797   -7469.6061   -7433.5083    -1393.147    28197.798    1.1110394 
    1300    328.71985   -7470.1782    -7433.509   -1431.9253    28197.798    1.1157633 
    1310    332.05384   -7470.5509   -7433.5098   -1601.7046    28197.798    1.1238464 
    1320    326.34719   -7469.9128   -7433.5083    -1756.141    28197.798    1.1334851 
    1330    324.68525   -7469.7281    -7433.509   -1866.9567    28197.798    1.1424768 
    1340    323.62895   -7469.6106   -7433.5093   -1820.3961    28197.798    1.1503474 
    1350    321.18374   -7469.3371   -7433.5086   -1632.9848    28197.798    1.1571992 
    1360    323.09507   -7469.5509   -7433.5091   -1587.1482    28197.798    1.1631636 
    1370    324.29232   -7469.6842   -7433.5089   -1616.6449    28197.798    1.1686982 
    1380     326.2503   -7469.9023   -7433.5086   -1636.9188    28197.798     1.173831 
    1390    332.41763   -7470.5906   -7433.5089   -1665.6686    28197.798     1.178143 
    1400     337.5602   -7471.1651   -7433.5097   -1687.4959    28197.798    1.1818866 
    1410    333.85834   -7470.7513   -7433.5089   -1669.0761    28197.798    1.1862746 
    1420    329.15392   -7470.2262   -7433.5086   -1696.7844    28197.798     1.192114 
    1430    328.52491   -7470.1563   -7433.5089   -1763.0447    28197.798    1.1993094 
    1440     327.3183   -7470.0222   -7433.5093   -1740.2368    28197.798    1.2070267 
    1450    320.56166   -7469.2677   -7433.5086   -1571.8358    28197.798    1.2140574 
    1460    317.21612   -7468.8939    -7433.508   -1450.6782    28197.798    1.2193446 
    1470    324.56132   -7469.7143    -7433.509   -1410.6769    28197.798    1.2226826 
    1480    330.13379   -7470.3368   -7433.5098   -1431.8034    28197.798    1.2245776 
    1490    325.99003   -7469.8731   -7433.5084   -1460.0301    28197.798    1.2251991 
    1500    326.34111   -7469.9125   -7433.5087   -1492.8131    28197.798    1.2250425 
    1510    328.98361   -7470.2082   -7433.5096   -1366.0993    28197.798    1.2258269 
    1520    323.19049   -7469.5616   -7433.5092   -1233.2236    28197.798    1.2287949 
    1530    314.30765   -7468.5695    -7433.508   -1166.0146    28197.798     1.233467 
    1540    316.88621   -7468.8578   -7433.5086   -1296.0227    28197.798    1.2387587 
    1550    324.65879   -7469.7256   -7433.5094   -1479.6195    28197.798    1.2448694 
    1560    327.50012   -7470.0423   -7433.5091   -1643.9366    28197.798    1.2525129 
    1570    327.65604   -7470.0595    -7433.509   -1741.9673    28197.798    1.2614899 
    1580    328.47786    -7470.151   -7433.5088   -1769.2005    28197.798    1.2709819 
    1590    329.28696   -7470.2422   -7433.5097   -1803.0203    28197.798    1.2802744 
    1600     321.9951   -7469.4276   -7433.5085   -1826.5634    28197.798    1.2894024 
    1610    317.74199   -7468.9527   -7433.5082   -1871.7877    28197.798    1.2978342 
    1620    322.49906   -7469.4845   -7433.5092   -1926.4056    28197.798    1.3047741 
    1630    324.53767   -7469.7123   -7433.5097    -1886.055    28197.798    1.3106314 
    1640    321.32055   -7469.3524   -7433.5086   -1889.5966    28197.798    1.3165616 
    1650    324.87363   -7469.7495   -7433.5094   -2048.7483    28197.798    1.3231018 
    1660    327.06048   -7469.9934   -7433.5093   -2321.9126    28197.798    1.3301325 
    1670    327.01807    -7469.988   -7433.5087   -2463.2173    28197.798    1.3371232 
    1680    332.73575   -7470.6262    -7433.509   -2473.9756    28197.798    1.3434501 
    1690    340.27634   -7471.4684   -7433.5101   -2358.4231    28197.798     1.349213 
    1700    337.44669   -7471.1522   -7433.5095   -2252.2725    28197.798    1.3549843 
    1710    330.67556    -7470.396   -7433.5086   -2160.1691    28197.798    1.3604068 
    1720    331.67093   -7470.5077   -7433.5093   -2156.9409    28197.798    1.3647557 
    1730    333.01289   -7470.6579   -7433.5098   -2021.7211    28197.798    1.3682441 
    1740    330.44178   -7470.3703    -7433.509   -1850.1577    28197.798    1.3714091 
    1750     332.4665    -7470.596   -7433.5089   -1832.8568    28197.798    1.3748089 
    1760    338.17048   -7471.2334     -7433.51   -1973.1084    28197.798    1.3794872 
    1770    335.21561    -7470.903   -7433.5092   -2005.2986    28197.798    1.3861103 
    1780    331.46871   -7470.4842   -7433.5083    -2006.432    28197.798    1.3935425 
    1790    336.57308   -7471.0542    -7433.509   -1950.7177    28197.798    1.4003036 
    1800    342.16681   -7471.6789   -7433.5097   -1858.6382    28197.798    1.4064058 
    1810    341.53807   -7471.6084   -7433.5093   -1744.4176    28197.798    1.4119797 
    1820    338.74843   -7471.2969    -7433.509   -1716.7454    28197.798    1.4163984 
    1830    337.43007   -7471.1504   -7433.5096   -1688.5283    28197.798    1.4193696 
    1840    332.09753   -7470.5554   -7433.5094   -1600.2009    28197.798    1.4219384 
    1850    325.17964    -7469.783   -7433.5087    -1439.338    28197.798    1.4258708 
    1860    325.05027   -7469.7687   -7433.5089    -1373.363    28197.798    1.4317493 
    1870    331.46526   -7470.4843   -7433.5088    -1327.857    28197.798    1.4388941 
    1880    342.15073   -7471.6771   -7433.5097   -1249.4856    28197.798    1.4469071 
    1890    346.12273   -7472.1203   -7433.5098   -1070.4903    28197.798    1.4557041 
    1900    342.16962    -7471.678   -7433.5085   -929.47635    28197.798    1.4642996 
    1910     342.4351   -7471.7085   -7433.5094   -1069.1378    28197.798    1.4714358 
    1920    340.30349   -7471.4704    -7433.509   -1312.7881    28197.798    1.4769569 
    1930    335.83125   -7470.9717   -7433.5092   -1652.4617    28197.798    1.4812625 
    1940    329.14467   -7470.2254   -7433.5088   -1839.7793    28197.798     1.484747 
    1950    325.46317   -7469.8145   -7433.5086    -1862.611    28197.798    1.4876872 
    1960    325.80538   -7469.8536   -7433.5095   -1803.4783    28197.798    1.4908352 
    1970    322.63237   -7469.4987   -7433.5085   -1762.1388    28197.798    1.4943863 
    1980    323.28026   -7469.5712   -7433.5088   -1849.0487    28197.798    1.4974264 
    1990    326.60106   -7469.9416   -7433.5087   -1955.1148    28197.798     1.499423 
    2000    331.22759   -7470.4581   -7433.5091   -2018.3182    28197.798     1.500266 
Loop time of 1545.85 on 16 procs for 2000 steps with 864 atoms

Performance: 0.112 ns/day, 214.701 hours/ns, 1.294 timesteps/s
97.8% CPU use with 16 MPI tasks x 1 OpenMP threads

MPI task timing breakdown:
Section |  min time  |  avg time  |  max time  |%varavg| %total
---------------------------------------------------------------
Pair    | 1166.3     | 1423.2     | 1537.6     | 256.6 | 92.07
Bond    | 0.00018501 | 0.00045903 | 0.0012922  |   0.0 |  0.00
Neigh   | 0.019605   | 0.024078   | 0.026441   |   1.2 |  0.00
Comm    | 7.8084     | 117.07     | 375.99     | 895.6 |  7.57
Output  | 0.28358    | 2.9431     | 8.2257     | 171.1 |  0.19
Modify  | 0.0097063  | 0.011463   | 0.014295   |   1.2 |  0.00
Other   |            | 2.615      |            |       |  0.17

Nlocal:        54.0000 ave          62 max          42 min
Histogram: 1 0 0 1 2 2 4 3 1 2
Nghost:        408.688 ave         443 max         379 min
Histogram: 2 2 1 1 2 3 1 3 0 1
Neighs:         0.00000 ave           0 max           0 min
Histogram: 16 0 0 0 0 0 0 0 0 0
FullNghs:      1634.62 ave        2021 max        1124 min
Histogram: 1 0 1 1 3 1 5 2 0 2

Total # of neighbors = 26154
Ave neighs/atom = 30.270833
Ave special neighs/atom = 0.0000000
Neighbor list builds = 199
Dangerous builds = 198
unfix   1

velocity    all create 375.0 1312343 dist gaussian
fix     2 all npt temp 375.0 375.0 $(100.0*dt) aniso 0.0 1.01325 $(1000.0*dt)
fix     2 all npt temp 375.0 375.0 0.10000000000000000555 aniso 0.0 1.01325 $(1000.0*dt)
fix     2 all npt temp 375.0 375.0 0.10000000000000000555 aniso 0.0 1.01325 1
run     3000
Per MPI rank memory allocation (min/avg/max) = 8.897 | 8.898 | 8.900 Mbytes
Step Temp PotEng TotEng Press Volume c_msd[4] 
    2000          375   -7470.4581   -7428.6263   -1833.3574    28197.798     1.500266 
    2010    367.03382   -7469.5741    -7428.631   -1805.9919    28192.954    1.4957873 
    2020    352.77214   -7467.9831   -7428.6309   -1746.0204    28178.516    1.4913419 
    2030    346.08764   -7467.2029   -7428.5963   -1543.6577    28154.859    1.4867691 
    2040    352.19211   -7467.7923   -7428.5048   -1182.1429    28123.104    1.4824386 
    2050    361.97736   -7468.7337   -7428.3546   -771.42018    28085.157    1.4792572 
    2060    359.31524   -7468.2406   -7428.1584   -364.16343    28043.192    1.4773773 
    2070    355.13538    -7467.536   -7427.9201    115.15036     27999.46    1.4761156 
    2080    360.37347   -7467.8339   -7427.6337     413.1575    27956.366    1.4760692 
    2090    368.44805   -7468.4141   -7427.3131    520.19631    27915.509    1.4785085 
    2100    374.72209   -7468.7913   -7426.9904    520.13857    27877.494    1.4838863 
    2110    380.12842   -7469.0995   -7426.6956    520.11765    27842.382    1.4926797 
    2120    378.51004   -7468.6721   -7426.4488    492.68766    27810.147    1.5051404 
    2130    370.16925   -7467.5397   -7426.2468    501.24062    27780.681    1.5201096 
    2140    367.36541   -7467.0482    -7426.068    517.34214    27754.011    1.5359109 
    2150    365.74379   -7466.6953   -7425.8961    605.43505    27730.283    1.5519291 
    2160    361.14383   -7466.0156   -7425.7295    584.92085    27709.841     1.568097 
    2170    358.77263   -7465.5897    -7425.568    458.04969    27692.589    1.5844366 
    2180    356.43674   -7465.1686   -7425.4076    336.11076    27677.919    1.6006908 
    2190    351.85413   -7464.4899     -7425.24    260.06737    27665.184    1.6169995 
    2200    350.37221   -7464.1362   -7425.0516    201.42726    27653.949    1.6334925 
    2210    356.93949   -7464.6534   -7424.8363    163.52147    27643.926    1.6490136 
    2220    366.77617   -7465.5182   -7424.6038    61.843644    27634.872    1.6621951 
    2230    373.45459   -7466.0353   -7424.3758   -69.737204    27626.269    1.6732105 
    2240    375.90188    -7466.102   -7424.1696   -140.19821    27617.488       1.6841 
    2250    379.61478   -7466.3397   -7423.9931   -155.52501    27608.177    1.6974289 
    2260    379.62525    -7466.193   -7423.8452   -47.678407    27598.308    1.7148167 
    2270    377.19799   -7465.7969   -7423.7199    119.54275    27588.424    1.7357525 
    2280    382.17484    -7466.242   -7423.6099    141.89495    27579.257    1.7583517 
    2290    390.70932   -7467.1054   -7423.5212    30.311284    27570.925    1.7812878 
    2300    385.07612   -7466.4234   -7423.4676    -157.7421    27562.858    1.8037364 
    2310    370.41002   -7464.7594   -7423.4396   -273.57548    27554.199    1.8242167 
    2320    367.05103   -7464.3567   -7423.4116   -238.65355    27544.433    1.8426675 
    2330    373.64911   -7465.0533   -7423.3722    -109.9223    27533.701    1.8613943 
    2340    374.71745   -7465.1266   -7423.3263    154.28413    27522.706    1.8818803 
    2350     367.6557   -7464.2859   -7423.2733     416.2306    27512.728    1.9027875 
    2360    366.06835   -7464.0377   -7423.2023    523.93454    27504.991    1.9217672 
    2370    369.68223   -7464.3467   -7423.1081     579.7431    27500.036    1.9385619 
    2380    372.20376   -7464.5177   -7422.9978    638.78752    27498.102     1.955089 
    2390    373.13144   -7464.4999   -7422.8765    657.79165    27499.395    1.9734961 
    2400    379.39297   -7465.0677   -7422.7458    670.09907    27503.967    1.9942151 
    2410    393.99959    -7466.571   -7422.6198     610.7096    27511.767    2.0166179 
    2420    394.05355   -7466.4819   -7422.5246    568.03434    27522.487    2.0400633 
    2430    374.00575   -7464.1866   -7422.4657    542.69534    27535.864    2.0618508 
    2440    360.50485   -7462.6241   -7422.4093    440.98036    27551.693    2.0778264 
    2450    362.65802   -7462.7752   -7422.3201    153.63586    27569.362    2.0871676 
    2460    369.09758    -7463.364   -7422.1906   -222.95147     27587.42    2.0934994 
    2470    375.61157   -7463.9295   -7422.0295   -557.71712    27604.024    2.1006164 
    2480    386.06396   -7464.9201   -7421.8541   -800.51101    27617.523    2.1093485 
    2490    391.77016   -7465.3915    -7421.689   -895.70067    27626.776    2.1183964 
    2500    381.16358   -7464.0681   -7421.5487   -778.00305    27631.425    2.1261344 
    2510    375.42421   -7463.3003   -7421.4212   -615.84548    27632.066    2.1303949 
    2520    385.60472   -7464.3046   -7421.2899   -525.75233    27629.528    2.1303235 
    2530    385.81819   -7464.2023   -7421.1637   -365.52547    27624.397    2.1272312 
    2540      376.193   -7463.0117   -7421.0468   -203.67756    27617.527    2.1205371 
    2550    379.38305   -7463.2472   -7420.9264   -268.36733    27609.656    2.1087382 
    2560     384.6608   -7463.7078   -7420.7983   -343.63461    27600.589    2.0929278 
    2570    383.64511    -7463.466   -7420.6698   -466.37048    27589.938    2.0750708 
    2580    385.46572   -7463.5416   -7420.5423   -736.19775    27577.041    2.0572493 
    2590    389.33669   -7463.8497   -7420.4186   -815.67406     27560.77    2.0422666 
    2600    388.69892   -7463.6638   -7420.3038   -707.51421    27540.773       2.0323 
    2610    388.76509   -7463.5646   -7420.1973   -447.48263    27517.669    2.0271604 
    2620     386.1412   -7463.1708   -7420.0962    -82.83585    27492.819    2.0245609 
    2630    384.82939   -7462.9288   -7420.0005    291.16768    27468.051    2.0219404 
    2640    391.77025   -7463.6203   -7419.9178    439.56688    27445.121    2.0183843 
    2650    392.42517   -7463.6388   -7419.8632    441.55565    27424.789    2.0137451 
    2660    390.07892   -7463.3621   -7419.8482    346.71188    27407.015    2.0071793 
    2670    391.95849   -7463.5993   -7419.8757    181.92026    27391.272    1.9993162 
    2680     394.7489   -7463.9888   -7419.9539    92.621084    27376.782    1.9924739 
    2690    389.97245   -7463.5935   -7420.0915    155.01641    27363.089    1.9882724 
    2700    375.07589   -7462.1137   -7420.2735    444.27734    27350.544    1.9860526 
    2710    374.06405   -7462.2045   -7420.4771    547.24465    27340.344    1.9832536 
    2720    386.06285   -7463.7746   -7420.7087    528.62714    27332.998    1.9791411 
    2730    384.92474   -7463.9217   -7420.9827    573.68996    27328.444    1.9745356 
    2740    377.82449   -7463.4342   -7421.2873    456.51591    27326.739    1.9681377 
    2750    383.87701   -7464.4332   -7421.6111    170.32836    27327.253    1.9586078 
    2760    391.47273   -7465.6294   -7421.9601    12.550129    27328.672    1.9483075 
    2770    387.60283   -7465.5689   -7422.3313     32.12227    27330.205    1.9405084 
    2780     379.9007   -7465.0755    -7422.697    156.80358    27331.941    1.9364612 
    2790      379.643   -7465.3874   -7423.0376    186.65925    27334.387    1.9360576 
    2800    378.19963   -7465.5351   -7423.3463    170.67345    27337.718     1.938317 
    2810    373.88293   -7465.3247   -7423.6175    160.80755    27341.892    1.9407949 
    2820    372.12211   -7465.3584   -7423.8476    114.84692    27346.807    1.9412439 
    2830    374.78016   -7465.8484   -7424.0411    64.128004    27352.238    1.9387697 
    2840    381.65924   -7466.7885   -7424.2139    82.495796    27357.973    1.9342021 
    2850    386.17714   -7467.4619   -7424.3833    148.52544    27364.098    1.9295774 
    2860    382.58159   -7467.2368   -7424.5592    221.49683    27370.912    1.9267926 
    2870    369.93052   -7465.9956   -7424.7293    378.40154    27378.831    1.9257738 
    2880    364.98969   -7465.5897   -7424.8746    346.84621    27388.493    1.9240511 
    2890    369.48462   -7466.2076   -7424.9911    125.90776    27399.727    1.9198106 
    2900    372.00858   -7466.5846   -7425.0865   -63.316592    27411.535     1.913564 
    2910    374.51294   -7466.9483   -7425.1708    -271.6436    27422.919    1.9074819 
    2920    372.29836   -7466.7793   -7425.2488   -402.26581     27432.89    1.9036555 
    2930    365.27365   -7466.0624   -7425.3155   -496.88634    27440.779    1.9022081 
    2940    363.29048   -7465.8863   -7425.3607   -618.82484    27446.103     1.902144 
    2950    367.26256   -7466.3515   -7425.3828    -726.3752    27448.311    1.9036617 
    2960    367.64227   -7466.3995   -7425.3884    -823.1818    27446.866    1.9078671 
    2970    362.05692   -7465.7652   -7425.3772    -894.8397     27441.31    1.9145586 
    2980    362.78284   -7465.8121   -7425.3432   -922.40054    27431.309    1.9214418 
    2990    367.18099    -7466.243   -7425.2834   -818.83221    27416.796    1.9269746 
    3000    371.70899   -7466.6689   -7425.2042   -627.54295    27398.286    1.9317368 
    3010    370.32975   -7466.4186   -7425.1078   -323.46749    27376.801    1.9367265 
    3020    372.90706   -7466.5941   -7424.9958   -157.70098    27353.764    1.9414026 
    3030    378.30905   -7467.0709   -7424.8699   -34.287096     27330.07     1.946558 
    3040    381.63919   -7467.3125     -7424.74     184.8518    27306.379    1.9534947 
    3050    379.90687   -7466.9891     -7424.61    456.00091    27283.762    1.9611643 
    3060    376.72187   -7466.5039     -7424.48    624.49108    27263.499    1.9671696 
    3070    377.46452   -7466.4538    -7424.347    684.08539    27246.406    1.9701104 
    3080    379.75989   -7466.5739   -7424.2111    651.71625    27232.746    1.9706962 
    3090    381.01859   -7466.5783   -7424.0751    667.88383    27222.412    1.9705276 
    3100     380.7828    -7466.417   -7423.9401    649.35651     27215.42    1.9700903 
    3110    380.31592    -7466.231   -7423.8062    538.33182    27211.648    1.9693192 
    3120    376.36878   -7465.6535    -7423.669    399.82014    27210.541    1.9687622 
    3130    375.08913   -7465.3617     -7423.52    310.69755    27211.452    1.9678987 
    3140    379.67007   -7465.7052   -7423.3524    339.06637    27213.954    1.9668171 
    3150    380.71694   -7465.6398   -7423.1702    470.15173    27218.178    1.9667672 
    3160    381.45429   -7465.5316   -7422.9798     487.7945    27224.667     1.967421 
    3170    382.49526   -7465.4481   -7422.7802    341.06624    27233.497    1.9680369 
    3180    380.49391   -7465.0138   -7422.5691    134.61177    27244.005    1.9683898 
    3190    377.81306   -7464.4926    -7422.347    8.2196282    27255.209    1.9679419 
    3200    375.02844   -7463.9433   -7422.1083   -62.648261    27266.461    1.9656731 
    3210     376.8956   -7463.8901   -7421.8468   -192.05265    27277.366    1.9609779 
    3220    378.44239   -7463.7798    -7421.564   -306.69717    27287.315    1.9546097 
    3230    375.62465   -7463.1732   -7421.2717    -432.7151     27295.73    1.9475245 
    3240    375.63409    -7462.876   -7420.9735   -593.57857    27301.964    1.9395993 
    3250    377.05358   -7462.7316   -7420.6707   -616.88742      27305.3    1.9312568 
    3260    379.21512    -7462.674    -7420.372   -488.44882    27305.627    1.9239618 
    3270    392.10102   -7463.8292   -7420.0898   -308.03629    27303.516    1.9189408 
    3280    401.31658    -7464.614   -7419.8466   -40.276261    27299.918    1.9171236 
    3290    399.85524   -7464.2734    -7419.669    268.89221    27296.165    1.9184528 
    3300     397.8981   -7463.9448   -7419.5586     566.6776    27293.787    1.9217462 
    3310    400.67157   -7464.2063   -7419.5108    815.61192    27294.232     1.925285 
    3320    399.85181   -7464.1304   -7419.5263    987.02587     27298.72    1.9275434 
    3330    403.32349   -7464.5987   -7419.6073    914.73019    27308.023    1.9280426 
    3340    406.66633   -7465.1217   -7419.7575    714.41223    27321.846     1.927901 
    3350    400.42591   -7464.6399   -7419.9718    458.54337    27339.216     1.927537 
    3360    397.03958   -7464.5203   -7420.2299    258.25833    27358.913    1.9262808 
    3370    401.64148    -7465.328   -7420.5243    151.24898    27379.956    1.9257557 
    3380    398.45627    -7465.293   -7420.8446    141.89423    27401.822    1.9293564 
    3390    395.87899    -7465.331   -7421.1701   -49.483513    27424.322    1.9377477 
    3400    395.96104   -7465.6523   -7421.4823   -334.59786    27446.551    1.9488752 
    3410    392.91715   -7465.6018   -7421.7713   -437.02371    27467.195    1.9603195 
    3420    389.50602    -7465.483    -7422.033   -464.18382    27485.676    1.9714091 
    3430    386.99556   -7465.4342   -7422.2643   -613.38899    27501.763    1.9826644 
    3440    384.46072   -7465.3593   -7422.4721   -835.00617    27514.715    1.9941894 
    3450    375.47902   -7464.5402    -7422.655   -879.55071    27523.522     2.005703 
    3460    374.62074   -7464.6029   -7422.8134   -776.42088    27527.913      2.01642 
    3470    376.58628   -7464.9616   -7422.9528   -608.94192    27528.378    2.0265444 
    3480     371.2469   -7464.4878   -7423.0747   -345.41895    27525.812    2.0364677 
    3490    369.03856   -7464.3412   -7423.1744   -183.32563    27521.439    2.0455224 
    3500    377.38285   -7465.3568   -7423.2591   -166.08082    27516.086     2.053882 
    3510     383.5406   -7466.1325    -7423.348    -244.1412     27509.86    2.0632176 
    3520    383.03528   -7466.1793   -7423.4512   -284.36906    27502.446    2.0740927 
    3530    386.46827   -7466.6826   -7423.5715   -354.07105    27493.594     2.085055 
    3540    388.96379   -7467.1033   -7423.7138   -332.16027    27483.015    2.0957083 
    3550    388.40962   -7467.2117    -7423.884   -231.79254    27470.834    2.1065932 
    3560    382.84185   -7466.7841   -7424.0775    -73.55565    27457.566    2.1169653 
    3570    379.09632   -7466.5696   -7424.2808    78.988801    27443.986    2.1245058 
    3580    382.88553   -7467.2004   -7424.4889     186.3011    27430.852    2.1279334 
    3590    381.51226   -7467.2614   -7424.7032    429.63073    27418.798    2.1293136 
    3600    378.15753   -7467.1016   -7424.9175    669.38133    27408.961    2.1311656 
    3610    381.78977   -7467.7246   -7425.1354    704.65018    27402.445    2.1338466 
    3620    380.70773   -7467.8314   -7425.3629     580.5653    27399.438    2.1372773 
    3630       370.62   -7466.9354   -7425.5921    448.60351    27399.365    2.1419559 
    3640    355.93769   -7465.4995   -7425.7941    343.27786    27401.563    2.1475089 
    3650    356.38189   -7465.7056   -7425.9507     122.6722    27405.425    2.1530768 
    3660    368.71655   -7467.2044   -7426.0735   -106.38803    27409.877    2.1598616 
    3670    369.17438   -7467.3624   -7426.1805   -146.56866    27413.863    2.1693995 
    3680    363.39703   -7466.8063   -7426.2688   -162.02235    27417.127    2.1807319 
    3690    374.44428   -7468.1066   -7426.3368   -362.24153    27419.483    2.1925193 
    3700    383.67408   -7469.2001   -7426.4006   -512.15906    27420.042    2.2060966 
    3710    376.57419   -7468.4821   -7426.4747   -523.50845     27418.11    2.2222089 
    3720    367.87209   -7467.5841   -7426.5474   -513.16444    27413.552    2.2391775 
    3730    364.25808   -7467.2346   -7426.6011   -442.42765    27406.444    2.2559768 
    3740    368.26109   -7467.7108   -7426.6307    -355.1312    27397.148    2.2717412 
    3750    377.54582    -7468.765   -7426.6492   -297.10565    27386.084    2.2853408 
    3760    376.57242   -7468.6805   -7426.6733   -184.28792    27373.589    2.2976751 
    3770    366.23213   -7467.5538   -7426.7001    0.8172284    27360.251    2.3100778 
    3780    366.94488   -7467.6474   -7426.7141    93.342254    27346.905     2.321592 
    3790    373.56946   -7468.3831   -7426.7109    133.77566    27334.066    2.3310475 
    3800    373.49189    -7468.362   -7426.6985    117.18954    27321.905    2.3385391 
    3810      370.059   -7467.9609   -7426.6803    88.489354    27310.354    2.3443393 
    3820    366.50068    -7467.535   -7426.6513    183.69209    27299.318    2.3492548 
    3830    358.04312   -7466.5356   -7426.5953    575.71406    27289.366    2.3541835 
    3840    359.65553   -7466.6178   -7426.4976    806.14168    27282.232    2.3591184 
    3850    367.08187    -7467.301   -7426.3524    706.25884    27278.964    2.3648861 
    3860    360.93678   -7466.4224   -7426.1594    701.25644    27279.274    2.3721436 
    3870    359.43585   -7466.0051   -7425.9095     774.8573    27283.135    2.3790885 
    3880    374.97748   -7467.4172   -7425.5879     684.8998    27290.774    2.3839681 
    3890    389.79794   -7468.6967   -7425.2141    689.91227    27301.885    2.3867096 
    3900    388.16574   -7468.1417   -7424.8412    824.80164    27316.524    2.3869292 
    3910    378.56147   -7466.7257   -7424.4966    771.42346    27335.221    2.3830356 
    3920    378.74659   -7466.4231   -7424.1733    397.18888    27357.667    2.3756171 
    3930    376.94336   -7465.9141   -7423.8655     95.70428     27382.18    2.3689032 
    3940    375.69316   -7465.4928   -7423.5836   -37.914039    27407.269    2.3661661 
    3950    382.87216   -7466.0378   -7423.3279   -286.79922    27432.135    2.3687768 
    3960     383.5186   -7465.8879   -7423.1058   -473.15875    27455.649    2.3778323 
    3970    377.14284    -7464.993   -7422.9222   -629.49797    27476.826    2.3913575 
    3980    379.45283   -7465.0955   -7422.7669   -787.77602    27494.852    2.4054864 
    3990    385.41414   -7465.6294   -7422.6359   -993.51664    27508.862    2.4185957 
    4000    383.19576   -7465.2821    -7422.536   -1016.3196    27517.943    2.4306686 
    4010    383.09258   -7465.1994   -7422.4648   -947.99907    27521.913    2.4410022 
    4020    389.68232    -7465.889   -7422.4194   -840.74559    27521.121    2.4493773 
    4030    400.23321   -7467.0616    -7422.415   -819.35092    27516.029     2.458304 
    4040     402.1813   -7467.3337   -7422.4698    -809.9845    27506.774    2.4714962 
    4050    396.32604   -7466.7953   -7422.5845   -792.02172    27493.391     2.490948 
    4060     393.1185   -7466.5961   -7422.7432    -806.4761    27475.985    2.5151502 
    4070    393.30657   -7466.8128   -7422.9389   -860.61023    27454.473    2.5403505 
    4080    389.82752   -7466.6498   -7423.1639   -809.02727    27428.632    2.5627788 
    4090    384.66962   -7466.3165   -7423.4061   -626.81315    27398.734    2.5813915 
    4100    373.77319   -7465.3342   -7423.6392   -244.64486    27365.765    2.5990704 
    4110    371.63526   -7465.2978   -7423.8413    168.64991     27331.56    2.6179538 
    4120     377.9611   -7466.1757   -7424.0136    543.50231    27298.192    2.6369346 
    4130    379.18272   -7466.4657   -7424.1673    765.83639    27267.509    2.6531221 
    4140    379.40257   -7466.6377   -7424.3148    667.61904    27240.507    2.6632136 
    4150    376.01755   -7466.4012   -7424.4558     565.9121     27216.83    2.6655314 
    4160    377.25433   -7466.6711   -7424.5878    458.58365     27195.95    2.6611081 
    4170    380.56845   -7467.1684   -7424.7154    281.71107    27177.318    2.6539069 
    4180     373.9727   -7466.5581   -7424.8409    150.91268    27160.108    2.6475816 
    4190    366.82698   -7465.8696   -7424.9495    180.27186    27143.733    2.6413776 
    4200    375.71524   -7466.9489   -7425.0373    222.32885    27128.266    2.6334651 
    4210    380.26001    -7467.533   -7425.1144    296.63684    27113.918     2.624769 
    4220    377.91948    -7467.346   -7425.1885    449.60889    27101.071    2.6158163 
    4230    383.05385   -7467.9929   -7425.2627    598.12892    27090.449    2.6061186 
    4240    385.44758   -7468.3437   -7425.3464    660.93622    27082.719    2.5966588 
    4250    379.80744   -7467.8102   -7425.4421    677.00933    27078.238    2.5887524 
    4260    377.33545   -7467.6326   -7425.5402    621.24137    27077.073    2.5820349 
    4270    381.67606    -7468.216   -7425.6395    516.31264    27078.941    2.5754351 
    4280    379.79533   -7468.1126   -7425.7459    466.82289    27083.361    2.5692489 
    4290    371.92422   -7467.3426   -7425.8538    578.78142    27090.179    2.5643537 
    4300     373.7529   -7467.6482   -7425.9555    732.93198    27099.876    2.5604819 
    4310    378.78055   -7468.3085   -7426.0549    874.28259     27113.19    2.5562949 
    4320    381.80894   -7468.7538   -7426.1625    853.09179    27130.768    2.5501953 
    4330    382.80823   -7468.9855   -7426.2826    679.51791    27152.546    2.5425174 
    4340    379.65842    -7468.765   -7426.4135    431.99392    27177.703    2.5362087 
    4350     373.9574   -7468.2596   -7426.5441    212.60205    27205.104    2.5333251 
    4360    375.32572   -7468.5353   -7426.6672   -76.578243    27233.598    2.5343517 
    4370    370.46117   -7468.1043   -7426.7788   -291.61435    27261.818    2.5387897 
    4380    366.23469   -7467.7277   -7426.8737   -421.26779    27288.695    2.5442955 
    4390    366.08771   -7467.7849   -7426.9473   -482.34773    27313.565    2.5495538 
    4400    363.86092   -7467.5845   -7426.9952   -539.35441    27336.076    2.5552485 
    4410    368.44192   -7468.1204   -7427.0201   -596.79417    27355.927    2.5621143 
    4420    367.17229   -7467.9866    -7427.028   -516.30104    27372.881    2.5712618 
    4430    361.16547   -7467.3071   -7427.0185   -468.16058    27387.244     2.583393 
    4440    360.99689    -7467.252   -7426.9823   -548.52848    27399.226    2.5974078 
    4450    362.33575   -7467.3344   -7426.9153   -732.04711    27408.402    2.6117494 
    4460    360.91776    -7467.079   -7426.8181   -943.37095    27413.879    2.6259581 
    4470    367.05709   -7467.6414   -7426.6956   -1139.6112    27414.608    2.6406727 
    4480    371.46846   -7467.9952   -7426.5573   -1153.8222     27409.68    2.6567822 
    4490    366.48494   -7467.2929    -7426.411   -1004.5462    27399.028    2.6742325 
    4500    362.39047   -7466.6756   -7426.2504    -729.1802    27383.406    2.6932472 
    4510    363.59614   -7466.6223   -7426.0626   -428.57447     27364.17    2.7150227 
    4520    375.14601   -7467.6983   -7425.8502   -241.28531    27342.771    2.7391865 
    4530    390.26868   -7469.1746   -7425.6395   -160.72815    27320.175    2.7649481 
    4540      389.843   -7468.9514   -7425.4639   -24.755968    27296.869    2.7924741 
    4550    373.78506   -7467.0232   -7425.3269    202.54055     27273.55    2.8196131 
    4560     372.1215   -7466.7143   -7425.2036     349.4941    27251.287    2.8429363 
    4570     388.5667   -7468.4382    -7425.093    170.84319    27230.671     2.862318 
    4580    387.67995   -7468.2649   -7425.0186    101.10874    27211.041      2.88171 
    4590    372.05721    -7466.483   -7424.9794    193.06649    27192.049    2.9046008 
    4600    361.13692   -7465.2277   -7424.9423    305.67804    27174.079    2.9312011 
    4610    365.33055   -7465.6389   -7424.8857    386.97046    27157.662    2.9595768 
    4620    383.22878   -7467.5757    -7424.826    445.58698    27143.183    2.9880111 
    4630    380.45577   -7467.2262   -7424.7858    616.78665     27130.97    3.0150931 
    4640    375.08393   -7466.6068   -7424.7656     845.5345    27121.859    3.0370016 
    4650    380.47273   -7467.1991   -7424.7568    967.19803    27116.899    3.0521186 
    4660    377.96257   -7466.9211   -7424.7588    1024.6483    27116.702    3.0630121 
    4670    375.57727   -7466.6644   -7424.7681    985.04237    27121.532    3.0719556 
    4680    380.12743    -7467.185   -7424.7812    750.67721    27131.142    3.0793863 
    4690    382.70013   -7467.4938    -7424.803    468.17646    27144.444    3.0856589 
    4700    381.87413   -7467.4366    -7424.838    202.96551    27160.083    3.0910974 
    4710    382.19604    -7467.518   -7424.8835   -2.4712222    27176.766    3.0945384 
    4720    386.53892    -7468.064    -7424.945   -126.78468    27193.474    3.0948781 
    4730    382.93355   -7467.7415   -7425.0247   -120.10984    27209.636    3.0924771 
    4740    382.26152   -7467.7645   -7425.1226   -149.16657    27225.192    3.0866651 
    4750    381.53222   -7467.7961   -7425.2357   -218.19454    27239.998    3.0772606 
    4760    377.65978   -7467.4898   -7425.3612   -234.45977    27253.781    3.0657336 
    4770    375.58699   -7467.3903    -7425.493   -307.94299    27266.374    3.0544616 
    4780    373.65622   -7467.3074   -7425.6255    -257.1086    27277.531    3.0456436 
    4790    369.22126   -7466.9392    -7425.752   -202.34513    27287.411     3.038979 
    4800    372.07959   -7467.3764   -7425.8703   -198.96492    27296.271    3.0321108 
    4810    374.67367   -7467.7816   -7425.9862   -170.95359    27304.169    3.0235652 
    4820    371.44907   -7467.5373   -7426.1016   -110.51228    27311.254    3.0121683 
    4830    374.10171   -7467.9466    -7426.215   -95.547673    27317.789    2.9971476 
    4840    380.66126   -7468.7991   -7426.3358   -87.726157    27323.856    2.9807704 
    4850    377.91596   -7468.6281    -7426.471    38.075769    27329.576    2.9672696 
    4860    373.42191   -7468.2707   -7426.6149    90.978269    27335.473    2.9576188 
    4870    373.98536   -7468.4758   -7426.7572    -34.07725    27341.764    2.9494675 
    4880    376.40371   -7468.8857   -7426.8973   -25.992697    27347.979    2.9407083 
    4890    380.73988   -7469.5182   -7427.0461    128.88137     27354.14    2.9296905 
    4900    384.86167   -7470.1491   -7427.2172    289.96176    27360.968    2.9148123 
    4910    382.77878   -7470.1152   -7427.4156    263.86025    27369.162    2.8961725 
    4920    376.16406   -7469.5959   -7427.6342    142.80223    27378.651    2.8762665 
    4930    376.32118   -7469.8413   -7427.8621    83.369559    27388.913    2.8579433 
    4940    380.85865   -7470.5875   -7428.1022    128.12499     27399.66    2.8430521 
    4950    375.31653   -7470.2195   -7428.3524    232.91243    27411.104    2.8322436 
    4960    366.70344   -7469.5023    -7428.596    235.20945    27423.681    2.8238775 
    4970     360.7773   -7469.0593   -7428.8141    100.79843    27437.404     2.814855 
    4980    357.89657   -7468.9179    -7428.994   -195.26928     27451.58    2.8030589 
    4990    356.95088    -7468.948   -7429.1296   -462.69812     27464.78    2.7894355 
    5000    353.80092   -7468.6831    -7429.216   -470.92161    27475.768    2.7770088 
Loop time of 2360.58 on 16 procs for 3000 steps with 864 atoms

Performance: 0.110 ns/day, 218.572 hours/ns, 1.271 timesteps/s
97.6% CPU use with 16 MPI tasks x 1 OpenMP threads

MPI task timing breakdown:
Section |  min time  |  avg time  |  max time  |%varavg| %total
---------------------------------------------------------------
Pair    | 1683.3     | 2171.1     | 2350.9     | 335.1 | 91.97
Bond    | 0.00030065 | 0.0008053  | 0.0017307  |   0.0 |  0.00
Neigh   | 0.029803   | 0.037081   | 0.040024   |   1.3 |  0.00
Comm    | 3.0348     | 161.45     | 666.31     |1254.9 |  6.84
Output  | 0.17852    | 0.18276    | 0.24518    |   3.8 |  0.01
Modify  | 0.97296    | 27.769     | 80.947     | 569.4 |  1.18
Other   |            | 0.01392    |            |       |  0.00

Nlocal:        54.0000 ave          60 max          43 min
Histogram: 1 0 0 0 2 4 2 2 3 2
Nghost:        418.750 ave         441 max         393 min
Histogram: 1 0 3 1 1 3 3 2 1 1
Neighs:         0.00000 ave           0 max           0 min
Histogram: 16 0 0 0 0 0 0 0 0 0
FullNghs:      1686.12 ave        1972 max        1177 min
Histogram: 1 0 1 0 0 3 4 4 1 2

Total # of neighbors = 26978
Ave neighs/atom = 31.224537
Ave special neighs/atom = 0.0000000
Neighbor list builds = 300
Dangerous builds = 300
unfix   2

fix     3 all npt temp 375.0 375.0 $(100.0*dt) aniso 1.01325 1.01325 $(1000.0*dt)
fix     3 all npt temp 375.0 375.0 0.10000000000000000555 aniso 1.01325 1.01325 $(1000.0*dt)
fix     3 all npt temp 375.0 375.0 0.10000000000000000555 aniso 1.01325 1.01325 1
run     20000
Per MPI rank memory allocation (min/avg/max) = 8.897 | 8.898 | 8.900 Mbytes
Step Temp PotEng TotEng Press Volume c_msd[4] 
    5000    353.80092   -7468.6831    -7429.216   -470.92161    27475.768    2.7770088 
    5010    354.48025   -7468.7372   -7429.1944   -343.63662    27474.695    2.7815261 
    5020    355.62086   -7468.7994   -7429.1294   -246.80417    27471.871    2.7905136 
    5030     355.9474   -7468.7279   -7429.0215    -97.68148    27467.823    2.8027628 
    5040    364.10661   -7469.4875   -7428.8708    84.520379    27463.302    2.8150765 
    5050    377.83127   -7470.8378   -7428.6901    172.40175    27459.167    2.8257039 
    5060     376.0714   -7470.4537   -7428.5024    213.03241    27455.898    2.8351417 
    5070    365.95607   -7469.1382   -7428.3153    128.13947    27453.648    2.8440138 
    5080     365.8999   -7468.9317    -7428.115   -56.093301    27451.996    2.8530837 
    5090     365.3021   -7468.6413   -7427.8913   -211.29634    27450.056    2.8637466 
    5100    363.93775    -7468.246   -7427.6482   -326.79214    27447.067    2.8766579 
    5110    361.27196    -7467.684   -7427.3836   -393.67303    27442.446    2.8925079 
    5120    365.71451   -7467.8973   -7427.1012   -352.18676    27435.884    2.9109409 
    5130    370.98653   -7468.1952   -7426.8111   -330.64128    27427.524    2.9300472 
    5140    371.79427   -7468.0092    -7426.535   -313.32328    27417.486    2.9490009 
    5150    369.27924   -7467.4766    -7426.283   -177.76377    27405.908    2.9683232 
    5160    369.37225   -7467.2588   -7426.0548    43.524497    27393.456     2.987537 
    5170    373.71757   -7467.5389   -7425.8501    58.277519     27381.11    3.0060777 
    5180    380.59491   -7468.1338   -7425.6779   -171.82342    27368.939     3.024917 
    5190     379.2204   -7467.8481   -7425.5455   -379.46133    27355.906    3.0454093 
    5200    369.34338   -7466.6459   -7425.4451   -419.39849    27341.032      3.06714 
    5210     366.0499    -7466.189   -7425.3556   -360.57096    27324.091    3.0887989 
    5220    371.77965   -7466.7389   -7425.2663    -325.6523    27305.311    3.1112306 
    5230     374.8244   -7466.9952    -7425.183   -234.87445    27284.911    3.1362156 
    5240    374.34769    -7466.867   -7425.1079   -65.502739    27263.353    3.1635035 
    5250    378.99103   -7467.3149   -7425.0379     153.7034    27241.496     3.189846 
    5260    387.16741   -7468.1691   -7424.9799    311.82872    27220.377    3.2129225 
    5270    390.63022   -7468.5242   -7424.9488    420.72075    27200.769    3.2333139 
    5280    390.79907   -7468.5489   -7424.9546    479.63612    27183.217     3.251713 
    5290    384.14345   -7467.8464   -7424.9947    422.23668    27167.961    3.2672585 
    5300    378.24983   -7467.2493   -7425.0549    347.55027    27154.757    3.2782272 
    5310    379.72527   -7467.4844   -7425.1255     231.0321    27143.236    3.2835487 
    5320    381.13709   -7467.7214    -7425.205    83.400408    27132.832    3.2852493 
    5330    381.04059   -7467.8038   -7425.2981    34.832242     27122.87    3.2860352 
    5340    376.34558    -7467.385   -7425.4031    157.68085    27113.123    3.2863667 
    5350     369.2796   -7466.7026   -7425.5089    357.08728     27104.17    3.2853814 
    5360    366.46873   -7466.4842   -7425.6041    501.43689    27096.943    3.2822045 
    5370    370.47475   -7467.0117   -7425.6847    592.47747    27092.173    3.2772935 
    5380    378.38994   -7467.9719    -7425.762    497.66176    27090.211    3.2720078 
    5390    379.87982   -7468.2251   -7425.8489    458.85582    27090.728    3.2678256 
    5400    380.07605   -7468.3493   -7425.9513    442.29968    27093.517    3.2659608 
    5410    380.26586   -7468.4904   -7426.0711    351.95703    27098.451    3.2667794 
    5420    372.15916   -7467.7174   -7426.2025    382.56459     27105.21    3.2693097 
    5430    373.31774   -7467.9833   -7426.3391    392.56077    27113.884    3.2705219 
    5440    378.81588   -7468.7416   -7426.4842    384.83635    27124.545    3.2670769 
    5450    380.21155   -7469.0629   -7426.6498    373.05532    27137.173    3.2572403 
    5460    378.94455   -7469.1148   -7426.8429    254.97987    27151.685    3.2418681 
    5470    368.95467   -7468.2126   -7427.0551    194.70186    27167.603    3.2231339 
    5480    358.30374   -7467.2335   -7427.2642    159.31411    27184.613     3.201607 
    5490    355.93384   -7467.1574   -7427.4524    139.89259    27202.548     3.177913 
    5500    356.79261   -7467.4122   -7427.6115    155.67781     27221.33    3.1535672 
    5510    362.07447   -7468.1333   -7427.7434    43.711787    27240.972    3.1291096 
    5520    367.67777   -7468.8693   -7427.8543   -290.46194    27260.869    3.1046058 
    5530    371.53869   -7469.4013   -7427.9556   -616.07205    27279.483    3.0802424 
    5540    370.92695   -7469.4361   -7428.0587   -961.80972    27295.121    3.0557284 
    5550    370.72896   -7469.5243    -7428.169   -1186.8812    27306.106    3.0308958 
    5560    371.70619   -7469.7548   -7428.2904   -1002.1826    27311.419    3.0072722 
    5570    366.53415   -7469.3107   -7428.4232   -678.59987    27311.771    2.9865028 
    5580    353.71239   -7468.0074   -7428.5503   -373.68373    27308.733    2.9679949 
    5590    345.71425   -7467.2117   -7428.6468   -232.00626    27303.731    2.9504752 
    5600    344.88326   -7467.1665   -7428.6943   -161.35604    27297.497    2.9338309 
    5610    352.02328   -7467.9564   -7428.6877   -89.104481    27290.425    2.9183138 
    5620    363.68966   -7469.2024   -7428.6322   -20.018985    27282.868    2.9039492 
    5630    373.76205   -7470.2359   -7428.5422    144.33523    27275.212    2.8911308 
    5640    377.24854    -7470.514   -7428.4314    360.45307    27268.258     2.880534 
    5650    380.87059   -7470.7962   -7428.3095    463.80011    27263.015     2.872632 
    5660    385.57444   -7471.1974    -7428.186    397.43775    27259.981    2.8684082 
    5670    376.71142   -7470.0912   -7428.0684    306.07964    27258.885    2.8687467 
    5680    359.74598   -7468.0741   -7427.9439    414.15174    27259.404     2.872211 
    5690    355.60725   -7467.4506   -7427.7821    486.28708    27261.969    2.8755365 
    5700     362.9452   -7468.0511   -7427.5641      568.036    27267.017    2.8764973 
    5710    368.76572   -7468.4334   -7427.2971    598.08908    27274.928    2.8751689 
    5720    371.25815   -7468.4139   -7426.9995    561.01172    27285.887    2.8721005 
    5730    379.09725   -7468.9759   -7426.6871    454.55753    27299.733    2.8674987 
    5740    381.05679   -7468.8854   -7426.3779    257.14287    27315.927    2.8628981 
    5750    376.02183   -7468.0349   -7426.0891   -125.05015    27333.471    2.8599571 
    5760    375.71152   -7467.7278   -7425.8166    -630.6217     27350.49    2.8588706 
    5770    372.48088   -7467.1079   -7425.5571   -992.61682    27364.563    2.8602088 
    5780    369.08083   -7466.4843   -7425.3128    -1195.658    27373.833    2.8653375 
    5790    365.30341   -7465.8278   -7425.0776   -1250.0753    27377.214    2.8749745 
    5800    368.06031   -7465.9038   -7424.8461    -1100.126    27374.418    2.8877234 
    5810    378.28265   -7466.8184   -7424.6204   -821.78108    27366.108    2.9011497 
    5820    385.17371   -7467.3809   -7424.4141   -518.37691    27353.609    2.9140434 
    5830    396.26477   -7468.4517   -7424.2478   -403.98169    27338.297    2.9273052 
    5840    398.24623   -7468.5643   -7424.1393   -461.40541    27320.734     2.943507 
    5850     384.5446   -7466.9843   -7424.0878    -325.5194      27300.8    2.9640133 
    5860    374.80078   -7465.8714   -7424.0618   -51.679794    27279.123    2.9873501 
    5870    371.59766   -7465.4868   -7424.0346    210.28361        27257    3.0118101 
    5880    372.32656   -7465.5312   -7423.9976    366.13575    27235.681    3.0368544 
    5890    382.37134   -7466.6119   -7423.9578    359.79103    27215.919    3.0621562 
    5900    395.38279   -7468.0428   -7423.9373    442.89388    27197.813    3.0866841 
    5910    398.06263   -7468.3638   -7423.9593    683.53169    27181.816    3.1086355 
    5920    392.97659   -7467.8707   -7424.0335    763.60997    27168.975    3.1265396 
    5930    387.64748   -7467.3921   -7424.1495    678.47752    27159.737    3.1417197 
    5940    386.59289   -7467.4258   -7424.3008     491.6728    27153.723     3.157212 
    5950    375.42653   -7466.3529   -7424.4735    407.81211    27150.144    3.1742202 
    5960    368.57506    -7465.763   -7424.6479    395.12519    27148.593    3.1919002 
    5970    365.42258   -7465.5749   -7424.8114    482.21704    27149.023    3.2091768 
    5980    358.66023   -7464.9619   -7424.9529    743.21601    27151.954    3.2236351 
    5990     362.2875   -7465.4822   -7425.0684    771.76311    27158.485    3.2324898 
    6000    369.49079   -7466.3811   -7425.1639    575.53456    27168.814    3.2360311 
    6010    371.82025   -7466.7278   -7425.2507    484.83002    27182.188     3.235582 
    6020    377.44222   -7467.4413   -7425.3371    367.81611    27198.116    3.2312084 
    6030    387.56456   -7468.6724    -7425.439    117.64468    27216.025    3.2242511 
    6040    387.68936   -7468.8201   -7425.5728   -53.574644    27234.826    3.2172854 
    6050    389.71368   -7469.2256   -7425.7524   -159.29067    27253.646    3.2106435 
    6060    388.25126   -7469.2949   -7425.9849   -111.25617    27272.015    3.2032752 
    6070    385.28302   -7469.2545   -7426.2756    16.649123    27290.125     3.194324 
    6080     378.8329   -7468.8753    -7426.616     140.2895    27308.587     3.183924 
    6090    375.40347   -7468.8634   -7426.9866    121.09065    27327.947    3.1727729 
    6100    375.29624    -7469.236   -7427.3712    44.894317    27348.193    3.1624866 
    6110    374.90895   -7469.5767    -7427.755   -10.850167    27369.007    3.1536859 
    6120    369.93933   -7469.3836   -7428.1163   -127.05078    27390.077    3.1473414 
    6130    365.87259   -7469.2415   -7428.4278   -289.34813    27410.827    3.1452181 
    6140    369.59254   -7469.9151   -7428.6865   -463.61508    27430.441    3.1472103 
    6150    366.18119   -7469.7389   -7428.8908   -549.88456    27448.054    3.1519127 
    6160    361.61524   -7469.3758   -7429.0371   -623.96316    27463.149    3.1574021 
    6170    362.52052   -7469.5655   -7429.1258   -704.37294    27475.322    3.1624645 
    6180    363.07872   -7469.6727   -7429.1707   -763.24444    27484.099    3.1677199 
    6190     353.5259   -7468.6131   -7429.1768   -616.35301     27489.24    3.1739799 
    6200     350.6962   -7468.2597    -7429.139   -510.43827    27491.281     3.180192 
    6210     361.6505   -7469.4032   -7429.0606   -543.03432    27490.662    3.1857512 
    6220    369.15205   -7470.1414    -7428.962    -496.9447    27487.305    3.1917575 
    6230    365.67646   -7469.6534   -7428.8616   -407.08888    27481.388    3.1981547 
    6240    364.50771   -7469.4198   -7428.7584   -424.68121    27473.258    3.2038099 
    6250    369.21897   -7469.8323   -7428.6454   -480.01437    27462.842    3.2082219 
    6260      374.219   -7470.2721   -7428.5274    -449.3253    27449.877    3.2120614 
    6270    373.28359   -7470.0534    -7428.413   -338.67171    27434.478    3.2168933 
    6280    362.06713   -7468.6883   -7428.2992   -140.12835    27417.161    3.2238884 
    6290    350.27036    -7467.236   -7428.1628    97.830713    27398.892    3.2318847 
    6300    358.88865   -7468.0224   -7427.9878    63.464891    27380.709    3.2383074 
    6310    371.31668   -7469.2032   -7427.7823   -52.947382     27362.54    3.2429426 
    6320    369.00964   -7468.7341   -7427.5705    38.666664    27343.912     3.247154 
    6330    368.75497    -7468.493   -7427.3578    182.10919    27325.204    3.2513617 
    6340    379.92091   -7469.5239   -7427.1432    232.72865    27307.092    3.2562615 
    6350    388.68773   -7470.3026   -7426.9439    195.62696    27289.817    3.2630469 
    6360    387.10009   -7469.9636    -7426.782    285.43349    27273.319    3.2718975 
    6370    379.48897   -7468.9875    -7426.655    354.60778    27257.974    3.2816483 
    6380    376.45447   -7468.5448   -7426.5507    262.11696    27244.079    3.2907386 
    6390      368.556   -7467.5665   -7426.4535    129.90005     27231.24    3.2974814 
    6400    369.84191   -7467.6081   -7426.3517   -16.144417    27218.819    3.2991858 
    6410    381.99069   -7468.8575   -7426.2459   -142.71144    27206.111    3.2954077 
    6420    382.35634   -7468.8052   -7426.1527   -142.21051    27192.504    3.2888749 
    6430    372.85138   -7467.6688   -7426.0766   -152.33412    27177.924    3.2817508 
    6440    369.53092   -7467.2248   -7426.0031   -241.40064    27162.271    3.2746612 
    6450    373.50171   -7467.5851   -7425.9204   -199.95133    27145.177     3.267915 
    6460    382.34572   -7468.4825   -7425.8313    10.496445    27126.834    3.2623148 
    6470    384.92767   -7468.6877   -7425.7484    253.57286    27108.196    3.2587936 
    6480    377.56167   -7467.7949   -7425.6773     482.1674    27090.456    3.2567497 
    6490    376.12665   -7467.5687   -7425.6112    650.40401     27074.73     3.253516 
    6500    381.57127   -7468.1118   -7425.5469    810.51951    27061.923    3.2469064 
    6510    381.87216   -7468.0919   -7425.4935     975.7018    27052.881    3.2360426 
    6520    376.98536   -7467.5089   -7425.4557    1097.8401     27048.47    3.2204544 
    6530    374.36596   -7467.1889   -7425.4279    1011.6081    27049.329    3.2006474 
    6540    374.43524   -7467.1703   -7425.4014    739.78847    27055.158    3.1782901 
    6550    381.53347   -7467.9325   -7425.3719    361.41345    27064.718    3.1544863 
    6560    390.33024   -7468.8911   -7425.3492    75.660269    27076.326    3.1304334 
    6570    387.96727   -7468.6321   -7425.3538     30.85858    27088.667    3.1069635 
    6580    378.63365   -7467.6317   -7425.3945    156.17159    27101.474    3.0829117 
    6590    368.27087    -7466.535   -7425.4539    317.14154    27115.339    3.0571843 
    6600    369.33218   -7466.7101   -7425.5105    295.40744    27130.968    3.0295971 
    6610     371.1236   -7466.9562   -7425.5568    153.26672    27148.326      3.00121 
    6620    369.79579   -7466.8459   -7425.5946   -36.716611    27166.766     2.973302 
    6630    377.14992   -7467.6991   -7425.6274   -291.56625    27185.328    2.9465169 
    6640    379.94446   -7468.0495   -7425.6661   -397.73213    27202.836    2.9216719 
    6650    380.78379   -7468.2016   -7425.7246   -334.48071    27218.731    2.8988308 
    6660    383.89603   -7468.6312    -7425.807   -342.73574    27233.186    2.8780558 
    6670    382.36697   -7468.5699   -7425.9163   -496.13761    27246.096    2.8595335 
    6680    380.51917   -7468.5009   -7426.0534   -721.48241    27256.694    2.8428409 
    6690    376.91365   -7468.2609   -7426.2157   -947.45902    27263.825    2.8276263 
    6700    369.60822   -7467.6249   -7426.3945   -997.23087      27266.4    2.8144088 
    6710    368.27733   -7467.6562   -7426.5743   -973.85745    27264.052    2.8041034 
    6720    374.91311   -7468.5766   -7426.7545   -937.64919    27256.804     2.797081 
    6730    379.11228   -7469.2314   -7426.9409   -847.28705    27244.797    2.7928369 
    6740    384.05645   -7469.9924   -7427.1503   -717.83109     27228.41    2.7905526 
    6750    373.75649   -7469.0727   -7427.3796    -470.5001    27208.325    2.7902535 
    6760     361.7211   -7467.9495    -7427.599   -348.73356    27185.607     2.791556 
    6770    365.82907   -7468.6025   -7427.7937   -336.09022    27160.841    2.7944183 
    6780    365.53665   -7468.7384   -7427.9622   -272.23232     27134.16      2.79952 
    6790    362.55719   -7468.5482   -7428.1044     -137.581    27105.882     2.806657 
    6800    360.54662   -7468.4337   -7428.2142    29.501343    27076.644    2.8151383 
    6810    368.44619   -7469.3964   -7428.2957    135.30516     27047.22    2.8238785 
    6820    380.02216   -7470.7612   -7428.3691    170.19761    27018.132    2.8322634 
    6830    379.15636   -7470.7476   -7428.4521    299.33736    26989.657    2.8406231 
    6840    370.56591   -7469.8776   -7428.5405    525.54738    26962.413     2.849252 
    6850    365.41655   -7469.3779   -7428.6151    774.18727    26937.484    2.8579179 
    6860     369.0206   -7469.8396   -7428.6748    857.97203     26916.02    2.8661786 
    6870    365.58199   -7469.5028   -7428.7216    961.41842    26898.542    2.8742846 
    6880      365.535   -7469.5308   -7428.7548    1030.2076    26885.546    2.8821667 
    6890    367.94109   -7469.8192   -7428.7748    1032.0634    26877.406    2.8908961 
    6900    362.67182   -7469.2368   -7428.7802    1139.4907    26874.247    2.9009973 
    6910    363.18048    -7469.278   -7428.7647    1242.0124    26876.594    2.9099511 
    6920    374.27663   -7470.4784   -7428.7273    1180.7484     26884.94    2.9147148 
    6930    387.64686   -7471.9302   -7428.6876    1008.3764    26899.094    2.9146484 
    6940    387.99614   -7471.9514   -7428.6698    883.64563    26918.386    2.9113969 
    6950    379.18633   -7470.9778   -7428.6789    747.67065    26942.259    2.9064922 
    6960    375.97173   -7470.6403      -7428.7    385.04233    26969.991    2.9010653 
    6970    370.75426   -7470.0747   -7428.7165   -51.460636     26999.94    2.8971459 
    6980    364.92072   -7469.4235   -7428.7161    -433.3845    27030.053    2.8963963 
    6990    366.73907   -7469.5975   -7428.6872   -778.63536    27058.421    2.8990804 
    7000    371.05772   -7470.0241    -7428.632   -1000.5829    27083.349    2.9049157 
    7010    375.28829   -7470.4248   -7428.5608   -1055.7991    27103.688    2.9137222 
    7020    377.33899   -7470.5754   -7428.4826   -979.10176    27119.086    2.9255486 
    7030    368.47121   -7469.4992   -7428.3957   -878.18635    27129.824    2.9398179 
    7040    362.98455   -7468.7773   -7428.2858   -874.45983    27136.288    2.9545804 
    7050    367.17717   -7469.0931    -7428.134   -843.75632    27138.497    2.9686982 
    7060    369.26234   -7469.1294   -7427.9376   -732.45202    27136.589    2.9824246 
    7070    368.49818   -7468.8099   -7427.7034   -683.07854    27131.004    2.9960721 
    7080    370.20938   -7468.7315   -7427.4341   -605.02285    27122.014    3.0101862 
    7090    377.29633   -7469.2219   -7427.1339   -543.12853    27109.951    3.0244628 
    7100    385.67054   -7469.8447   -7426.8226   -527.15943     27095.07    3.0385176 
    7110    378.70246   -7468.7707   -7426.5258   -300.62641    27077.581    3.0532628 
    7120    367.53338   -7467.2459    -7426.247    23.927754    27058.535    3.0690064 
    7130    369.76733   -7467.2155   -7425.9674    154.51737    27039.397    3.0850486 
    7140    380.12095   -7468.0891    -7425.686    125.88921    27020.808    3.1015425 
    7150    381.40425   -7467.9694   -7425.4232    175.53888    27002.734    3.1198008 
    7160    375.15207   -7467.0367    -7425.188    332.41297    26985.437    3.1396981 
    7170    377.93708   -7467.1307   -7424.9712    454.27096    26969.635    3.1596029 
    7180    389.71416   -7468.2503   -7424.7771    405.15472    26955.851    3.1786199 
    7190    387.71642   -7467.8709   -7424.6205    467.46629    26944.017    3.1959597 
    7200    389.09136   -7467.9107    -7424.507    584.91789    26934.407    3.2093132 
    7210    393.52755   -7468.3329   -7424.4343    737.49036    26927.605    3.2178995 
    7220    389.55978   -7467.8626   -7424.4066    919.49298    26924.364      3.22266 
    7230    385.27511   -7467.3945   -7424.4165    816.89893    26925.456    3.2247132 
    7240    382.32399   -7467.1005   -7424.4517    481.03217     26930.45    3.2249315 
    7250    376.48974   -7466.4972   -7424.4992    239.63573    26937.899    3.2228291 
    7260    380.11431   -7466.9559   -7424.5536   -75.890488    26946.544    3.2166787 
    7270    380.03294     -7467.01   -7424.6167   -357.55203    26954.916    3.2084393 
    7280    372.04325   -7466.1868   -7424.6848   -417.06771    26961.725    3.2011659 
    7290    371.19361   -7466.1573   -7424.7501   -165.45707    26966.697    3.1952084 
    7300    368.73356   -7465.9392   -7424.8064     129.5173    26970.913    3.1896785 
    7310    369.75769   -7466.1014   -7424.8544    161.31373    26975.699      3.18358 
    7320    372.48779   -7466.4457   -7424.8942   -15.548975    26981.247    3.1768124 
    7330    373.51467   -7466.5922    -7424.926   -217.02495    26986.787    3.1699939 
    7340    383.24838   -7467.7123   -7424.9604   -428.49963     26991.33    3.1626115 
    7350     386.9773   -7468.1835   -7425.0156   -518.93291    26993.881    3.1543388 
    7360    382.75853   -7467.7989   -7425.1016   -521.31064    26993.953    3.1467396 
    7370    387.72953   -7468.4733   -7425.2215   -429.99833    26991.511    3.1413701 
    7380    391.26015   -7469.0354   -7425.3897   -121.67415    26987.031    3.1392194 
    7390    386.93883   -7468.7845   -7425.6209    328.47091    26981.982    3.1400914 
    7400    379.52322   -7468.2501   -7425.9137    682.21042    26978.446    3.1418627 
    7410    371.37471   -7467.6811   -7426.2537    834.07147    26978.131    3.1416639 
    7420    367.42712   -7467.6095   -7426.6225    696.37326    26981.789    3.1372704 
    7430    365.32271    -7467.754   -7427.0017    359.98613    26988.832    3.1288948 
    7440    360.02934   -7467.5275   -7427.3657    93.277163    26997.765    3.1185338 
    7450    359.07046   -7467.7479    -7427.693     5.069332    27007.357    3.1076496 
    7460    366.67737   -7468.8839   -7427.9805   -28.131117    27017.142    3.0967546 
    7470    370.24635   -7469.5374   -7428.2358   -142.42345    27026.877    3.0862375 
    7480    362.97586    -7468.943   -7428.4525   -184.62503    27036.088    3.0753343 
    7490    362.75341   -7469.0889   -7428.6232   -241.94683    27044.504    3.0611767 
    7500    368.80883   -7469.8955   -7428.7543   -247.93534    27051.866    3.0413866 
    7510    369.68937   -7470.0973   -7428.8579   -208.88701    27058.126    3.0158633 
    7520    366.08917   -7469.7749   -7428.9372   -50.441413    27063.501     2.986634 
    7530    371.12053   -7470.3928   -7428.9937    194.83248    27068.724    2.9568556 
    7540    380.14568   -7471.4447   -7429.0389    429.32237    27074.983    2.9296673 
    7550    384.19003   -7471.9486   -7429.0916    370.66564    27083.304    2.9063176 
    7560    379.44643   -7471.4857   -7429.1579    169.33156    27093.509    2.8855881 
    7570    369.76944   -7470.4734    -7429.225    -44.13397    27104.669    2.8654928 
    7580    368.66268   -7470.4009    -7429.276   -304.16216    27115.727    2.8449975 
    7590    370.58008   -7470.6414   -7429.3026   -495.50794    27125.451    2.8241547 
    7600     369.6108     -7470.54   -7429.3094    -602.8657    27132.858    2.8032041 
    7610    370.82711   -7470.6693    -7429.303   -599.08228    27137.407    2.7830066 
    7620    373.28605   -7470.9266    -7429.286   -548.44247    27139.049    2.7651665 
    7630    378.27304   -7471.4607   -7429.2638   -513.38786    27137.984    2.7500995 
    7640    376.64167   -7471.2585   -7429.2436   -438.48185    27134.385    2.7377853 
    7650    369.05383   -7470.3926    -7429.224   -325.91302    27128.597    2.7283777 
    7660    369.15401   -7470.3775   -7429.1978   -229.07701    27121.148    2.7213427 
    7670    373.70947   -7470.8529   -7429.1651   -56.435615    27112.558    2.7158363 
    7680    376.64639   -7471.1464   -7429.1309    268.31864    27103.714    2.7120953 
    7690    381.76192   -7471.6878   -7429.1017    565.59434    27096.119    2.7106172 
    7700    385.23189   -7472.0613   -7429.0881    690.56158    27091.192    2.7116352 
    7710    383.55603   -7471.8842   -7429.0979    597.61829    27089.545    2.7155859 
    7720     381.3235   -7471.6667   -7429.1295    305.84296    27090.741    2.7226803 
    7730    376.80674   -7471.2089   -7429.1755    10.441142    27093.469    2.7327694 
    7740    374.45129   -7470.9995   -7429.2289   -244.46911    27096.291      2.74646 
    7750    374.36022   -7471.0433   -7429.2829    -366.8947    27097.998    2.7643159 
    7760    375.93374   -7471.2739   -7429.3379   -339.39407    27097.972    2.7843479 
    7770    374.27616   -7471.1443   -7429.3932   -277.74401    27096.292    2.8041032 
    7780     374.3354   -7471.2091   -7429.4515   -363.91977    27093.161     2.823589 
    7790    372.17064   -7471.0282    -7429.512   -440.15905    27088.215    2.8440954 
    7800     372.1377   -7471.0882   -7429.5757   -437.83797    27081.083    2.8666806 
    7810    365.58466   -7470.4165    -7429.635   -202.63711    27071.863    2.8919931 
    7820    353.04164   -7469.0557   -7429.6733     154.5022    27061.646    2.9190302 
    7830    348.48241   -7468.5412   -7429.6675    448.72697      27052.1    2.9451799 
    7840    353.46985   -7469.0308   -7429.6007    661.75823    27044.674    2.9674968 
    7850    356.51396   -7469.2284   -7429.4588    756.10997    27040.401    2.9844216 
    7860     365.8453   -7470.0409   -7429.2303    741.61433    27039.754    2.9953099 
    7870    374.32907   -7470.6631   -7428.9061    736.24984    27042.752    3.0011559 
    7880    377.15135    -7470.572   -7428.5002    727.09781    27049.385    3.0050418 
    7890     377.8476   -7470.1887   -7428.0393    606.46821    27059.601    3.0106801 
    7900    382.50797    -7470.223   -7427.5536    238.74497    27072.747    3.0208793 
    7910    393.48354   -7470.9734   -7427.0797   -278.18471    27087.053    3.0366538 
    7920     393.6847   -7470.5783   -7426.6622   -614.70801    27100.135    3.0557669 
    7930    381.62753    -7468.897   -7426.3259   -643.47844    27110.371    3.0728897 
    7940    371.93772   -7467.5433   -7426.0531   -509.87999    27117.559    3.0841188 
    7950    375.10528   -7467.6597   -7425.8161   -377.99507     27122.26    3.0897147 
    7960    383.49958   -7468.3893   -7425.6094   -221.49173    27125.113    3.0923871 
    7970    381.29847   -7467.9727   -7425.4383   -22.792407    27126.913     3.094999 
    7980    382.56176   -7467.9769   -7425.3016     31.56125    27128.545    3.0988739 
    7990    389.45416   -7468.6422    -7425.198    105.68166    27130.353    3.1046075 
    8000    384.03745    -7467.972   -7425.1321    321.02435    27132.762     3.113079 
    8010    378.43728   -7467.3084   -7425.0931    374.47902    27136.687     3.124232 
    8020     383.6282   -7467.8629   -7425.0686    220.93624    27142.392    3.1366633 
    8030    385.48634   -7468.0636    -7425.062    42.522583    27149.189    3.1476717 
    8040    381.39589   -7467.6218   -7425.0765    55.876671    27156.342     3.154589 
    8050    382.45825   -7467.7711   -7425.1074   0.55000491    27163.776    3.1556283 
    8060    385.79335   -7468.1928    -7425.157   -149.46064    27171.194    3.1501637 
    8070    384.99076   -7468.1772   -7425.2309   -207.40594    27177.952    3.1394164 
    8080    385.19953   -7468.2984   -7425.3288   -239.09263    27183.737    3.1262889 
    8090    387.93541   -7468.7288    -7425.454   -285.58327    27188.347    3.1137189 
    8100    383.19222   -7468.3547    -7425.609   -109.08033    27191.679    3.1027813 
    8110    377.92855   -7467.9449   -7425.7864    13.032541    27194.438    3.0916273 
    8120    373.94703   -7467.6889   -7425.9746    56.660732    27197.243    3.0787222 
    8130    367.08337   -7467.1069   -7426.1582    201.60646    27200.409    3.0644822 
    8140    369.61681   -7467.5619   -7426.3306    373.64528    27204.611    3.0489759 
    8150    371.88195   -7467.9768   -7426.4928    517.55476    27210.683    3.0322403 
    8160    375.81473   -7468.5739   -7426.6512    571.26108    27219.334    3.0147629 
    8170    383.35596   -7469.5841   -7426.8202    520.17719    27230.842     2.996877 
    8180    385.86276   -7470.0563   -7427.0127     368.2506    27244.969    2.9774248 
    8190    386.87623   -7470.3898   -7427.2331    53.063792    27260.925    2.9547664 
    8200    389.45269   -7470.9256   -7427.4816   -225.26781    27277.245    2.9299581 
    8210    389.47938   -7471.2056   -7427.7586   -351.71501    27292.592    2.9072358 
    8220    383.49219   -7470.8367   -7428.0576   -361.18491    27306.299    2.8906535 
    8230    374.87821   -7470.1759   -7428.3576   -289.65485    27318.287    2.8815632 
    8240    372.87532   -7470.2316   -7428.6368   -232.87178    27328.877     2.878338 
    8250     378.3851    -7471.102   -7428.8926   -346.98508    27338.254    2.8785428 
    8260    375.29334   -7470.9865   -7429.1219   -406.56544    27345.967     2.880807 
    8270    372.37455   -7470.8556   -7429.3167   -519.35551    27351.644    2.8839572 
    8280    369.90088   -7470.7367   -7429.4737   -681.60519    27354.701    2.8881171 
    8290    361.68791   -7469.9363   -7429.5894   -633.94514    27354.458    2.8939036 
    8300    358.73963   -7469.6773   -7429.6593   -467.24411    27351.095    2.9011451 
    8310    366.14433   -7470.5321   -7429.6882   -396.31221    27345.329    2.9088634 
    8320    378.11083    -7471.874   -7429.6952   -428.43299     27337.53    2.9155996 
    8330    382.58933   -7472.3829   -7429.7045   -429.64676    27327.598    2.9212836 
    8340    374.04486   -7471.4487   -7429.7234   -339.01214    27315.544    2.9267817 
    8350    367.72237    -7470.757    -7429.737   -204.86075    27301.792    2.9318152 
    8360    370.69248   -7471.0875   -7429.7362   -177.81451    27286.924    2.9366844 
    8370     367.2677   -7470.6923    -7429.723   -108.34659     27271.18    2.9433095 
    8380     360.1799   -7469.8744   -7429.6957   -50.257943    27254.863    2.9518127 
    8390    356.90153    -7469.455   -7429.6421   -18.352463    27238.277    2.9601593 
    8400    362.60827   -7470.0048   -7429.5553   -46.529037     27221.55    2.9665151 
    8410    374.93505   -7471.2721   -7429.4475   -105.81532    27204.543    2.9709089 
    8420     374.4681   -7471.1099   -7429.3375   -107.17421    27187.033    2.9751269 
    8430    366.64596   -7470.1308   -7429.2309   -237.71396    27168.892    2.9807298 
    8440    363.31547   -7469.6432   -7429.1148   -381.22892    27149.538    2.9885625 
    8450    367.02705   -7469.9222   -7428.9798   -423.52558    27128.307    2.9985262 
    8460    372.71798   -7470.4069   -7428.8297   -473.17803    27104.928    3.0096975 
    8470     373.2285   -7470.3104   -7428.6762   -411.88741    27079.242    3.0211201 
[...]
   22890    376.20797   -7473.5503   -7431.5837   -980.28214    27958.853    4.0097458 
   22900    384.65276   -7474.6235   -7431.7149   -925.77383    27937.247    3.9939347 
   22910    373.57083   -7473.5383   -7431.8659   -674.27329    27911.292    3.9816648 
   22920    373.75433    -7473.717   -7432.0242   -422.92269    27882.287    3.9721885 
   22930    388.58361   -7475.5478   -7432.2008   -244.64742    27851.573     3.964665 
   22940    388.67807   -7475.7769   -7432.4193   -27.134388    27820.149    3.9596305 
   22950    379.20165   -7474.9741   -7432.6735    227.25271    27789.166    3.9575039 
   22960    378.39308   -7475.1576   -7432.9473     341.8248    27759.856    3.9570041 
   22970    377.28284   -7475.3213   -7433.2348     351.8971    27732.763    3.9562775 
   22980    367.92318   -7474.5612   -7433.5188     425.2608    27707.973    3.9538331 
   22990    363.44189   -7474.3182   -7433.7758    395.36353    27685.732    3.9497935 
   23000    366.40591   -7474.8736   -7434.0004    181.50205    27665.787    3.9478617 
   23010    370.85963   -7475.5689   -7434.1989   -25.783092    27647.112    3.9527015 
   23020    376.75912   -7476.4108   -7434.3828   -156.54694    27628.651    3.9660045 
   23030    380.80001   -7477.0404   -7434.5616   -185.54982    27609.747    3.9863469 
   23040    382.26765   -7477.3859   -7434.7434   -203.93819    27590.199    4.0099411 
   23050    375.59402    -7476.823   -7434.9249   -107.76615    27569.977    4.0330153 
   23060    370.13504   -7476.3786   -7435.0895    59.898813    27549.577    4.0528103 
   23070    374.21254    -7476.977   -7435.2331    135.37316    27529.785    4.0668144 
   23080    372.98261   -7476.9683   -7435.3615    157.08634    27510.973    4.0749867 
   23090    364.07885   -7476.0822   -7435.4687    193.31136    27493.263    4.0809831 
   23100    364.18523   -7476.1727   -7435.5473    171.14298    27476.766    4.0885849 
   23110     366.1142   -7476.4368   -7435.5963    231.89813    27461.428    4.0996123 
   23120    363.63422   -7476.1846   -7435.6207     332.7402    27447.479    4.1143471 
   23130    361.64042   -7475.9614   -7435.6199    438.15198    27435.406     4.132465 
   23140    366.20274   -7476.4445   -7435.5941    395.53786    27425.635    4.1529839 
   23150    370.79069   -7476.9113   -7435.5491    271.39504    27417.931      4.17464 
   23160    362.98213   -7475.9802    -7435.489    345.18736    27411.787    4.1960694 
   23170    359.02733   -7475.4586   -7435.4086    430.38707     27407.45    4.2145991 
   23180     371.0743   -7476.7002   -7435.3063    348.18772     27405.24    4.2293827 
   23190    378.77879   -7477.4512   -7435.1979    252.87725    27404.795    4.2419243 
   23200    376.25967   -7477.0745   -7435.1022    243.19748     27405.67    4.2523798 
   23210    369.20498   -7476.2005   -7435.0151    167.97121    27407.736    4.2600796 
   23220    367.34845   -7475.9025   -7434.9243    18.267322    27410.592    4.2653624 
   23230    368.04977   -7475.8777   -7434.8212   -62.612261    27413.539    4.2697969 
   23240    370.69245    -7476.059   -7434.7077     -3.82725    27416.203    4.2743787 
   23250    376.44153   -7476.5837    -7434.591    168.22693    27418.867    4.2804585 
   23260    379.99547   -7476.8743   -7434.4852    376.32289    27422.355    4.2904136 
   23270    370.11608   -7475.6809   -7434.3939    606.27894    27427.714    4.3057925 
   23280    366.78081     -7475.22    -7434.305    642.45895    27435.986    4.3257106 
   23290    377.14619    -7476.282   -7434.2108    420.34273    27447.309     4.346462 
   23300    375.32757   -7475.9904    -7434.122    271.10107    27460.711    4.3629586 
   23310    363.00298   -7474.5328   -7434.0393    201.81436    27475.408    4.3713398 
   23320     362.1044   -7474.3393    -7433.946    132.79446    27491.018    4.3705226 
   23330     367.2947   -7474.8065   -7433.8342   -5.7828284    27507.164    4.3641201 
   23340    378.13856    -7475.901   -7433.7191   -309.50138    27523.112    4.3579478 
   23350    381.02477   -7476.1224   -7433.6185   -656.63639    27537.387    4.3571622 
   23360    378.23204    -7475.736   -7433.5436   -948.13545     27548.29    4.3624618 
   23370    374.38722   -7475.2521   -7433.4887   -1191.2978    27554.336    4.3710272 
   23380    369.04795   -7474.6103   -7433.4425   -1191.8279    27554.421    4.3795419 
   23390    376.28845   -7475.3761   -7433.4006   -1048.0864    27548.524    4.3850609 
   23400    382.84865    -7476.078   -7433.3706   -793.57973    27537.412    4.3873302 
   23410    376.40093   -7475.3466   -7433.3585   -469.16543    27522.357    4.3882425 
   23420    368.33053   -7474.4378     -7433.35   -199.50552    27504.977    4.3897376 
   23430    366.76821   -7474.2434   -7433.3299   -45.444958    27486.633    4.3935067 
   23440    370.52827   -7474.6292   -7433.2962    25.760578    27468.129    4.4007928 
   23450    372.08066   -7474.7623   -7433.2561    61.832402    27449.828    4.4117894 
   23460    365.49095   -7473.9821    -7433.211     194.1302    27431.959    4.4247255 
   23470    361.74729   -7473.5028   -7433.1494    466.21553    27415.198    4.4351136 
   23480    372.96143   -7474.6729   -7433.0685    776.25515    27400.852    4.4397924 
   23490    382.39021   -7475.6403   -7432.9841    1161.9103    27390.519    4.4401364 
   23500    384.55407   -7475.8189   -7432.9213    1379.2719     27385.98    4.4396936 
   23510    382.08115   -7475.5078    -7432.886    1297.0953    27388.252    4.4401368 
   23520    388.22754   -7476.1844    -7432.877    1038.9543    27396.973    4.4394933 
   23530    395.21629   -7476.9874   -7432.9005    781.68768    27410.922    4.4363001 
   23540    392.29281   -7476.7281   -7432.9673    531.84661    27428.797    4.4320103 
   23550    383.64924   -7475.8649   -7433.0682    329.54118    27449.374    4.4282342 
   23560    378.97024   -7475.4601   -7433.1854    134.75069    27471.603    4.4256336 
   23570    380.49587   -7475.7549     -7433.31    -31.60804    27494.518    4.4247761 
   23580    379.39421   -7475.7667   -7433.4447    -81.56346    27517.318    4.4251298 
   23590     376.9361   -7475.6369   -7433.5891   -118.53421    27539.713     4.423931 
   23600    377.34083   -7475.8328   -7433.7399   -361.36765    27561.403    4.4187294 
   23610    372.33457   -7475.4266   -7433.8921   -559.21805    27581.279    4.4100377 
   23620    366.79429   -7474.9548   -7434.0383   -634.91133    27598.364    4.3998854 
   23630    363.66075   -7474.7358   -7434.1689   -695.17278    27612.229    4.3904874 
   23640    365.05464   -7475.0015   -7434.2791   -782.01145    27622.532    4.3845292 
   23650    369.63684   -7475.6093   -7434.3758   -818.89263    27628.872    4.3849408 
   23660    365.80703   -7475.2688   -7434.4624   -769.23217    27631.081    4.3922661 
   23670    360.41007   -7474.7382   -7434.5339   -725.14631    27629.345    4.4035274 
   23680    361.09611   -7474.8608     -7434.58   -597.30459    27623.951    4.4150634 
   23690    368.70198    -7475.732   -7434.6027   -476.05673    27615.488    4.4254468 
   23700    372.89109   -7476.2076   -7434.6111   -350.95353    27604.603    4.4358857 
   23710    376.70118   -7476.6384   -7434.6168   -259.13161      27591.9    4.4482518 
   23720     377.0038   -7476.6813    -7434.626   -192.36653    27577.843    4.4630517 
   23730    372.72145   -7476.2172   -7434.6396   -124.95315    27562.795    4.4793823 
   23740    364.07468   -7475.2597   -7434.6466   -116.93079    27547.062    4.4959798 
   23750    359.08304   -7474.6854   -7434.6292   -188.58378    27530.681    4.5104548 
   23760    362.34304   -7474.9911   -7434.5712   -223.31458    27513.343    4.5209299 
   23770    364.61154   -7475.1349    -7434.462   -58.190288    27494.954    4.5282435 
   23780    362.93528   -7474.7809   -7434.2949    262.72982    27476.316    4.5329992 
   23790    360.70772   -7474.2988   -7434.0613    585.56522    27458.991    4.5355294 
   23800    366.00531   -7474.5856   -7433.7571    724.49433    27444.537    4.5371501 
   23810     375.6154   -7475.2931   -7433.3926    687.24753    27433.652     4.538674 
   23820    381.39851   -7475.5463   -7433.0008    564.82094    27426.188    4.5400291 
   23830    386.37111   -7475.7182   -7432.6179    334.41623    27421.512    4.5410123 
   23840    388.26697   -7475.5797   -7432.2679    158.18686    27418.534    4.5417867 
   23850    386.18201   -7475.0415   -7431.9623    276.95447    27416.505      4.54217 
   23860    387.04968    -7474.879    -7431.703    460.35098    27415.882    4.5401431 
   23870    384.05156   -7474.3284   -7431.4868    673.85723    27417.594    4.5325263 
   23880    384.28603   -7474.1779   -7431.3102    772.27393    27422.649    4.5173948 
   23890    382.94755   -7473.8827   -7431.1643    718.66036    27431.558    4.4966495 
   23900     384.2378    -7473.909   -7431.0467    509.50134    27444.056    4.4739318 
   23910    387.58632   -7474.1908    -7430.955    279.01689    27459.153    4.4532436 
   23920    384.34207   -7473.7654   -7430.8914    311.71437    27475.866    4.4371866 
   23930    381.84976    -7473.449   -7430.8531    357.59327    27494.227    4.4239477 
   23940    384.84874   -7473.7651   -7430.8347    186.82324    27514.374    4.4092288 
   23950    385.98301   -7473.8927   -7430.8357   -15.819138    27535.538    4.3910138 
   23960    385.67564   -7473.8849   -7430.8622   -63.737969    27556.782    4.3699819 
   23970    379.62387   -7473.2583   -7430.9107    4.7354168    27577.858    4.3481151 
   23980    378.14902    -7473.157   -7430.9739    8.5314829    27599.023    4.3282272 
   23990    376.77272    -7473.076   -7431.0464    91.777908    27620.384    4.3126405 
   24000    373.30976   -7472.7681   -7431.1248    116.05492    27642.275    4.3005723 
   24010    378.63979   -7473.4443   -7431.2064    30.397848    27664.828    4.2893427 
   24020    390.89587   -7474.9085   -7431.3035   -96.351826    27687.644    4.2771657 
   24030    399.05561   -7475.9597   -7431.4445   -184.66883    27710.112    4.2640245 
   24040    399.02876   -7476.1636   -7431.6513   -303.00322    27731.722    4.2502943 
   24050    392.50409   -7475.7079   -7431.9235     -387.966    27751.882    4.2360925 
   24060    385.12772   -7475.2078   -7432.2463   -335.43727    27770.186    4.2209504 
   24070    378.24958   -7474.7886   -7432.5943    -305.3295    27786.818    4.2044188 
   24080    372.89441    -7474.538   -7432.9411   -460.72947    27801.854     4.187575 
   24090    366.66217   -7474.1619   -7433.2601   -510.35916    27814.646    4.1734852 
   24100    368.51129   -7474.6463   -7433.5383   -452.66638    27824.911    4.1650484 
   24110    377.41004   -7475.8828   -7433.7822   -479.18997    27832.822    4.1628528 
   24120    380.63322   -7476.4631   -7434.0029   -533.66082    27838.264    4.1641674 
   24130    379.51532   -7476.5412   -7434.2057   -554.24593    27840.978    4.1649956 
   24140    375.38921    -7476.263   -7434.3878   -469.54371    27840.867    4.1629507 
   24150    370.43976   -7475.8661    -7434.543   -291.90744     27838.36     4.157349 
   24160    367.36866    -7475.648   -7434.6674   -222.40709    27834.274    4.1489959 
   24170     361.2164   -7475.0518   -7434.7575   -340.34551    27828.931    4.1410626 
   24180    355.97387   -7474.5157   -7434.8063   -520.30894    27821.768    4.1372862 
   24190    363.46628   -7475.3621   -7434.8168   -612.50901    27811.887    4.1394008 
   24200    373.78704   -7476.5008   -7434.8043   -459.15876    27798.865    4.1475123 
   24210    375.88584   -7476.7154   -7434.7848   -121.89632    27783.446    4.1601361 
   24220    373.14528   -7476.3881   -7434.7632    182.00739    27767.298    4.1742372 
   24230    371.21521   -7476.1462   -7434.7366    383.15153    27751.974    4.1869358 
   24240    375.29267   -7476.5696   -7434.7051    435.05564    27738.476    4.1970957 
   24250    379.47093   -7477.0072   -7434.6767    430.84374    27727.143    4.2068848 
   24260    377.27533   -7476.7449   -7434.6593    421.87497    27717.961    4.2194729 
   24270    371.84109   -7476.1268   -7434.6474    443.00115    27710.909    4.2355265 
   24280    370.65771   -7475.9788   -7434.6313    375.24108    27706.062    4.2544887 
   24290    373.91329   -7476.3191   -7434.6085    251.40724    27703.103    4.2758183 
   24300    372.70818   -7476.1566   -7434.5805    187.23905    27701.453    4.2985249 
   24310    367.88585   -7475.5815   -7434.5432    64.577752     27700.73     4.320126 
   24320       370.52   -7475.8237   -7434.4917    -183.1211    27700.261    4.3372908 
   24330    374.46522   -7476.2035   -7434.4313   -258.29606    27698.935    4.3499189 
   24340    370.70053   -7475.7187   -7434.3665   -210.62495    27696.323    4.3609973 
   24350     369.1426   -7475.4713   -7434.2929   -170.89013    27692.608    4.3733249 
   24360    370.67939    -7475.551   -7434.2011   -215.22238    27687.948     4.388622 
   24370    374.59172   -7475.8772   -7434.0909   -294.17318    27682.118    4.4070966 
   24380    375.89594   -7475.8967   -7433.9649   -222.15287    27674.787    4.4278013 
   24390    380.71729   -7476.2984   -7433.8288   -13.770806    27666.312    4.4477711 
   24400    381.67598   -7476.2645   -7433.6879     148.8289    27657.682    4.4637771 
   24410    376.76103   -7475.5731   -7433.5448    191.58924    27649.692     4.474384 
   24420    381.56231   -7475.9554   -7433.3915    111.01616    27642.563    4.4815672 
   24430    391.10974   -7476.8582   -7433.2293    93.073669    27635.982    4.4894468 
   24440    392.37741   -7476.8457   -7433.0754    249.21988    27629.923    4.5003555 
   24450    384.59937   -7475.8399   -7432.9373    351.43384    27625.068    4.5128621 
   24460    377.87958   -7474.9538   -7432.8007    319.07271    27621.905    4.5228533 
   24470    380.97596   -7475.1489   -7432.6504    238.71453    27620.334     4.527442 
   24480    382.02983   -7475.0987   -7432.4827     80.89857    27619.936    4.5265982 
   24490    382.86715   -7475.0102   -7432.3008    -190.5303    27619.899    4.5207895 
   24500    391.10747   -7475.7375   -7432.1088   -570.02406    27618.831    4.5124914 
   24510    397.67916   -7476.2852   -7431.9235   -853.41859    27614.889    4.5067927 
   24520    393.03152   -7475.6118   -7431.7686   -980.49446    27606.587    4.5072174 
   24530    381.71259   -7474.2224   -7431.6418   -959.54865    27593.256    4.5130229 
   24540    384.42703   -7474.4102   -7431.5268   -948.42707    27574.857     4.520988 
   24550    390.60094   -7474.9931    -7431.421   -848.40956    27551.422     4.528805 
   24560    386.73477   -7474.4742   -7431.3334   -593.90584     27523.46    4.5341899 
   24570    385.30951   -7474.2438   -7431.2619   -231.12829    27492.218    4.5357622 
   24580    389.72845   -7474.6755   -7431.2007    131.93071    27459.446    4.5340116 
   24590    392.68386   -7474.9654    -7431.161    430.15226     27426.97    4.5304631 
   24600    384.51498   -7474.0446   -7431.1514    670.57257    27396.306    4.5278253 
   24610     376.0281   -7473.1079   -7431.1614    859.16263     27368.71    4.5268468 
   24620    378.66533   -7473.4197    -7431.179    970.48897    27345.145    4.5258603 
   24630    382.97002   -7473.9279    -7431.207    995.02706    27326.192    4.5239437 
   24640      386.294   -7474.3506   -7431.2589    924.85826     27312.01    4.5215998 
   24650    391.23536   -7474.9899    -7431.347    742.05348    27302.283    4.5200929 
   24660    393.98893   -7475.4364   -7431.4864    514.47754    27296.167    4.5214167 
   24670    386.23562   -7474.7661   -7431.6809    382.86577    27292.622    4.5266789 
   24680    373.10324   -7473.5297   -7431.9094    292.09637    27290.973    4.5333758 
   24690    368.97173   -7473.3069   -7432.1475     154.0032    27290.748    4.5385172 
   24700    368.47578   -7473.4907   -7432.3867    98.262119    27291.319    4.5410554 
   24710    359.86119   -7472.7572   -7432.6141    208.50741    27292.459    4.5388946 
   24720    354.96479   -7472.4065   -7432.8097    290.13153    27294.652    4.5290001 
   24730    363.94645    -7473.569   -7432.9702    244.85074    27298.281    4.5123396 
   24740    378.71897   -7475.3618   -7433.1151    83.682975    27303.121    4.4957872 
   24750    390.31124    -7476.818   -7433.2782   -2.9573184    27308.469    4.4871414 
   24760    387.60078   -7476.7159   -7433.4785    51.797756     27313.94    4.4893009 
   24770    375.11857   -7475.5464   -7433.7013    196.09064    27319.789    4.4988636 
   24780    370.34754   -7475.2374   -7433.9246    257.83055     27326.66    4.5106175 
   24790    366.95885   -7475.0694   -7434.1346    228.82117    27334.881    4.5209371 
   24800    365.85548   -7475.1339   -7434.3222     89.05231    27344.294    4.5262578 
   24810    368.27309   -7475.5664    -7434.485   -41.555408    27354.287    4.5249588 
   24820    371.84271   -7476.1094   -7434.6297   -99.493171    27364.244    4.5185544 
   24830    374.95815   -7476.5911    -7434.764    -255.7837     27373.75    4.5093105 
   24840    373.35016   -7476.5402   -7434.8924   -320.23271    27382.124    4.4993339 
   24850       362.95   -7475.4943   -7435.0066   -246.32809    27389.033    4.4903914 
   24860    361.43336   -7475.4146   -7435.0962   -209.76111    27394.748    4.4827133 
   24870    363.03791   -7475.6552   -7435.1578   -268.41146    27399.414    4.4768374 
   24880    359.70578   -7475.3195   -7435.1938   -361.74318    27402.755    4.4733081 
   24890    353.05278    -7474.585   -7435.2014   -401.33103     27404.33    4.4705468 
   24900     340.8296   -7473.1802   -7435.1601    -341.9643    27403.954    4.4663534 
   24910    345.39198     -7473.58    -7435.051   -378.91525    27401.812    4.4601718 
   24920    361.41728   -7475.1865   -7434.8698   -435.33821    27397.717    4.4549918 
   24930    371.74022   -7476.1038   -7434.6356   -340.92114    27391.434    4.4546484 
   24940     386.5604   -7477.4978   -7434.3764   -127.81296    27383.403    4.4608028 
   24950    397.40406   -7478.4508   -7434.1198    85.539888    27374.623    4.4730387 
   24960     396.2328   -7478.0975   -7433.8971    242.23028    27366.156     4.488959 
   24970     393.9121   -7477.6576   -7433.7161     218.2413    27358.743    4.5051309 
   24980     391.1602   -7477.2033   -7433.5688    60.754164    27352.292    4.5194788 
   24990    390.77777   -7477.0414   -7433.4496    11.320759     27346.13    4.5312316 
   25000    389.71204   -7476.8272   -7433.3542    116.89459    27340.034    4.5415401 
Loop time of 15666.6 on 16 procs for 20000 steps with 864 atoms

Performance: 0.110 ns/day, 217.592 hours/ns, 1.277 timesteps/s
97.6% CPU use with 16 MPI tasks x 1 OpenMP threads

MPI task timing breakdown:
Section |  min time  |  avg time  |  max time  |%varavg| %total
---------------------------------------------------------------
Pair    | 12854      | 14695      | 15536      | 494.6 | 93.80
Bond    | 0.0015492  | 0.0071777  | 0.013964   |   3.9 |  0.00
Neigh   | 0.20515    | 0.23909    | 0.27748    |   3.4 |  0.00
Comm    | 69.119     | 804.67     | 2654.7     |2110.6 |  5.14
Output  | 1.2366     | 1.2651     | 1.6845     |   9.6 |  0.01
Modify  | 44.865     | 165.24     | 420.92     |1172.0 |  1.05
Other   |            | 0.09251    |            |       |  0.00

Nlocal:        54.0000 ave          63 max          46 min
Histogram: 1 2 2 1 4 1 2 1 1 1
Nghost:        422.500 ave         452 max         391 min
Histogram: 1 2 0 5 0 1 1 2 3 1
Neighs:         0.00000 ave           0 max           0 min
Histogram: 16 0 0 0 0 0 0 0 0 0
FullNghs:      1684.50 ave        2049 max        1346 min
Histogram: 1 1 2 3 4 0 1 1 1 2

Total # of neighbors = 26952
Ave neighs/atom = 31.194444
Ave special neighs/atom = 0.0000000
Neighbor list builds = 2000
Dangerous builds = 2000
unfix   3
                
Total wall time: 5:26:22
