LAMMPS (29 Sep 2021 - Update 3)
OMP_NUM_THREADS environment is not set. Defaulting to 1 thread. (src/comm.cpp:98)
  using 1 OpenMP thread(s) per MPI task
units	metal
atom_style	full

read_data	mixed.data
Reading data file ...
  orthogonal box = (0.0000000 0.0000000 0.0000000) to (19.147970 18.143486 83.460053)
  2 by 1 by 8 MPI processor grid
  reading atoms ...
  864 atoms
Finding 1-2 1-3 1-4 neighbors ...
  special bond factors lj:    0        0        0       
  special bond factors coul:  0        0        0       
     0 = max # of 1-2 neighbors
     0 = max # of 1-3 neighbors
     0 = max # of 1-4 neighbors
     1 = max # of special neighbors
  special bonds CPU = 0.001 seconds
  read_data CPU = 0.017 seconds

pair_style	quip
pair_coeff	* * /ocean/projects/cts180021p/wuziqi/clease/mint-PD/PhaseDiagram-Clease/Liquid/GAP_potential/gap_LiKCl.xml "Potential xml_label=GAP_2021_9_27_0_1_17_37_618" 17 19 3

neighbor	0.3 bin
neigh_modify	delay 10

timestep	0.001
compute	msd all msd
thermo_style	custom step temp pe etotal press vol c_msd[4]
thermo	10
dump	1 all custom 10 xyz-mix.dump type id x y z
dump	2 all custom 10 force-mix.dump type id fx fy fz

fix     1 all nve
run     2000
Neighbor list info ...
  update every 1 steps, delay 10 steps, check yes
  max neighbors/atom: 2000, page size: 100000
  master list distance cutoff = 6.22
  ghost atom cutoff = 6.22
  binsize = 3.11, bins = 7 6 27
  1 neighbor lists, perpetual/occasional/extra = 1 0 0
  (1) pair quip, perpetual
      attributes: full, newton on
      pair build: full/bin
      stencil: full/bin/3d
      bin: standard
Per MPI rank memory allocation (min/avg/max) = 8.888 | 8.895 | 8.900 Mbytes
Step Temp PotEng TotEng Press Volume c_msd[4] 
       0            0   -7700.8381   -7700.8381    -4537.927    28994.935            0 
      10    45.183944    -7705.883   -7700.8427   -4512.0438    28994.935 0.00030079645 
      20    126.64468   -7714.9757   -7700.8483   -4255.0047    28994.935 0.0038182906 
      30    177.09989   -7720.6021   -7700.8463   -3781.1412    28994.935  0.013459324 
      40    209.87694   -7724.2579   -7700.8458    -3431.074    28994.935  0.027221013 
      50    241.22837   -7727.7551   -7700.8457   -3411.1653    28994.935  0.041726522 
      60    268.67173    -7730.818   -7700.8473   -3593.0662    28994.935  0.056043827 
      70     275.0391   -7731.5278   -7700.8468   -3607.6817    28994.935  0.071357203 
      80    265.25817   -7730.4352   -7700.8452   -3405.9066    28994.935  0.088279141 
      90    259.20615   -7729.7596   -7700.8448   -3201.4486    28994.935   0.10567802 
     100    263.43248   -7730.2328   -7700.8465   -3100.4009    28994.935    0.1224315 
     110    261.11727   -7729.9736   -7700.8456   -3033.5725    28994.935   0.13961289 
     120    259.78415   -7729.8251   -7700.8458   -3194.7166    28994.935   0.15773106 
     130    260.98349   -7729.9594   -7700.8463   -3347.3712    28994.935   0.17623602 
     140     255.9553   -7729.3982    -7700.846   -3347.8197    28994.935    0.1944487 
     150    249.49756   -7728.6766   -7700.8447   -3322.3017    28994.935   0.21137034 
     160     254.2947   -7729.2133   -7700.8464   -3341.2107    28994.935   0.22648355 
     170    255.39364   -7729.3354   -7700.8459   -3341.1695    28994.935   0.24056013 
     180    255.33687   -7729.3285   -7700.8453   -3331.4823    28994.935   0.25386781 
     190    260.76117   -7729.9344   -7700.8461   -3386.2272    28994.935   0.26621627 
     200    264.43741   -7730.3443   -7700.8459   -3501.0887    28994.935    0.2779645 
     210    266.13355   -7730.5336    -7700.846   -3595.0956    28994.935   0.28977516 
     220     266.1185   -7730.5314   -7700.8455   -3526.2817    28994.935   0.30213735 
     230    270.18321   -7730.9847   -7700.8454   -3347.9295    28994.935   0.31516558 
     240    278.15139   -7731.8749   -7700.8467   -3118.2308    28994.935   0.32946162 
     250    277.04449   -7731.7511   -7700.8464   -2922.7818    28994.935   0.34515362 
     260    270.54869   -7731.0256   -7700.8455   -2860.0876    28994.935   0.36076902 
     270    270.26056   -7730.9936   -7700.8456   -2886.6638    28994.935    0.3744656 
     280    273.36059   -7731.3402   -7700.8465   -2958.6022    28994.935   0.38584739 
     290    272.08277    -7731.197   -7700.8457   -3010.2651    28994.935   0.39576783 
     300    272.47723   -7731.2413   -7700.8461   -3100.0508    28994.935    0.4054068 
     310    271.93405   -7731.1808   -7700.8461   -3197.7717    28994.935   0.41587444 
     320     269.8009   -7730.9425   -7700.8458   -3135.1867    28994.935   0.42741727 
     330    269.08948   -7730.8635   -7700.8462   -2993.1826    28994.935   0.43980783 
     340    268.16652   -7730.7603   -7700.8459   -2893.4834    28994.935   0.45291747 
     350    270.00833   -7730.9658   -7700.8459    -2886.157    28994.935   0.46637788 
     360    272.40416   -7731.2339   -7700.8468   -2898.1671    28994.935   0.47993924 
     370    268.70619   -7730.8204   -7700.8458   -2820.4785    28994.935   0.49341184 
     380    268.96819   -7730.8497   -7700.8459   -2726.7365    28994.935    0.5062241 
     390    274.33864   -7731.4496   -7700.8467   -2645.6399    28994.935   0.51814514 
     400    276.36872   -7731.6757   -7700.8464   -2560.3847    28994.935   0.52930511 
     410    276.65126   -7731.7069    -7700.846   -2480.5382    28994.935   0.53982283 
     420    279.28097   -7732.0012   -7700.8469   -2431.2553    28994.935   0.55016179 
     430    276.82132   -7731.7259   -7700.8461    -2350.253    28994.935    0.5605612 
     440    277.03673   -7731.7497   -7700.8458   -2209.9282    28994.935   0.57093397 
     450    283.29469   -7732.4489    -7700.847   -2142.7855    28994.935   0.58158636 
     460    283.18302   -7732.4358   -7700.8463   -2100.6621    28994.935   0.59293578 
     470    283.23944   -7732.4417   -7700.8459   -2099.1213    28994.935   0.60470775 
     480    287.80996   -7732.9521   -7700.8464   -2253.1287    28994.935    0.6158485 
     490    288.81392   -7733.0639   -7700.8462   -2363.7422    28994.935   0.62479236 
     500    286.12762   -7732.7647   -7700.8468   -2407.5126    28994.935   0.63109946 
     510    276.45664   -7731.6849   -7700.8457   -2333.6198    28994.935   0.63597531 
     520    272.85667   -7731.2829   -7700.8454   -2206.2639    28994.935   0.64031219 
     530    279.50156   -7732.0253   -7700.8465   -2083.3564    28994.935   0.64463616 
     540    284.37697   -7732.5687    -7700.846   -1943.8509    28994.935   0.65001402 
     550    291.30626   -7733.3418   -7700.8462   -1829.3471    28994.935   0.65693039 
     560    297.78102   -7734.0651   -7700.8471   -1833.9621    28994.935   0.66549221 
     570    293.16658   -7733.5496   -7700.8465   -1837.0313    28994.935    0.6760564 
     580    285.58978   -7732.7039   -7700.8459   -1826.5131    28994.935   0.68850487 
     590    282.56573   -7732.3668   -7700.8462   -1911.9655    28994.935    0.7021441 
     600     283.4768   -7732.4683   -7700.8461   -2073.7839    28994.935    0.7157642 
     610    287.24651   -7732.8898    -7700.847   -2293.6112    28994.935   0.72816073 
     620    284.76091   -7732.6116   -7700.8461   -2326.3579    28994.935   0.73882186 
     630    285.14211   -7732.6539   -7700.8459   -2334.4346    28994.935   0.74737438 
     640    290.36779   -7733.2378   -7700.8468   -2353.3887    28994.935    0.7538232 
     650    290.71623   -7733.2766   -7700.8467   -2278.0119    28994.935   0.75912133 
     660    288.33491   -7733.0103   -7700.8461   -2194.3759    28994.935   0.76456941 
     670    289.38519   -7733.1286   -7700.8472   -2280.7715    28994.935   0.77063577 
     680    284.08824   -7732.5372   -7700.8467   -2463.5275    28994.935   0.77689412 
     690    275.77756   -7731.6093   -7700.8459   -2595.8822    28994.935   0.78265361 
     700    273.49144   -7731.3545   -7700.8461   -2613.0856    28994.935   0.78795972 
     710       273.31   -7731.3347   -7700.8466   -2521.5258    28994.935   0.79394117 
     720    269.49383   -7730.9092   -7700.8467    -2471.479    28994.935   0.80161731 
     730    262.18364   -7730.0925   -7700.8455   -2432.3962    28994.935   0.81035929 
     740    268.03582   -7730.7459   -7700.8461   -2455.7574    28994.935   0.81713067 
     750      280.622   -7732.1512   -7700.8473   -2533.4825    28994.935   0.82146207 
     760    283.23536   -7732.4419   -7700.8466   -2512.7271    28994.935   0.82470762 
     770    282.03319   -7732.3076   -7700.8464   -2550.3227    28994.935   0.82669995 
     780    279.77355   -7732.0557   -7700.8465   -2597.5325    28994.935   0.82699219 
     790    278.93712    -7731.962   -7700.8461   -2631.8344    28994.935   0.82552909 
     800    281.08894   -7732.2026   -7700.8467   -2684.1916    28994.935   0.82315699 
     810    280.13687   -7732.0959   -7700.8463   -2681.9226    28994.935   0.82177255 
     820     281.3104   -7732.2267   -7700.8461   -2639.4626    28994.935   0.82239938 
     830    285.21728   -7732.6634    -7700.847   -2628.9625    28994.935   0.82520652 
     840    283.73704   -7732.4982   -7700.8469   -2551.7329    28994.935   0.82976691 
     850    277.96973   -7731.8542   -7700.8462   -2441.8061    28994.935   0.83512428 
     860    278.46628   -7731.9092   -7700.8458    -2451.403    28994.935   0.84001546 
     870     286.3188   -7732.7868   -7700.8475   -2562.6227    28994.935   0.84379749 
     880    284.94265   -7732.6322   -7700.8465   -2543.1687    28994.935   0.84689222 
     890    282.26548   -7732.3331    -7700.846   -2457.3709    28994.935   0.84934875 
     900    285.50422   -7732.6948   -7700.8464   -2420.2274    28994.935   0.85157652 
     910    289.66708   -7733.1596   -7700.8468   -2414.4195    28994.935   0.85497176 
     920    289.15743   -7733.1025   -7700.8466   -2444.5638    28994.935   0.85995223 
     930    286.27915    -7732.781   -7700.8462   -2572.7025    28994.935   0.86509978 
     940    285.95089   -7732.7444   -7700.8462   -2776.6718    28994.935   0.86904324 
     950    288.49376   -7733.0284   -7700.8465   -2889.1908    28994.935   0.87143422 
     960    289.92569   -7733.1882   -7700.8466   -2832.2639    28994.935   0.87230061 
     970     289.5038   -7733.1411   -7700.8465   -2634.1457    28994.935   0.87176043 
     980    287.47267   -7732.9147   -7700.8467   -2412.0947    28994.935   0.87065618 
     990    285.00128   -7732.6385   -7700.8462   -2204.4549    28994.935   0.87041092 
    1000     286.6964   -7732.8282   -7700.8468   -2219.8679    28994.935   0.87192888 
    1010    285.76351   -7732.7245   -7700.8471   -2431.4357    28994.935   0.87520227 
    1020    279.23305   -7731.9951   -7700.8462   -2663.3857    28994.935   0.87962384 
    1030    276.12451   -7731.6483   -7700.8462   -2859.1863    28994.935   0.88430034 
    1040    278.85999   -7731.9537   -7700.8465    -2881.783    28994.935   0.88821373 
    1050    283.63264   -7732.4862   -7700.8465   -2806.0208    28994.935   0.89127233 
    1060    287.45819   -7732.9134    -7700.847   -2784.5081    28994.935   0.89438156 
    1070    287.50721   -7732.9183   -7700.8464    -2666.725    28994.935   0.89833559 
    1080     288.3388   -7733.0115   -7700.8468   -2554.5321    28994.935   0.90295372 
    1090    287.72687   -7732.9434   -7700.8471    -2449.256    28994.935   0.90791379 
    1100    282.26879   -7732.3342   -7700.8467   -2349.9216    28994.935   0.91319332 
    1110    278.17476   -7731.8766   -7700.8457   -2362.6978    28994.935   0.91830915 
    1120    285.00574   -7732.6397   -7700.8469   -2476.5807    28994.935   0.92287415 
    1130    291.73084   -7733.3901   -7700.8471   -2509.8798    28994.935   0.92706174 
    1140    292.56331   -7733.4827   -7700.8468   -2461.8775    28994.935   0.93059884 
    1150    291.16272   -7733.3259   -7700.8462   -2379.8012    28994.935   0.93290929 
    1160    294.20611   -7733.6658   -7700.8466   -2430.1845    28994.935   0.93429138 
    1170    296.65171   -7733.9391   -7700.8472     -2519.69    28994.935   0.93626719 
    1180    293.48989   -7733.5857   -7700.8465   -2544.9247    28994.935     0.939758 
    1190    292.32791   -7733.4561   -7700.8465   -2544.6809    28994.935   0.94403649 
    1200    292.54359   -7733.4805   -7700.8469    -2530.558    28994.935   0.94834108 
    1210    290.86487   -7733.2928   -7700.8464   -2465.9334    28994.935   0.95245077 
    1220    291.85186   -7733.4031   -7700.8466   -2358.3836    28994.935   0.95556404 
    1230    293.44413    -7733.581   -7700.8469   -2284.1551    28994.935    0.9573295 
    1240    292.76049   -7733.5044   -7700.8465   -2170.6219    28994.935   0.95845355 
    1250    293.13798   -7733.5467   -7700.8467   -2103.9544    28994.935   0.95986863 
    1260    292.96803    -7733.528    -7700.847   -2167.4504    28994.935   0.96196013 
    1270    289.24985   -7733.1127   -7700.8464   -2276.5202    28994.935   0.96415629 
    1280    285.75102   -7732.7224   -7700.8464   -2286.5297    28994.935   0.96566897 
    1290      284.651   -7732.5992    -7700.846   -2272.9878    28994.935   0.96658717 
    1300    288.60829   -7733.0414   -7700.8467   -2265.8955    28994.935   0.96788144 
    1310    290.24478    -7733.224   -7700.8467   -2190.3822    28994.935    0.9706072 
    1320    288.58259   -7733.0384   -7700.8466   -2131.8835    28994.935   0.97434843 
    1330    285.79594   -7732.7273   -7700.8463   -2097.4449    28994.935   0.97833796 
    1340    284.94721   -7732.6325   -7700.8462   -2025.5076    28994.935   0.98199327 
    1350    288.56733   -7733.0366   -7700.8465   -1879.3769    28994.935    0.9842258 
    1360    294.42631   -7733.6904   -7700.8467   -1741.8221    28994.935   0.98424419 
    1370    297.49937   -7734.0339   -7700.8474   -1667.3381    28994.935   0.98285555 
    1380    292.74623   -7733.5025   -7700.8462   -1608.0865    28994.935   0.98190459 
    1390    292.14101   -7733.4347   -7700.8459   -1576.6018    28994.935   0.98232817 
    1400    301.24748   -7734.4513   -7700.8467   -1571.9358    28994.935   0.98457679 
    1410    308.74525   -7735.2887   -7700.8477   -1627.6249    28994.935   0.98929211 
    1420    303.47704   -7734.6996   -7700.8463   -1559.3261    28994.935   0.99584973 
    1430    299.27771   -7734.2314   -7700.8465   -1560.2881    28994.935    1.0022596 
    1440    296.07219   -7733.8739   -7700.8466   -1645.0073    28994.935    1.0075133 
    1450    291.73802   -7733.3904   -7700.8466   -1761.2712    28994.935    1.0117171 
    1460    287.07709   -7732.8704   -7700.8466   -1858.1077    28994.935    1.0153184 
    1470    283.25203   -7732.4433   -7700.8461   -1859.1758    28994.935    1.0193785 
    1480    285.43138   -7732.6869   -7700.8466   -1822.6605    28994.935     1.024986 
    1490    289.90651   -7733.1866   -7700.8471   -1845.5531    28994.935    1.0319924 
    1500    290.00682   -7733.1976   -7700.8469   -1829.6868    28994.935    1.0392423 
    1510    288.95403   -7733.0793    -7700.846    -1792.572    28994.935    1.0455821 
    1520    295.71659   -7733.8347    -7700.847   -1855.4847    28994.935    1.0502501 
    1530    300.00567   -7734.3136   -7700.8475   -1884.0491    28994.935    1.0536411 
    1540    296.05902   -7733.8724   -7700.8466    -1822.818    28994.935    1.0568576 
    1550    294.34188   -7733.6807   -7700.8464   -1777.7282    28994.935    1.0604411 
    1560    298.19535   -7734.1112    -7700.847   -1665.6338    28994.935    1.0645653 
    1570    299.64452   -7734.2738    -7700.848   -1440.2495    28994.935    1.0694105 
    1580    292.64469   -7733.4917   -7700.8467   -1277.6152    28994.935     1.074918 
    1590    291.80684   -7733.3982   -7700.8467   -1332.1552    28994.935    1.0805049 
    1600    295.06101   -7733.7628   -7700.8483   -1440.1438    28994.935    1.0859126 
    1610    287.09163   -7732.8718   -7700.8463   -1485.4826    28994.935     1.091018 
    1620    286.48969   -7732.8047   -7700.8463   -1689.2872    28994.935    1.0951954 
    1630    293.71975   -7733.6125   -7700.8476   -1988.5087    28994.935    1.0988049 
    1640    292.89599   -7733.5202   -7700.8473   -2234.1959    28994.935    1.1028795 
    1650    285.80089    -7732.728   -7700.8465   -2370.0192    28994.935     1.107297 
    1660    283.13292   -7732.4301   -7700.8462   -2397.8467    28994.935    1.1109226 
    1670    289.15974   -7733.1032    -7700.847   -2351.0065    28994.935    1.1128534 
    1680    293.97663   -7733.6412   -7700.8477   -2320.8136    28994.935    1.1135229 
    1690    290.81385   -7733.2871   -7700.8464    -2229.079    28994.935    1.1138195 
    1700    291.76806    -7733.394   -7700.8469     -2159.57    28994.935    1.1136614 
    1710    294.02161   -7733.6456   -7700.8471   -2087.1354    28994.935    1.1134744 
    1720    294.14467   -7733.6593    -7700.847   -2007.8553    28994.935    1.1142792 
    1730    292.64536   -7733.4921   -7700.8471   -1906.6844    28994.935    1.1170331 
    1740    289.08712   -7733.0952   -7700.8471   -1708.4731    28994.935    1.1223514 
    1750    285.80556   -7732.7285   -7700.8464   -1570.4904    28994.935    1.1294849 
    1760     287.9638   -7732.9699   -7700.8471   -1527.7152    28994.935    1.1368575 
    1770    288.43964   -7733.0232   -7700.8473   -1474.3978    28994.935    1.1431943 
    1780    286.35452   -7732.7895   -7700.8462   -1374.2159    28994.935     1.147556 
    1790    290.77345   -7733.2831   -7700.8469   -1389.1814    28994.935    1.1497522 
    1800    296.05814   -7733.8725   -7700.8468   -1449.0765    28994.935    1.1507558 
    1810     301.3688   -7734.4651   -7700.8469   -1533.3472    28994.935    1.1516988 
    1820    304.48648   -7734.8131   -7700.8472   -1596.5101    28994.935    1.1539225 
    1830    302.85742    -7734.631   -7700.8468   -1598.9173    28994.935    1.1587776 
    1840    300.11343   -7734.3251    -7700.847   -1609.6044    28994.935    1.1667637 
    1850    297.67909   -7734.0531   -7700.8466   -1550.7625    28994.935    1.1770761 
    1860    299.64542    -7734.273   -7700.8471   -1446.6551    28994.935     1.187862 
    1870     300.4479   -7734.3628   -7700.8474   -1280.9239    28994.935    1.1969883 
    1880    297.75438   -7734.0614   -7700.8465   -1097.3535    28994.935    1.2026277 
    1890    300.44075   -7734.3616   -7700.8469   -1049.3061    28994.935    1.2042642 
    1900    303.94471   -7734.7532   -7700.8477   -1145.0928    28994.935    1.2033292 
    1910    299.67427   -7734.2762   -7700.8471   -1345.6827    28994.935    1.2022867 
    1920    294.22814   -7733.6682   -7700.8466   -1538.3262    28994.935    1.2030558 
    1930    294.31479   -7733.6782   -7700.8469   -1657.6619    28994.935    1.2063703 
    1940    296.08002   -7733.8751   -7700.8469   -1611.8933    28994.935    1.2121107 
    1950    298.47477   -7734.1425   -7700.8472   -1385.7061    28994.935    1.2194675 
    1960    298.47034   -7734.1418    -7700.847   -1084.0269    28994.935    1.2273777 
    1970    298.87552   -7734.1869   -7700.8469   -898.13371    28994.935    1.2348923 
    1980    299.98792   -7734.3117   -7700.8476   -807.05202    28994.935     1.241364 
    1990    297.18456   -7733.9979   -7700.8465   -843.22149    28994.935     1.246939 
    2000    299.90649   -7734.3021   -7700.8471   -1051.7337    28994.935    1.2522542 
Loop time of 1437.12 on 16 procs for 2000 steps with 864 atoms

Performance: 0.120 ns/day, 199.600 hours/ns, 1.392 timesteps/s
98.0% CPU use with 16 MPI tasks x 1 OpenMP threads

MPI task timing breakdown:
Section |  min time  |  avg time  |  max time  |%varavg| %total
---------------------------------------------------------------
Pair    | 1066.8     | 1277.1     | 1430.2     | 292.6 | 88.86
Bond    | 0.0001471  | 0.00074778 | 0.0014091  |   0.0 |  0.00
Neigh   | 0.018652   | 0.023475   | 0.027801   |   1.6 |  0.00
Comm    | 6.6614     | 150.69     | 369.79     | 836.0 | 10.49
Output  | 0.11908    | 5.8474     | 13.657     | 243.3 |  0.41
Modify  | 0.0094967  | 0.011376   | 0.014647   |   1.3 |  0.00
Other   |            | 3.46       |            |       |  0.24

Nlocal:        54.0000 ave          63 max          44 min
Histogram: 2 0 2 1 2 3 2 1 0 3
Nghost:        408.438 ave         459 max         374 min
Histogram: 2 2 1 1 5 3 0 0 1 1
Neighs:         0.00000 ave           0 max           0 min
Histogram: 16 0 0 0 0 0 0 0 0 0
FullNghs:      1578.38 ave        2029 max        1152 min
Histogram: 2 1 2 1 2 3 2 0 1 2

Total # of neighbors = 25254
Ave neighs/atom = 29.229167
Ave special neighs/atom = 0.0000000
Neighbor list builds = 199
Dangerous builds = 198
unfix   1

velocity    all create 525.0 1312343 dist gaussian
fix     2 all npt temp 525.0 525.0 $(100.0*dt) aniso 0.0 1.01325 $(1000.0*dt)
fix     2 all npt temp 525.0 525.0 0.10000000000000000555 aniso 0.0 1.01325 $(1000.0*dt)
fix     2 all npt temp 525.0 525.0 0.10000000000000000555 aniso 0.0 1.01325 1
run     3000
Per MPI rank memory allocation (min/avg/max) = 8.892 | 8.897 | 8.900 Mbytes
Step Temp PotEng TotEng Press Volume c_msd[4] 
    2000          525   -7734.3021   -7675.7375    -126.7473    28994.935    1.2522542 
    2010    492.24573   -7730.6372   -7675.7265    78.618532    28994.796    1.2600294 
    2020    448.50801   -7725.6832   -7675.6515    177.02315    28994.932    1.2691749 
    2030    428.31624   -7723.2242   -7675.4448    125.87863    28995.738    1.2751818 
    2040    418.12795   -7721.7108    -7675.068    6.0364219    28997.043    1.2783714 
    2050    410.33499    -7720.295   -7674.5215   -178.03742    28998.353    1.2816742 
    2060    410.60231   -7719.6536   -7673.8503   -421.17536    28998.922    1.2870699 
    2070    414.10399   -7719.3353   -7673.1414   -614.71825     28997.83    1.2951878 
    2080    413.16638   -7718.5779   -7672.4886   -654.44851    28994.326     1.305676 
    2090     418.9237   -7718.6369   -7671.9053   -527.77556    28988.255    1.3174589 
    2100    424.66792   -7718.7217   -7671.3494   -340.24658    28980.076    1.3297549 
    2110    427.15804   -7718.4335   -7670.7834   -244.32648    28970.482    1.3417633 
    2120    433.81693   -7718.5735   -7670.1805   -280.94383    28959.832    1.3522565 
    2130    437.93155   -7718.3823   -7669.5304    -324.8642    28948.033    1.3606635 
    2140    435.96044   -7717.4749   -7668.8429   -344.43985    28934.917    1.3672122 
    2150    436.28218   -7716.7939    -7668.126   -368.55279    28920.376    1.3715951 
    2160    444.22868   -7716.9347   -7667.3803   -319.47173    28904.347    1.3741085 
    2170    448.26346   -7716.6212   -7666.6168   -219.23099        28887    1.3764846 
    2180    451.51048   -7716.2178   -7665.8511   -69.888039    28868.757     1.380316 
    2190    456.56188   -7716.0126   -7665.0825   -38.120095     28850.15    1.3867039 
    2200    457.58905   -7715.3608    -7664.316   -150.10275    28831.276    1.3962259 
    2210    451.27085   -7713.8957   -7663.5558   -257.54628    28811.759    1.4078385 
    2220    450.84624   -7713.0876    -7662.795    -388.5909    28791.147    1.4193885 
    2230    456.58723   -7712.9532   -7662.0203   -347.23993    28769.002     1.429942 
    2240    467.72485   -7713.4082   -7661.2328    -330.1639    28745.396    1.4396897 
    2250    480.57343   -7714.0506   -7660.4419   -360.79986    28720.398    1.4487246 
    2260    480.48829   -7713.2653   -7659.6661    -207.7844    28693.979    1.4571453 
    2270    479.33143    -7712.379   -7658.9088    3.9519534    28666.708    1.4649911 
    2280    482.19767   -7711.9453   -7658.1554    97.584692    28639.362    1.4733104 
    2290    481.99818   -7711.1744   -7657.4068    3.0174513    28612.286    1.4830554 
    2300    476.30269   -7709.7998   -7656.6675   -140.40249    28585.168    1.4942024 
    2310    478.15425   -7709.2647   -7655.9259   -227.15964    28557.493    1.5055878 
    2320    482.19668   -7708.9607    -7655.171   -163.82712    28528.971    1.5164505 
    2330    484.62778   -7708.4719    -7654.411   -11.112416    28499.829    1.5268926 
    2340    490.77588   -7708.3978    -7653.651    115.33045    28470.623     1.536849 
    2350    499.07356   -7708.5672   -7652.8948     247.0563    28441.876    1.5453953 
    2360    512.24526   -7709.2934   -7652.1516     395.0418    28414.106    1.5522577 
    2370    526.00688   -7710.1104   -7651.4336    563.61446    28387.868    1.5587365 
    2380    528.68005   -7709.7358   -7650.7608    872.35777    28363.873      1.56604 
    2390    533.96048    -7709.706   -7650.1419    1058.8285    28343.196    1.5744078 
    2400    538.94117   -7709.6984   -7649.5787    1152.6458    28326.557    1.5842914 
    2410    527.96616   -7707.9711   -7649.0757    1313.3794    28314.377      1.59502 
    2420    517.15507    -7706.307   -7648.6175    1384.7815    28307.195      1.60487 
    2430    509.92221   -7705.0533   -7648.1707    1343.7994    28305.283    1.6126345 
    2440    511.97009   -7704.8287   -7647.7177    1205.5809    28308.506    1.6168928 
    2450    515.71214   -7704.7798   -7647.2513      1036.75    28316.358    1.6189936 
    2460    520.49957   -7704.8419   -7646.7794     901.0203    28328.246    1.6214286 
    2470    533.90756   -7705.8688   -7646.3106    622.93486    28343.594    1.6264049 
    2480    541.44581   -7706.2617   -7645.8626    347.97952    28361.405    1.6359685 
    2490    535.09405   -7705.1494   -7645.4589    219.14916    28380.689    1.6492295 
    2500    528.49156   -7704.0473   -7645.0932    268.98505    28400.958    1.6629772 
    2510    534.63857   -7704.3927   -7644.7529    516.07711    28422.414     1.674959 
    2520    543.35343   -7705.0515   -7644.4396    793.82076    28445.983    1.6853978 
    2530    545.91839   -7705.0718   -7644.1737    1024.8655    28472.718    1.6953594 
    2540     534.7809    -7703.615   -7643.9594    1233.0599    28503.561    1.7044805 
    2550     528.2192    -7702.703   -7643.7794    1329.2353    28539.325    1.7112279 
    2560    536.47144   -7703.4618   -7643.6176    1207.4311    28580.366    1.7158767 
    2570    541.07287   -7703.8323   -7643.4748    977.93442    28626.272    1.7213569 
    2580    536.11455   -7703.1669   -7643.3625    855.01905    28676.238    1.7296786 
    2590    534.39539   -7702.8859   -7643.2733    681.22587    28729.732    1.7401173 
    2600    539.73014    -7703.408   -7643.2003    399.96764    28786.046     1.751113 
    2610    535.46878   -7702.8753    -7643.143    85.304613    28844.054    1.7613872 
    2620    529.67773   -7702.1839   -7643.0975   -274.27344    28902.444     1.769926 
    2630      528.849   -7702.0458   -7643.0519    -663.3083     28959.71    1.7766744 
    2640    527.68312    -7701.868   -7643.0042   -918.01523     29014.31    1.7825535 
    2650    528.51277   -7701.9119   -7642.9555   -1239.3816    29065.095    1.7883208 
    2660    529.67388   -7701.9937   -7642.9078    -1730.836    29110.668    1.7940344 
    2670    525.04744   -7701.4343   -7642.8645   -2072.0509    29149.162    1.7988616 
    2680    531.70014   -7702.1475   -7642.8355   -2261.2278    29179.169    1.8022165 
    2690    531.35875   -7702.1033   -7642.8295   -2229.3623    29199.931      1.80489 
    2700     525.9928    -7701.525   -7642.8497   -1989.3976     29211.61    1.8071333 
    2710    529.66175   -7701.9723   -7642.8877    -1812.112    29215.099    1.8089863 
    2720    533.69946   -7702.4788   -7642.9439   -1588.0985    29211.222    1.8110504 
    2730    535.10112   -7702.7156   -7643.0242   -1420.2872    29200.885    1.8126925 
    2740     541.4844   -7703.5383   -7643.1349    -1204.647    29184.843     1.811797 
    2750    549.24052   -7704.5564   -7643.2878   -952.37904    29163.989    1.8084886 
    2760    545.91199   -7704.3923    -7643.495    -750.0905     29139.34    1.8046292 
    2770    537.27309   -7703.6765   -7643.7428   -491.62717    29111.828    1.8003695 
    2780    540.33989   -7704.2975   -7644.0218   -331.07297    29082.437    1.7951194 
    2790    540.86923   -7704.6676   -7644.3328   -149.58588    29051.898    1.7907214 
    2800    537.58168   -7704.6428   -7644.6748   -6.1053022    29020.921    1.7891982 
    2810     535.8218   -7704.8111   -7645.0394     80.35495    28990.074    1.7909527 
    2820    538.11955   -7705.4494   -7645.4214    116.98843    28959.726    1.7957085 
    2830    547.61505   -7706.9201   -7645.8328    97.797898    28930.014    1.8020788 
    2840     550.0396   -7707.6451   -7646.2873    110.15546    28900.879    1.8084101 
    2850    543.30892   -7707.3875   -7646.7805    174.30678    28872.374    1.8133721 
    2860     525.5911   -7705.9048   -7647.2743    248.57244    28844.749    1.8159151 
    2870     521.0852   -7705.8695   -7647.7417    243.66653     28818.25     1.815634 
    2880    516.09679   -7705.7458   -7648.1744    339.06229    28792.915     1.815094 
    2890    506.48875   -7705.0535   -7648.5539    508.90625    28769.116    1.8173622 
    2900    509.69163   -7705.7344   -7648.8775    466.99278    28747.409    1.8229145 
    2910     512.3994   -7706.3172   -7649.1582    354.97585    28727.646    1.8309356 
    2920    504.71987   -7705.6983    -7649.396    379.95822    28709.454    1.8392634 
    2930    509.46007     -7706.42    -7649.589    360.39796    28692.844     1.845101 
    2940    522.47057    -7708.038   -7649.7556    334.35901    28677.759    1.8488821 
    2950    517.66656   -7707.6613   -7649.9148    468.14847    28664.151    1.8537535 
    2960    506.72204   -7706.5805   -7650.0549    631.67833    28652.479    1.8602329 
    2970    511.59241   -7707.2331   -7650.1642    585.02236    28643.268    1.8661089 
    2980    512.33795   -7707.3949   -7650.2428    495.51994      28636.4    1.8706369 
    2990    508.68314   -7707.0396   -7650.2952    442.05038    28631.539    1.8743284 
    3000      506.231   -7706.7838   -7650.3129    452.36062    28628.469    1.8771775 
    3010    506.30667   -7706.7707   -7650.2915    538.79449    28627.215    1.8787989 
    3020    502.32132   -7706.2615   -7650.2268    659.86642    28628.112    1.8795755 
    3030     504.8768   -7706.4331   -7650.1134    545.10651    28631.516    1.8807777 
    3040    519.29476   -7707.8844   -7649.9563    197.35768    28636.962    1.8838815 
    3050    523.56332   -7708.1764   -7649.7721   -194.76339    28643.135    1.8894832 
    3060    521.19087   -7707.7185   -7649.5789   -486.84545    28648.527    1.8964424 
    3070    518.92625   -7707.2631   -7649.3761   -547.88308    28652.061    1.9035388 
    3080    519.86435   -7707.1491   -7649.1574   -442.68803     28653.48    1.9102121 
    3090    528.47588   -7707.8816   -7648.9293   -245.04002     28653.18    1.9159822 
    3100    528.32444   -7707.6398   -7648.7044   -83.579449    28651.915    1.9206099 
    3110    523.24016   -7706.8559   -7648.4877   -82.775313    28650.283    1.9244655 
    3120     511.1861   -7705.2844   -7648.2608   -60.069454    28648.368    1.9284258 
    3130    511.32114   -7705.0454   -7648.0068   -51.837857    28646.231      1.93272 
    3140    523.54523    -7706.119   -7647.7168    21.386831    28643.943    1.9384565 
    3150    535.05488   -7707.1026   -7647.4165     152.3111    28641.788    1.9467729 
    3160    543.73991   -7707.7906   -7647.1356    254.08191    28640.248    1.9570022 
    3170    545.83697   -7707.7822   -7646.8933    253.44052    28639.682    1.9680842 
    3180    546.93263   -7707.7124   -7646.7012    160.92552    28640.098    1.9799074 
    3190    533.32348   -7706.0493   -7646.5562    217.54876    28641.216    1.9934375 
    3200    516.75793    -7704.079   -7646.4339       360.78    28643.221    2.0079154 
    3210    508.76623   -7703.0554   -7646.3018    435.82194    28646.609    2.0214466 
    3220    504.76305   -7702.4433   -7646.1362    437.12757    28651.656    2.0327702 
    3230    516.12514   -7703.5065    -7645.932    306.83822    28658.336    2.0417092 
    3240    519.43775   -7703.6411   -7645.6971    196.53318    28666.166    2.0504687 
    3250    525.24508   -7704.0403   -7645.4485    128.89325    28674.686    2.0601819 
    3260    536.40842   -7705.0339   -7645.1967    220.70931    28683.701    2.0719769 
    3270    544.02838   -7705.6525   -7644.9653    266.64083    28693.486    2.0863806 
    3280    551.12345   -7706.2555   -7644.7769    294.54452    28704.245     2.101726 
    3290    553.80113   -7706.4245   -7644.6471    349.17535    28716.088    2.1161989 
    3300    558.33403   -7706.8708   -7644.5878    213.61564     28729.14     2.128262 
    3310    558.49175   -7706.9054   -7644.6048    -48.96908    28742.897    2.1376401 
    3320    555.43268   -7706.6602   -7644.7009   -250.80638    28756.362    2.1448113 
    3330    541.49881   -7705.2681   -7644.8631   -383.30737    28768.741    2.1526145 
    3340    526.91421   -7703.8414   -7645.0633   -555.82124    28779.485    2.1641179 
    3350    517.07366   -7702.9481   -7645.2677   -696.89111    28787.951    2.1797802 
    3360    514.11986   -7702.8119    -7645.461   -817.74575    28793.603     2.198924 
    3370    509.57339   -7702.4752   -7645.6315   -927.24954    28795.982    2.2196881 
    3380    504.89203   -7702.0972   -7645.7757   -998.53778    28794.703    2.2386578 
    3390    502.48076   -7701.9359   -7645.8834   -1124.5945    28789.493     2.252663 
    3400    509.74237   -7702.8183   -7645.9557    -1321.966    28779.867    2.2609579 
    3410    512.54334   -7703.1756   -7646.0006   -1271.6463    28765.228    2.2664932 
    3420    514.67746   -7703.4371    -7646.024   -1042.8762    28745.797    2.2720213 
    3430    517.60623   -7703.7668   -7646.0271   -749.04851      28722.5    2.2786176 
    3440    514.79041   -7703.4317    -7646.006   -352.74827    28696.574    2.2857542 
    3450    514.40371   -7703.3378   -7645.9553    27.966264     28669.57    2.2927062 
    3460    518.01675   -7703.6559   -7645.8703    310.23818    28642.989    2.2995184 
    3470    529.01684   -7704.7719   -7645.7593    455.52662    28617.911    2.3065255 
    3480    536.76896   -7705.5172   -7645.6399    508.16547    28594.901    2.3146867 
    3490    538.55196   -7705.6098   -7645.5335    561.56318    28574.176    2.3244118 
    3500    534.98215   -7705.1214   -7645.4433    552.91508    28555.899    2.3357151 
    3510    540.31537   -7705.6469   -7645.3739    366.31483    28539.957     2.348381 
    3520    538.36241   -7705.3839   -7645.3287    257.40752    28525.683    2.3618892 
    3530    523.14532   -7703.6589   -7645.3013     269.5327    28512.642    2.3742563 
    3540    508.95341   -7702.0356   -7645.2611     305.6385    28500.855    2.3842625 
    3550    502.15297   -7701.1913   -7645.1753    363.63013    28490.441    2.3941446 
    3560    508.52281   -7701.7553   -7645.0289     454.3583     28481.61    2.4060411 
    3570    520.40992   -7702.8725   -7644.8199    567.10176    28474.682    2.4197817 
    3580    532.25742    -7703.938   -7644.5639    703.88461    28470.076    2.4332851 
    3590    546.68774     -7705.27   -7644.2862    778.89551    28468.258    2.4439318 
    3600    556.28498   -7706.0766   -7644.0222    883.68213    28469.494    2.4507535 
    3610    551.79122    -7705.356   -7643.8028    913.81137    28474.079    2.4554524 
    3620    535.39247   -7703.3528    -7643.629    858.89432    28482.074    2.4597249 
    3630    528.19952   -7702.3969   -7643.4754    761.11677    28493.214    2.4640946 
    3640    526.06785   -7702.0015   -7643.3178    773.04575    28507.135    2.4691302 
    3650    534.51539   -7702.7827   -7643.1567    732.49019    28523.762    2.4745888 
    3660    542.83174   -7703.5564   -7643.0027    647.68026    28542.902    2.4808941 
    3670    550.27251   -7704.2635   -7642.8797    592.24636    28564.171    2.4888939 
    3680    558.44297   -7705.1039   -7642.8088    557.29066     28587.33    2.4989456 
    3690    553.31333   -7704.5277   -7642.8048    380.31413    28612.143    2.5100566 
    3700    547.71812   -7703.9684   -7642.8696    141.97664    28637.925     2.519724 
    3710    544.29843   -7703.7133    -7642.996   -157.14405    28663.711    2.5264197 
    3720    534.01631   -7702.7463    -7643.176     -319.721    28688.405    2.5310462 
    3730    524.29426   -7701.8741   -7643.3883   -381.81402    28711.395    2.5352898 
    3740    533.78819    -7703.171   -7643.6262   -650.36549    28732.343    2.5404429 
    3750    538.28771   -7703.9497   -7643.9029   -929.65682    28750.333    2.5475719 
    3760    537.46969    -7704.188   -7644.2325   -1251.2323    28764.303    2.5554845 
    3770    534.08987   -7704.1918   -7644.6133   -1575.3175     28773.07    2.5621122 
    3780    525.04778   -7703.5986   -7645.0287   -1678.2375    28775.561    2.5661513 
    3790    521.92762   -7703.6784   -7645.4566   -1692.4764    28771.447    2.5679769 
    3800    516.36849    -7703.476   -7645.8743   -1539.5489    28760.856    2.5702205 
    3810     510.6521   -7703.2243   -7646.2603    -1280.679    28744.513     2.574892 
    3820    506.64009   -7703.1128   -7646.5963    -1051.378    28723.524    2.5815665 
    3830    505.75552   -7703.2936   -7646.8758    -824.2128    28698.893    2.5883558 
    3840    510.37644   -7704.0301   -7647.0968   -546.21799    28671.643    2.5941325 
    3850    516.44316   -7704.8859   -7647.2759   -397.95293    28642.868    2.5995708 
    3860    509.35788   -7704.2364   -7647.4167   -262.82264    28613.255    2.6056776 
    3870    509.02088   -7704.2996   -7647.5176   -232.02222     28583.31    2.6113637 
    3880    514.92288   -7705.0226   -7647.5822    -172.2762    28553.202    2.6158876 
    3890    523.85259   -7706.0577   -7647.6211    12.929818    28523.215    2.6202077 
    3900    537.11482   -7707.5752   -7647.6593    108.45511    28493.975     2.627303 
    3910    537.77416   -7707.7083   -7647.7188    203.83456    28465.861    2.6402195 
    3920    526.69207   -7706.5546   -7647.8013    249.21064    28439.188    2.6588109 
    3930    517.49392   -7705.6115   -7647.8843    197.26056    28414.107    2.6803785 
    3940    519.44575   -7705.9005   -7647.9555     -69.1786    28390.315    2.7011569 
    3950    519.92871   -7706.0171   -7648.0182   -279.92331    28366.859    2.7181965 
    3960    512.88167    -7705.283   -7648.0703   -344.82122    28342.958    2.7308616 
    3970    505.14532   -7704.4483   -7648.0986    -248.3307      28318.4    2.7400058 
    3980    495.67902   -7703.3744   -7648.0807   -67.261394    28293.542    2.7465678 
    3990    493.20701   -7703.0167   -7647.9987    78.114986    28269.025    2.7504429 
    4000    498.39659   -7703.4379    -7647.841    215.71347    28245.393    2.7514785 
    4010    504.87958   -7703.9236   -7647.6035    335.40545    28223.149    2.7514232 
    4020    512.13152   -7704.4162   -7647.2871    513.30369     28202.73    2.7533956 
    4030    517.21168   -7704.5868   -7646.8911    721.87211    28184.739    2.7592419 
    4040     527.3384   -7705.2497   -7646.4243    776.40621    28169.824    2.7685637 
    4050    536.40751   -7705.7393   -7645.9022    738.73022    28158.148     2.780796 
    4060    549.37658   -7706.6437   -7645.3599    680.44082    28149.487    2.7956564 
    4070    554.14937   -7706.6542    -7644.838    833.19162    28143.644    2.8126738 
    4080     547.5761   -7705.4595   -7644.3765    1069.3361    28141.085    2.8295271 
    4090    540.77412   -7704.3072   -7643.9831    1117.3988    28142.525    2.8431566 
    4100    532.97362   -7703.0978   -7643.6438    1080.7531    28148.101    2.8518378 
    4110    535.00177   -7703.0294   -7643.3491    1031.5262    28157.622    2.8546022 
    4120    543.24764      -7703.7   -7643.0999    970.88283    28170.834    2.8534664 
    4130    550.85509   -7704.3624   -7642.9137    937.30324    28187.473    2.8520223 
    4140    552.29578   -7704.4131   -7642.8037    810.14235    28207.286    2.8531547 
    4150    543.35564   -7703.3766   -7642.7644    774.29213    28229.809    2.8583645 
    4160    538.89156   -7702.8893   -7642.7752    804.37831    28254.864    2.8668412 
    4170    545.07002   -7703.6246   -7642.8212    718.97226    28282.472    2.8763564 
    4180    548.59945   -7704.0994   -7642.9023    533.42696    28312.264    2.8856087 
    4190     544.0347   -7703.7028   -7643.0149    387.04502    28343.557    2.8944941 
    4200     541.2586   -7703.5243   -7643.1461    270.66259    28375.795    2.9032373 
    4210    542.33178   -7703.7848   -7643.2869    115.67661    28408.496    2.9118895 
    4220    539.91293   -7703.6581     -7643.43   -127.57104    28441.028    2.9194955 
    4230    547.06809   -7704.6035   -7643.5772   -428.20273    28472.494    2.9246362 
    4240    547.93734   -7704.8601   -7643.7369   -722.70572    28501.787    2.9283491 
    4250    541.41695   -7704.3024   -7643.9065   -1012.7425    28527.783    2.9322087 
    4260    542.63307   -7704.6171   -7644.0856   -1164.0849    28549.449    2.9353879 
    4270    537.01987     -7704.18   -7644.2746   -987.47428    28566.349    2.9369106 
    4280    528.74872     -7703.45   -7644.4673   -681.46385    28579.188    2.9382066 
    4290    522.40166   -7702.9227    -7644.648    -308.8274     28589.21    2.9417521 
    4300    523.19851   -7703.1716    -7644.808   -33.053988    28597.841    2.9481109 
    4310    527.75326   -7703.8279   -7644.9562   -23.070821    28606.111    2.9565252 
    4320    520.58617   -7703.1661    -7645.094   -72.164777    28614.154    2.9650644 
    4330    518.84778   -7703.0936   -7645.2154   -298.47281    28621.735    2.9709541 
    4340    525.60936   -7703.9521   -7645.3196   -584.53285    28628.028    2.9738006 
    4350    531.27288   -7704.6893    -7645.425   -699.33571     28632.01    2.9755635 
    4360    524.01115   -7703.9919   -7645.5377   -538.06407    28633.308     2.979089 
    4370    510.64716   -7702.6051   -7645.6416   -261.11429    28632.558    2.9848137 
    4380    507.43063   -7702.3186   -7645.7139    -212.5243    28630.719    2.9898949 
    4390    513.50801   -7703.0358   -7645.7532   -221.37183    28628.063    2.9928273 
    4400    516.46855   -7703.3779    -7645.765   -335.78438    28624.535    2.9943686 
    4410     528.3271   -7704.6995   -7645.7638    -569.6859    28619.705    2.9934693 
    4420    535.50287    -7705.507   -7645.7709   -685.16025    28612.749    2.9900283 
    4430    530.28872   -7704.9547   -7645.8002   -580.92866    28603.277    2.9854502 
    4440    523.73828   -7704.2663   -7645.8425   -474.50966    28591.653    2.9809466 
    4450    529.88226   -7704.9978   -7645.8887   -408.21958    28578.313    2.9767471 
    4460    534.23056   -7705.5415   -7645.9473   -276.87775     28563.56    2.9735431 
    4470    529.72907   -7705.1194   -7646.0273   -132.97812    28547.897    2.9719813 
    4480      530.196   -7705.2724   -7646.1282   -97.478731    28531.845    2.9706325 
    4490    531.43543    -7705.535   -7646.2525   -79.243155    28515.583    2.9684459 
    4500    530.62109   -7705.5961   -7646.4046   -88.991947    28499.152     2.965568 
    4510    527.93075    -7705.481   -7646.5895    43.645769    28482.577    2.9632309 
    4520    516.89162   -7704.4524   -7646.7924    250.30492    28466.363    2.9630978 
    4530    531.52967     -7706.31   -7647.0171    133.71415    28451.137    2.9650861 
    4540     541.3779   -7707.6826    -7647.291    35.903434    28436.576    2.9700812 
    4550     530.4764   -7706.8037   -7647.6282    75.894089    28422.331    2.9783107 
    4560    519.69304    -7705.985   -7648.0125    57.383936    28408.449    2.9876916 
    4570    506.43611   -7704.8995   -7648.4058    93.215643    28394.909    2.9954563 
    4580    508.34325    -7705.492   -7648.7855    35.187708    28381.798    3.0008113 
    4590    515.49203   -7706.6585   -7649.1546  -0.55042875    28368.938    3.0045455 
    4600    509.03329   -7706.2933   -7649.5098     137.0862    28356.221    3.0075869 
    4610    502.51111   -7705.8844   -7649.8285    214.71961     28344.09    3.0107702 
    4620    507.17518   -7706.6823   -7650.1061    244.69963    28332.856    3.0152283 
    4630     508.7768   -7707.0988    -7650.344     351.2382    28322.666    3.0226416 
    4640     506.6633   -7707.0658   -7650.5468    371.56538    28313.844    3.0329342 
    4650    500.63732   -7706.5538    -7650.707    318.07619    28306.478    3.0448265 
    4660    500.49817   -7706.6492   -7650.8179    202.38227    28300.338    3.0560313 
    4670    506.12266   -7707.3405   -7650.8818    192.27498    28295.054    3.0646926 
    4680    508.02576   -7707.5769   -7650.9059    255.49649    28290.562    3.0712471 
    4690    507.81335   -7707.5393   -7650.8919    412.90266    28287.116    3.0767241 
    4700    508.62586   -7707.5785   -7650.8405    546.14313    28285.254    3.0823857 
    4710    504.37381   -7707.0096   -7650.7459    629.72722    28285.478    3.0887519 
    4720    510.13014   -7707.5074   -7650.6016    535.30879     28288.05    3.0947088 
    4730    519.49326   -7708.3577   -7650.4075    345.01235    28292.638    3.0997871 
    4740    521.58723   -7708.3557   -7650.1719    146.35559    28298.535     3.103981 
    4750    507.43943    -7706.501   -7649.8953    148.24858     28305.08    3.1065611 
    4760    495.17972   -7704.7883   -7649.5502    -25.53756    28312.141     3.106331 
    4770    505.25232   -7705.4588   -7649.0971   -532.55778    28318.982    3.1042961 
    4780     518.3279   -7706.3519   -7648.5316   -785.75967    28323.869     3.104633 
    4790    529.96519   -7707.0204    -7647.902   -725.34531    28325.841    3.1101084 
    4800    541.03326   -7707.6221    -7647.269   -716.41589    28325.007    3.1192468 
    4810    543.16072   -7707.2888   -7646.6984   -747.99525    28321.402    3.1290591 
    4820    538.67874   -7706.3222   -7646.2318    -509.9233    28315.047    3.1374643 
    4830    538.14046   -7705.8975   -7645.8671   -200.04238     28306.77    3.1443161 
    4840    544.35841   -7706.3192   -7645.5952   -85.432815    28297.655    3.1504894 
    4850    545.00241   -7706.2089   -7645.4131   -53.682798    28288.196    3.1574416 
    4860    545.35989   -7706.1441   -7645.3084   -36.108454    28278.534    3.1654995 
    4870    554.33141   -7707.1063   -7645.2697    136.78337    28268.807    3.1732196 
    4880    551.28763   -7706.7931   -7645.2962    489.73764    28259.676    3.1800114 
    4890    534.68097   -7705.0119   -7645.3675    804.12627    28252.411    3.1858301 
    4900    527.71922   -7704.3247   -7645.4569     925.8424    28248.142    3.1897933 
    4910    515.96564   -7703.0956   -7645.5389    1047.7468    28247.427    3.1910891 
    4920     509.5741   -7702.4424   -7645.5987    985.98521    28250.658    3.1885141 
    4930    511.05976   -7702.6341   -7645.6246    753.07108    28257.623      3.18195 
    4940    514.85128   -7703.0506   -7645.6182    459.68107    28267.474    3.1725607 
    4950    515.06546   -7703.0425   -7645.5861    252.76995    28279.137    3.1616382 
    4960    518.87485   -7703.4156   -7645.5343    152.76681    28291.837    3.1504618 
    4970    531.81517    -7704.798   -7645.4732   -97.942653    28305.099    3.1404825 
    4980    528.76382   -7704.4023   -7645.4179   -292.94879    28318.075    3.1323608 
    4990    518.66702    -7703.225   -7645.3669   -483.45772    28329.956    3.1241897 
    5000    523.54416   -7703.7128   -7645.3107   -582.66833     28340.05    3.1141774 
Loop time of 2272.74 on 16 procs for 3000 steps with 864 atoms

Performance: 0.114 ns/day, 210.438 hours/ns, 1.320 timesteps/s
98.1% CPU use with 16 MPI tasks x 1 OpenMP threads

MPI task timing breakdown:
Section |  min time  |  avg time  |  max time  |%varavg| %total
---------------------------------------------------------------
Pair    | 1892       | 2102.7     | 2239.4     | 230.9 | 92.52
Bond    | 0.00022078 | 0.0010874  | 0.0022902  |   1.7 |  0.00
Neigh   | 0.030471   | 0.035567   | 0.041302   |   1.6 |  0.00
Comm    | 22.596     | 135.61     | 341.99     | 865.9 |  5.97
Output  | 0.17156    | 0.17442    | 0.21625    |   2.6 |  0.01
Modify  | 3.7293     | 34.215     | 69.951     | 445.7 |  1.51
Other   |            | 0.01568    |            |       |  0.00

Nlocal:        54.0000 ave          62 max          46 min
Histogram: 2 1 2 2 0 2 3 1 2 1
Nghost:        405.188 ave         444 max         384 min
Histogram: 2 2 3 3 3 1 0 1 0 1
Neighs:         0.00000 ave           0 max           0 min
Histogram: 16 0 0 0 0 0 0 0 0 0
FullNghs:      1613.00 ave        2034 max        1292 min
Histogram: 2 1 4 1 1 3 2 0 1 1

Total # of neighbors = 25808
Ave neighs/atom = 29.870370
Ave special neighs/atom = 0.0000000
Neighbor list builds = 300
Dangerous builds = 300
unfix   2

fix     3 all npt temp 525.0 525.0 $(100.0*dt) aniso 1.01325 1.01325 $(1000.0*dt)
fix     3 all npt temp 525.0 525.0 0.10000000000000000555 aniso 1.01325 1.01325 $(1000.0*dt)
fix     3 all npt temp 525.0 525.0 0.10000000000000000555 aniso 1.01325 1.01325 1
run     20000
Per MPI rank memory allocation (min/avg/max) = 8.896 | 8.898 | 8.900 Mbytes
Step Temp PotEng TotEng Press Volume c_msd[4] 
    5000    523.54416   -7703.7128   -7645.3107   -582.66833     28340.05    3.1141774 
    5010    523.59939   -7703.7182   -7645.3099   -563.27862     28338.93    3.1143263 
    5020    523.84797   -7703.7439   -7645.3079   -384.88541    28335.716    3.1149694 
    5030    534.23439   -7704.9026    -7645.308   -307.58696    28330.981    3.1149474 
    5040    544.47092    -7706.066   -7645.3294   -397.72658    28325.003    3.1145528 
    5050    541.89618   -7705.8447   -7645.3954   -249.66024    28317.581     3.114288 
    5060    536.13926   -7705.3079   -7645.5008    55.338234    28309.225    3.1123377 
    5070    540.08657   -7705.8916   -7645.6441    322.93799    28301.038    3.1080033 
    5080    536.34639   -7705.6592    -7645.829    661.97085    28294.118    3.1043054 
    5090    529.91423   -7705.1638   -7646.0511    940.72807    28289.735    3.1030668 
    5100     529.4814   -7705.3691   -7646.3047    966.39157    28288.876    3.1039488 
    5110    533.11924   -7706.0678   -7646.5975    831.09725    28291.665    3.1059628 
    5120    535.83546   -7706.7159   -7646.9426    775.27835    28297.691     3.108251 
    5130    530.22605   -7706.4913   -7647.3438    799.61356    28306.732    3.1097477 
    5140    519.79529   -7705.7662   -7647.7822    905.74182    28318.917    3.1089247 
    5150    516.10062   -7705.8004   -7648.2286    738.97344    28334.531    3.1047919 
    5160    521.48595   -7706.8417   -7648.6692    270.29181    28352.946    3.0991769 
    5170    517.40223   -7706.8125   -7649.0955   -206.94154    28372.477    3.0960605 
    5180    506.48527   -7705.9822   -7649.4831   -518.65861    28391.344    3.0962914 
    5190    504.58838    -7706.101   -7649.8134   -708.51084     28408.32    3.0985991 
    5200     507.1246   -7706.6505     -7650.08   -685.99862    28422.703    3.1028333 
    5210    515.75405   -7707.8284   -7650.2952   -448.06903    28434.546    3.1081227 
    5220    521.74117   -7708.6783   -7650.4773   -80.382375    28444.729    3.1124214 
    5230    522.37491   -7708.9087    -7650.637     239.2761    28454.627    3.1146476 
    5240    525.95508   -7709.4533   -7650.7822    323.65377    28465.423    3.1160751 
    5250    523.95689   -7709.3606   -7650.9124    228.88841    28477.486    3.1194849 
    5260    521.31315   -7709.1785   -7651.0253    146.44218      28490.5    3.1274354 
    5270    518.02897   -7708.9005   -7651.1136    239.43456    28504.214    3.1391508 
    5280    520.83943   -7709.2803   -7651.1799    366.71627    28518.959    3.1507682 
    5290    524.41551   -7709.7292   -7651.2299    331.41652    28535.164    3.1596524 
    5300    527.64015   -7710.1314   -7651.2724    29.034631    28552.654    3.1660844 
    5310     530.9982   -7710.5459   -7651.3122   -378.31458    28570.333    3.1705718 
    5320    530.65851   -7710.5489   -7651.3531   -629.25383    28586.703    3.1725607 
    5330    531.55639   -7710.6946   -7651.3987   -702.65613    28600.774    3.1716709 
    5340     530.6286   -7710.6436   -7651.4512   -717.24683    28612.201    3.1689812 
    5350    522.67027   -7709.8094   -7651.5048   -649.95083    28620.917    3.1662244 
    5360    523.31616   -7709.9276   -7651.5509    -468.3697      28627.2    3.1650603 
    5370    529.26965    -7710.632   -7651.5911   -382.34066     28631.65    3.1678713 
    5380    529.27167   -7710.6755   -7651.6344   -332.72185    28634.625    3.1756865 
    5390     524.5957   -7710.2013   -7651.6819   -275.58034    28636.321    3.1867772 
    5400    521.29016   -7709.8738   -7651.7231   -175.28344    28636.962     3.197675 
    5410    524.02333   -7710.2119   -7651.7563   -152.21793     28636.89    3.2063927 
    5420    519.60115   -7709.7432   -7651.7809   -212.29868    28636.198    3.2132951 
    5430     511.8583   -7708.8915   -7651.7929   -336.56998    28634.646    3.2190779 
    5440    502.29263   -7707.8084   -7651.7769   -444.30612    28631.768    3.2255215 
    5450    499.97871    -7707.492   -7651.7186   -573.64121    28627.113    3.2336115 
    5460    509.81153   -7708.4876   -7651.6174   -774.85828    28620.122    3.2426637 
    5470    513.31754   -7708.7458   -7651.4845   -824.26285    28610.061     3.252696 
    5480    510.02443   -7708.2256   -7651.3316   -669.49666    28596.725    3.2627623 
    5490    504.92066   -7707.4766    -7651.152   -350.09036    28580.692      3.27118 
    5500    509.28605   -7707.7507   -7650.9391   -223.76102    28563.063    3.2763701 
    5510    516.39831   -7708.3031   -7650.6981   -211.43396     28544.36    3.2800531 
    5520    515.95348   -7708.0021   -7650.4467   -145.51496    28524.669    3.2863115 
    5530    507.86731   -7706.8409   -7650.1876   -170.11463    28504.184    3.2962902 
    5540    505.46584   -7706.2974    -7649.912    -290.3485    28482.797    3.3080707 
    5550    518.17702   -7707.4213   -7649.6178   -369.74251     28460.07    3.3209999 
    5560    522.98212   -7707.6615    -7649.322    -219.0685    28435.771    3.3336732 
    5570    524.34819   -7707.5405   -7649.0487    5.0249531    28410.407    3.3434071 
    5580    519.28979   -7706.7288   -7648.8013    237.51503     28384.82    3.3496595 
    5590    509.51929   -7705.4066    -7648.569     518.7854    28359.927    3.3528412 
    5600    515.18015   -7705.8061    -7648.337    649.98608    28336.747    3.3550166 
    5610    531.18031   -7707.3685   -7648.1146    631.67739    28315.796     3.359021 
    5620    538.24413   -7707.9717   -7647.9297    581.01457    28297.091     3.365212 
    5630    543.76003   -7708.4605   -7647.8032    366.67465    28280.384    3.3725182 
    5640     547.2086     -7708.78    -7647.738     296.4796    28264.988    3.3794687 
    5650    544.72254   -7708.4937   -7647.7291    296.43217    28250.597    3.3851321 
    5660    535.11598   -7707.4534   -7647.7604    342.99498    28237.198    3.3902544 
    5670    529.36065   -7706.8604   -7647.8094    534.23455    28225.029    3.3956009 
    5680    527.05499   -7706.6549   -7647.8611    831.23546     28214.83    3.4007518 
    5690    530.65838   -7707.1123   -7647.9165     957.6036    28207.633    3.4040077 
    5700    530.27631   -7707.1336   -7647.9805    986.52745    28203.998    3.4040721 
    5710    525.88829   -7706.7133   -7648.0496    1067.0978    28204.129    3.4007252 
    5720     526.0536   -7706.8017   -7648.1197    1116.6697    28208.347    3.3946549 
    5730    522.28369    -7706.447   -7648.1855    1093.5068    28216.881    3.3865709 
    5740     523.0938   -7706.5983   -7648.2464     953.8381    28229.684    3.3770382 
    5750    523.56849   -7706.7062   -7648.3013    694.23347    28246.281    3.3673434 
    5760    520.96153   -7706.4633   -7648.3493    408.99368    28265.781     3.357788 
    5770    521.44964   -7706.5535    -7648.385     193.3419    28287.168     3.347344 
    5780    528.86863   -7707.4096   -7648.4135    53.124548    28309.627    3.3351379 
    5790    534.83496   -7708.1122   -7648.4505     46.54903    28332.664    3.3212898 
    5800    535.79348   -7708.2791   -7648.5106    98.358482    28356.218    3.3063194 
    5810    535.23246    -7708.308    -7648.602    191.64142      28380.5      3.29114 
    5820    527.52053    -7707.563   -7648.7173    285.45391    28405.891     3.277448 
    5830    522.98925   -7707.1803     -7648.84    217.19946    28432.707    3.2661006 
    5840    524.26486   -7707.4405    -7648.958    -62.13535    28460.685    3.2564833 
    5850     523.5696   -7707.4785   -7649.0735   -411.16396    28488.807    3.2481225 
    5860    512.20508   -7706.3191   -7649.1819    -625.8449    28515.771    3.2403096 
    5870    504.61686   -7705.5599   -7649.2691    -730.6867    28540.697    3.2312977 
    5880    506.07931   -7705.7759    -7649.322   -774.98394    28563.132    3.2211396 
    5890    515.65367   -7706.8649    -7649.343   -773.74414    28582.829    3.2121746 
    5900    533.82751   -7708.9055   -7649.3562   -746.28373    28599.754    3.2062892 
    5910    540.74454   -7709.7177   -7649.3968   -766.92196    28613.961    3.2040508 
    5920    531.59625   -7708.7846   -7649.4842   -789.33497    28625.352    3.2062902 
    5930    529.51912   -7708.6857    -7649.617   -937.87866     28633.74    3.2143636 
    5940    526.15088   -7708.4887   -7649.7958   -1091.2396    28638.542    3.2282153 
    5950    512.89812   -7707.2273   -7650.0127   -1150.5048    28639.147     3.244937 
    5960    507.50011   -7706.8644    -7650.252   -1248.4997    28635.208    3.2614984 
    5970    504.76701   -7706.8051   -7650.4975   -1331.3288    28626.288    3.2768471 
    5980    505.43611   -7707.1269   -7650.7448   -1291.5511    28612.026    3.2920236 
    5990    507.73664    -7707.623   -7650.9842   -1233.4953    28592.472     3.308879 
    6000    517.21063   -7708.9165   -7651.2209   -1214.0221    28567.764     3.327898 
    6010     517.3303   -7709.1695   -7651.4605   -1087.1937    28537.982    3.3498485 
    6020    508.70768   -7708.4375   -7651.6904   -737.25471    28503.641    3.3762713 
    6030     511.6837   -7708.9755   -7651.8964   -515.06837    28465.941    3.4076663 
    6040    517.64213    -7709.834   -7652.0903    -428.1619     28425.76    3.4440215 
    6050    511.38467   -7709.3229   -7652.2772   -323.84484    28383.493    3.4836954 
    6060    512.26325   -7709.5896   -7652.4458   -301.27412    28339.517    3.5229321 
    6070    523.72885   -7711.0234   -7652.6007   -330.78023    28293.981    3.5592046 
    6080    527.16386   -7711.5678   -7652.7618   -263.36152    28246.873    3.5932655 
    6090    520.04725   -7710.9411   -7652.9291   -136.23507    28198.469    3.6268571 
    6100    507.59821   -7709.7046   -7653.0813    99.123536    28149.338    3.6603509 
    6110    502.54694   -7709.2521   -7653.1922    331.03209    28100.375    3.6929829 
    6120    506.13595   -7709.7147   -7653.2545    499.09507    28052.502    3.7249222 
    6130    502.32935   -7709.3031   -7653.2675    654.92933    28006.428    3.7578153 
    6140    496.16995   -7708.5743   -7653.2258    852.35425      27962.8    3.7918161 
    6150    497.86155   -7708.6607   -7653.1235    907.90501     27922.31    3.8266058 
    6160    501.51746   -7708.9073   -7652.9622    893.36612    27885.219    3.8627502 
    6170    503.24035   -7708.8798   -7652.7426    885.68233    27851.479    3.8992876 
    6180    513.12663   -7709.7034   -7652.4634    921.32569    27821.085    3.9338885 
    6190    525.13751   -7710.7158   -7652.1359    1006.0484    27794.151    3.9644324 
    6200    521.13464   -7709.9139   -7651.7805    1266.3277    27771.033    3.9887924 
    6210    515.97716   -7708.9644   -7651.4064    1441.3665    27752.593    4.0051801 
    6220    520.24101   -7709.0429   -7651.0092    1575.5442    27739.488    4.0138837 
    6230    526.39216   -7709.3177   -7650.5978    1730.4387    27732.212    4.0167715 
    6240    530.48373    -7709.373   -7650.1967    1738.8528    27731.276    4.0147208 
    6250     524.0664   -7708.2858   -7649.8254    1502.1734    27736.655    4.0078375 
    6260    513.20908   -7706.7267   -7649.4775    1262.6767    27747.601    3.9969177 
    6270    519.82801   -7707.1235   -7649.1359    920.40401     27763.18    3.9836781 
    6280    522.94596    -7707.136   -7648.8006    819.64285    27782.267    3.9689857 
    6290    516.45163   -7706.1044   -7648.4935    938.81583    27804.496    3.9536799 
    6300    512.55251    -7705.387    -7648.211    972.73513    27830.203    3.9388899 
    6310    511.21539   -7704.9692   -7647.9424    948.16146    27859.563    3.9248127 
    6320    515.40117   -7705.1746   -7647.6808     848.8033    27892.487    3.9095493 
    6330     524.1463   -7705.9009   -7647.4315      693.525    27928.614    3.8913989 
    6340    536.29209   -7707.0335   -7647.2093    509.93908    27967.385    3.8710045 
    6350    544.03143   -7707.7193   -7647.0318    317.40589    28008.117    3.8505083 
    6360     548.3433   -7708.0785   -7646.9099    10.314457    28050.026    3.8306567 
    6370    546.49653   -7707.8043   -7646.8418   -226.81961    28092.001    3.8115631 
    6380    539.11404     -7706.96    -7646.821   -314.89084    28133.144    3.7943118 
    6390    533.49942   -7706.3406    -7646.828   -487.05513    28172.995    3.7792547 
    6400    532.41422   -7706.2426    -7646.851   -588.09716    28210.943    3.7652421 
    6410    528.00477   -7705.7835   -7646.8837   -627.57106    28246.566    3.7526548 
    6420    523.91535   -7705.3694   -7646.9258   -528.55069    28279.737    3.7442241 
    6430     520.1474   -7704.9928   -7646.9696    -390.5626    28310.778    3.7419175 
    6440     526.1582    -7705.706   -7647.0123   -388.27461    28340.145      3.74375 
    6450    528.67892   -7706.0303   -7647.0554    -458.4444    28367.876    3.7467777 
    6460    525.33594   -7705.7035   -7647.1015   -670.49822    28393.632    3.7501232 
    6470    520.46867   -7705.2011    -7647.142    -805.3074     28416.69     3.754423 
    6480    517.83877   -7704.9319   -7647.1662   -741.32501    28436.569     3.760091 
    6490    524.95532   -7705.7354   -7647.1758   -585.65739    28453.485    3.7687928 
    6500     525.0071   -7705.7415   -7647.1761   -429.63904    28468.029    3.7831318 
    6510    515.97715   -7704.7277   -7647.1696   -465.11523    28480.718     3.802913 
    6520    509.05024   -7703.9281   -7647.1428   -638.51881    28491.459    3.8255546 
    6530    514.49483   -7704.4816   -7647.0889   -762.08886    28499.676    3.8474334 
    6540    528.29665   -7705.9483    -7647.016   -750.39628    28504.924     3.866058 
    6550    538.28509    -7706.995   -7646.9485    -609.5547    28507.261    3.8818717 
    6560    538.17797   -7706.9393   -7646.9048   -372.20201    28507.266    3.8968381 
    6570    540.00997   -7707.1284   -7646.8895   -277.12947     28505.78    3.9129232 
    6580    544.45959   -7707.6471   -7646.9118   -227.38835    28503.234    3.9319973 
    6590    540.81981   -7707.3156   -7646.9863   -303.34358    28499.786     3.954721 
    6600    528.05119   -7706.0201   -7647.1152   -386.41161    28495.208     3.980512 
    6610    510.85472   -7704.2631   -7647.2765   -378.92381    28489.215    4.0077273 
    6620    499.82985   -7703.1906   -7647.4339   -318.25312    28481.828    4.0332432 
    6630    507.84933   -7704.2251   -7647.5737   -227.28557    28473.295    4.0548682 
    6640    514.05299   -7705.0418   -7647.6985   -70.728057    28463.988    4.0740176 
    6650    514.25783   -7705.1845   -7647.8183    81.804474    28454.516    4.0920851 
    6660     514.7554   -7705.3536   -7647.9319    70.411526    28445.409    4.1090584 
    6670    525.03077   -7706.6181   -7648.0501    67.116016    28436.667    4.1243558 
    6680    531.62435   -7707.4914   -7648.1879     152.0423    28428.309    4.1371516 
    6690    536.42116   -7708.2035    -7648.365    190.34701    28420.614    4.1471724 
    6700    536.23199   -7708.4057   -7648.5882    233.82699    28413.753    4.1559584 
    6710    531.80909   -7708.1813   -7648.8572    342.87383    28407.904    4.1642772 
    6720    527.05201   -7707.9492   -7649.1558    491.37709    28403.457    4.1716698 
    6730    535.46304    -7709.217   -7649.4853    495.86122    28400.888    4.1784196 
    6740    536.39769    -7709.694    -7649.858    439.38948    28400.239    4.1861045 
    6750    521.36169   -7708.4142   -7650.2555    603.12936    28401.366    4.1951751 
    6760    510.30812   -7707.5632   -7650.6375    836.36374    28404.822    4.2034227 
    6770    508.88082   -7707.7456   -7650.9792     788.5523     28411.36    4.2078138 
    6780    508.16199   -7707.9618   -7651.2756    677.97586    28420.865    4.2074036 
    6790    507.43767   -7708.1301   -7651.5247    592.78257    28432.904     4.203701 
    6800    511.18423   -7708.7577   -7651.7343    429.69422     28447.07    4.1989991 
    6810    498.52913   -7707.5136    -7651.902    340.67146    28462.796    4.1949213 
    6820    484.68914   -7706.0758    -7652.008    160.67744    28479.666     4.190484 
    6830    494.96272   -7707.2521   -7652.0383    -233.7972    28496.922    4.1840764 
    6840    506.37107   -7708.4875   -7652.0011   -572.03882    28513.126    4.1761062 
    6850    504.19013   -7708.1583   -7651.9151   -688.39828    28527.044    4.1666322 
    6860    507.62725   -7708.4144   -7651.7878   -700.96836    28538.208    4.1547115 
    6870    516.67018   -7709.2588   -7651.6235   -707.58387    28546.556    4.1415009 
    6880    527.10456   -7710.2393     -7651.44   -781.15047    28552.042    4.1287696 
    6890    529.70026   -7710.3444   -7651.2556   -700.17854    28554.505    4.1162929 
    6900    529.53932   -7710.1499    -7651.079   -563.33569    28554.241    4.1032703 
    6910    531.02148    -7710.146   -7650.9097   -517.22277    28551.769    4.0908607 
    6920    525.08267   -7709.3198    -7650.746   -422.78193    28547.353    4.0809636 
    6930    516.85091   -7708.2304    -7650.575   -299.02019    28541.368    4.0731502 
    6940    515.08872   -7707.8365   -7650.3776   -288.36892    28534.248      4.06582 
    6950    510.19619   -7707.0504   -7650.1372   -241.59682    28526.125    4.0580925 
    6960    511.32537   -7706.8869   -7649.8477    -180.9691    28517.179     4.049606 
    6970    520.34848   -7707.5588   -7649.5131   -156.97986    28507.631    4.0410762 
    6980    531.00548   -7708.3871   -7649.1527   -105.49053    28497.627    4.0314941 
    6990    537.47577   -7708.7509   -7648.7946    56.671661    28487.389    4.0195278 
    7000    532.17194   -7707.8197   -7648.4551    394.67474    28477.588    4.0062781 
    7010     534.1505   -7707.7198   -7648.1345    622.20744     28469.41    3.9934682 
    7020    540.76286   -7708.1577   -7647.8348    602.77965    28463.674    3.9818209 
    7030    548.17513   -7708.7263   -7647.5766    400.37056    28460.297    3.9712654 
    7040    550.31597   -7708.7651   -7647.3765    156.49207    28458.503    3.9621174 
    7050    543.58722   -7707.8718   -7647.2338    50.258223    28457.402    3.9542673 
    7060    540.01598   -7707.3759   -7647.1363     35.92785    28456.566    3.9463078 
    7070    529.51315    -7706.137    -7647.069     43.78551    28455.909    3.9380888 
    7080    520.54206   -7705.0811   -7647.0139   -164.64761    28455.348    3.9309317 
    7090    524.07891   -7705.4166   -7646.9548   -304.95526    28454.201    3.9259635 
    7100    531.33885   -7706.1674   -7646.8958   -246.87922    28451.988    3.9230379 
    7110    535.85158   -7706.6265   -7646.8515   -85.778883    28448.904    3.9209817 
    7120    539.67129   -7707.0344   -7646.8332    59.808347    28445.544    3.9190368 
    7130    537.54206   -7706.8113   -7646.8477    198.52408    28442.479    3.9173044 
    7140    528.04301   -7705.7913   -7646.8873    349.30276    28440.235    3.9161478 
    7150    525.64436   -7705.5791   -7646.9427    367.86923    28439.333    3.9156476 
    7160     530.2384     -7706.16   -7647.0111    312.84902    28439.842    3.9172338 
    7170    539.81911   -7707.3307   -7647.1131    219.30733    28441.533    3.9231591 
    7180    543.59771   -7707.9188   -7647.2796    98.708003    28444.024    3.9341576 
    7190    551.59231   -7709.0862   -7647.5553   -52.197933    28446.844    3.9479349 
    7200     557.3561   -7710.1721   -7647.9982   -324.95676    28449.372    3.9609784 
    7210    546.39394   -7709.5924   -7648.6414   -468.13753    28450.669    3.9715418 
    7220    531.67603   -7708.7462   -7649.4369   -377.58128    28450.234    3.9808572 
    7230    518.99667   -7708.1715   -7650.2767    -136.5014    28448.428    3.9908647 
    7240    506.63812   -7707.5482   -7651.0319    10.750486    28446.105    4.0024898 
    7250    507.06219   -7708.2052   -7651.6417   -64.976001    28443.794    4.0155244 
    7260    511.44804   -7709.1631   -7652.1103   -136.05449    28441.308    4.0291678 
    7270    515.95129   -7710.0237   -7652.4686    -154.2837    28438.373    4.0435275 
    7280    522.46813   -7711.0361    -7652.754   -273.58541     28434.88    4.0584694 
    7290    521.19237   -7711.1364   -7652.9966   -364.21659    28430.425     4.073386 
    7300    509.76545    -7710.064   -7653.1989   -306.32558    28424.713    4.0882259 
    7310    505.05852   -7709.6934   -7653.3533   -323.00348    28417.919        4.103 
    7320    504.07237   -7709.6857   -7653.4556   -437.91809    28409.985    4.1175546 
    7330    505.41885   -7709.8913   -7653.5111   -437.45608    28400.565    4.1321587 
    7340    506.53895   -7710.0292    -7653.524   -219.89271    28389.729    4.1482704 
    7350    507.39435   -7710.0971   -7653.4965    144.99057    28378.336    4.1667986 
    7360     518.4303   -7711.2701   -7653.4384    320.26031    28367.637    4.1879208 
    7370    522.31044   -7711.6263   -7653.3618    474.66198    28358.363    4.2123851 
    7380    516.35879   -7710.8732   -7653.2726    699.52503    28351.112    4.2393241 
    7390    516.51405   -7710.7809    -7653.163    806.57186    28346.631     4.264706 
    7400    525.70962   -7711.6761   -7653.0324    763.44923    28345.274     4.285215 
    7410    521.03562   -7711.0144   -7652.8921    579.86042    28346.815    4.3004906 
    7420     511.0049   -7709.7463   -7652.7429    348.52733    28350.511    4.3105792 
    7430    517.11941   -7710.2478   -7652.5624    192.54166     28355.49    4.3171344 
    7440      540.284   -7712.6228   -7652.3533   -55.427765    28361.042    4.3237775 
    7450    550.56346    -7713.572   -7652.1558   -154.43489    28366.313    4.3336965 
    7460    543.04718   -7712.5822   -7652.0045   -48.492616    28370.958    4.3480257 
    7470    533.89496   -7711.4496   -7651.8928     35.68112    28375.313    4.3659088 
    7480    523.89888   -7710.2361   -7651.7944    31.955443    28379.682    4.3860386 
    7490    515.60567    -7709.207   -7651.6904    17.433562    28384.067    4.4087262 
    7500    506.60687   -7708.0759   -7651.5632   -58.283492    28388.388    4.4334757 
    7510    509.58288   -7708.2455   -7651.4007   -205.18452    28392.352    4.4580537 
    7520    518.51002   -7709.0382   -7651.1976   -213.29789    28395.479    4.4811051 
    7530    519.98447   -7708.9675   -7650.9625   -39.120343     28397.77     4.502094 
    7540    522.14406    -7708.947   -7650.7011    172.70261    28399.875    4.5206516 
    7550    530.10124   -7709.5508   -7650.4172    325.48473    28402.558    4.5367131 
    7560    535.93642    -7709.913   -7650.1285    590.80309    28406.469    4.5512078 
    7570    539.14691   -7709.9958   -7649.8531    755.61896    28412.496    4.5652464 
    7580    543.94543   -7710.2831   -7649.6052    660.66895    28421.165     4.579717 
    7590    546.20674     -7710.32   -7649.3898    445.43942    28432.105    4.5944268 
    7600    553.41806   -7710.9515   -7649.2168    73.575634    28444.395    4.6088466 
    7610    553.48902   -7710.8369   -7649.0944   -298.37923    28456.658    4.6232544 
    7620    552.36909   -7710.6499   -7649.0323   -492.64437    28467.528     4.637727 
    7630     551.8393   -7710.5924   -7649.0339   -476.19886    28476.309     4.652778 
    7640    546.39667   -7710.0534   -7649.1021   -287.17643    28483.101    4.6688715 
    7650    535.05319   -7708.9134   -7649.2274   -137.54375    28488.608    4.6848245 
    7660    528.29347   -7708.3214   -7649.3895   -263.53762    28493.369    4.6978567 
    7670    531.76886   -7708.9046   -7649.5849   -529.00185    28496.948    4.7072691 
    7680     528.5274   -7708.7776   -7649.8196   -638.14871    28498.476    4.7159664 
    7690    531.17461   -7709.3506   -7650.0973   -664.20523    28497.551    4.7256053 
    7700    539.96146   -7710.6708   -7650.4373   -601.51135    28494.141     4.736514 
    7710    535.26384    -7710.561   -7650.8515   -448.64271    28488.547    4.7492512 
    7720     532.8755   -7710.7783   -7651.3352    -365.8762    28481.357    4.7635377 
    7730    531.89516   -7711.2088   -7651.8751   -293.19086    28472.928    4.7799213 
    7740    519.23428   -7710.3567   -7652.4353   -43.583235    28463.656    4.7990632 
    7750      508.262   -7709.6587   -7652.9613    101.24049    28454.407    4.8198536 
    7760    503.16715    -7709.546   -7653.4169    123.79128    28445.726     4.841178 
    7770    499.09117   -7709.4591   -7653.7847    127.84478    28437.718    4.8623822 
    7780    490.27419    -7708.745   -7654.0542    201.51939    28430.417    4.8821735 
    7790    486.89103   -7708.5341   -7654.2207    122.64484    28423.988    4.8973794 
    7800    495.42532   -7709.5634   -7654.2979    9.3360048    28418.154     4.905323 
    7810    501.45752   -7710.2447   -7654.3064   -18.809182    28412.508    4.9064327 
    7820    505.79503   -7710.6889   -7654.2667   -11.316603    28406.916    4.9025502 
    7830    512.07297   -7711.3157   -7654.1932    51.968885    28401.422    4.8953732 
    7840     517.2198   -7711.7973   -7654.1006    16.430146    28396.194    4.8868499 
    7850    515.68361   -7711.5235   -7653.9982   -98.015051    28391.094    4.8790928 
    7860    515.33189   -7711.3739   -7653.8879    -179.2192    28385.743    4.8736921 
    7870    519.69607   -7711.7407   -7653.7679   -202.59452    28379.843    4.8711835 
    7880    525.96542    -7712.319   -7653.6468   -226.99843    28373.273    4.8710696 
    7890    523.92174   -7711.9759   -7653.5316   -178.81211    28365.973    4.8728757 
    7900    525.11463   -7712.0012   -7653.4239   -99.051933     28358.13    4.8757538 
    7910    532.39551   -7712.7146   -7653.3251       25.816    28350.068    4.8793015 
    7920    533.25984   -7712.7317   -7653.2458    308.93664    28342.288    4.8822871 
    7930    525.15977   -7711.7682   -7653.1859    675.00517    28335.848    4.8815297 
    7940     525.4736   -7711.7506   -7653.1333     813.2859    28332.016    4.8736582 
    7950    532.77675   -7712.5186   -7653.0865    669.92771    28331.253    4.8595909 
    7960    530.25102   -7712.2037   -7653.0535    399.11759    28333.009     4.843002 
    7970    521.64971    -7711.221   -7653.0302    176.95012    28336.289    4.8254378 
    7980    517.29764   -7710.7085   -7653.0032   -4.7875158    28340.212     4.809067 
    7990      511.508   -7710.0195     -7652.96   -77.695769     28344.11    4.7973926 
    8000    502.54836    -7708.948    -7652.888    -99.89913    28347.687    4.7907107 
    8010     500.9672   -7708.6538   -7652.7701   -90.079037    28350.855    4.7852985 
    8020    513.61285   -7709.8961   -7652.6018   -30.343677    28353.665    4.7767059 
    8030    527.63156   -7711.2557   -7652.3976    52.995658    28356.349     4.763628 
    8040    537.75496   -7712.1739   -7652.1865    110.17685    28359.212    4.7494142 
    8050    539.94687   -7712.2252   -7651.9933    88.487148    28362.446    4.7393895 
    8060     538.3391   -7711.8786   -7651.8261    85.636403     28366.02    4.7358213 
    8070    538.67349    -7711.774   -7651.6842    194.56374    28369.936    4.7379366 
    8080    531.80826   -7710.8874   -7651.5634    412.23447    28374.629    4.7444395 
    8090    523.11713   -7709.8055    -7651.451    449.67571    28380.834    4.7533961 
    8100    521.32033   -7709.4777   -7651.3236    337.18503    28388.683    4.7628585 
    8110    525.62964   -7709.8027   -7651.1679    278.61667    28397.792    4.7719087 
    8120     529.1974   -7710.0112   -7650.9785    265.85754     28407.94    4.7806131 
    8130     532.8277   -7710.1886   -7650.7508    173.57854    28419.031    4.7900488 
    8140    535.24567   -7710.1831   -7650.4757    6.5065103    28430.727     4.802809 
    8150    538.83388   -7710.2554   -7650.1477   -267.86303    28442.358    4.8202694 
    8160    539.31129   -7709.9246   -7649.7636   -420.10477    28452.946    4.8421123 
    8170    538.22779   -7709.3679   -7649.3278   -441.90288    28461.902    4.8677179 
    8180    535.25419   -7708.5542   -7648.8458   -310.13944    28469.177     4.894844 
    8190    526.53428    -7707.064   -7648.3283   -61.815637    28475.273    4.9181889 
    8200    531.33745   -7707.0542   -7647.7827    62.833059    28481.055    4.9353318 
    8210    539.32845   -7707.3923   -7647.2294     18.08425    28487.001    4.9514315 
    8220    539.66972   -7706.9129    -7646.712   -52.524258    28493.009    4.9728297 
    8230    541.61409   -7706.6743   -7646.2564     -178.968    28498.761    5.0015304 
    8240    548.76513   -7707.0868   -7645.8713   -321.27733    28503.778    5.0345376 
    8250    550.39029   -7706.9611   -7645.5643    -288.5213    28507.612    5.0643538 
    8260    552.35383   -7706.9562   -7645.3403   -254.30322    28510.307    5.0855922 
    8270    544.06172   -7705.8839    -7645.193   -223.40539    28512.006    5.1010942 
    8280    530.27595   -7704.2499   -7645.0968   -145.66652    28512.841    5.1156438 
    8290    527.92132   -7703.9107   -7645.0202    4.8798435    28513.134    5.1302953 
    8300    526.86631   -7703.7195   -7644.9468    46.653679    28513.422    5.1445542 
    8310    532.02037   -7704.2307    -7644.883     24.54842    28513.874    5.1584134 
    8320    530.34399   -7703.9926   -7644.8319       190.84    28514.499    5.1700141 
    8330    537.51275   -7704.7627   -7644.8024    210.42667    28515.811     5.176392 
    8340    544.81939   -7705.5806   -7644.8051    131.60075    28517.909    5.1773424 
    8350    539.74085   -7705.0594   -7644.8505    99.443304    28520.551    5.1740911 
    8360    536.93283   -7704.8272   -7644.9315   -119.02257      28523.5     5.165883 
    8370    542.94594   -7705.6107   -7645.0443   -363.08147    28525.976    5.1518022 
    8380    548.43235   -7706.3817   -7645.2032   -304.40353    28527.151    5.1349897 
    8390    546.90055   -7706.4252   -7645.4176   -27.460375    28527.224    5.1186436 
    8400    553.44932   -7707.4356   -7645.6975    -26.53987    28527.082    5.1041848 
    8410    559.45002   -7708.4694   -7646.0619   -168.18975    28526.791     5.093258 
    8420    551.76932   -7708.0639   -7646.5132    -262.6836    28525.859    5.0865868 
    8430     542.1205   -7707.4955   -7647.0211   -297.53651    28523.923    5.0839629 
    8440    540.26671   -7707.8162   -7647.5486   -302.56892    28520.846    5.0853281 
    8450    542.65388   -7708.6077   -7648.0738   -351.13451    28516.571    5.0907313 
    8460    538.81093   -7708.6783   -7648.5731   -371.21956    28510.935    5.0991785 
    8470     529.4794   -7708.0804   -7649.0162   -375.29589    28503.852    5.1075942 
[...]
   22890    507.84039   -7712.5471   -7655.8967     352.4359    28087.539    8.1340959 
   22900    502.87282    -7711.955   -7655.8588    307.67698    28101.115    8.1407518 
   22910    496.63878   -7711.1857   -7655.7848    170.56615    28115.905    8.1476499 
   22920     500.7279     -7711.53    -7655.673   -143.93188    28131.368    8.1488157 
   22930    499.19309   -7711.2134   -7655.5277    -332.7627    28146.432    8.1444034 
   22940    511.71441   -7712.4471   -7655.3646   -428.32066    28160.352    8.1382248 
   22950    531.14533   -7714.4534   -7655.2033   -540.38948    28172.715    8.1337817 
   22960    538.59942   -7715.1587   -7655.0771   -467.74894    28183.181    8.1325523 
   22970    531.17739   -7714.2491   -7654.9955   -217.82838    28191.995    8.1355783 
   22980    520.33796   -7712.9861   -7654.9416    79.679685    28200.041    8.1421569 
   22990    514.70791   -7712.3047   -7654.8883    163.04041    28208.383    8.1497903 
   23000     514.9181   -7712.2644   -7654.8245   -46.980901    28217.307    8.1567492 
   23010    507.86521   -7711.3952    -7654.742   -145.82414    28226.167    8.1644238 
   23020    507.52631   -7711.2487   -7654.6334   -225.03558    28234.546    8.1747689 
   23030    516.45002   -7712.1057   -7654.4949    -439.2586    28242.077    8.1862943 
   23040    520.66672   -7712.4201   -7654.3389    -619.3466    28248.008    8.1948994 
   23050    514.87846   -7711.6112   -7654.1758   -669.40165    28251.667    8.1973887 
   23060    518.06825   -7711.7955   -7654.0042   -793.80866    28252.756    8.1928474 
   23070    522.25195   -7712.0817   -7653.8237   -844.41533    28250.837     8.184695 
   23080    513.89358   -7710.9657   -7653.6401   -722.60724    28245.724    8.1800646 
   23090    503.29553   -7709.5822   -7653.4388    -644.0688    28237.793    8.1838683 
   23100    503.18464   -7709.3336   -7653.2026   -677.45377    28227.288    8.1970025 
   23110    499.04386   -7708.5936   -7652.9245   -610.61849    28214.119    8.2152523 
   23120    496.76157   -7708.0189   -7652.6044    -274.7496    28198.599    8.2317492 
   23130    498.66459   -7707.8626   -7652.2358    12.015431    28181.868    8.2438546 
   23140     512.5737   -7709.0087   -7651.8303    124.21396    28164.963    8.2530801 
   23150    531.63102   -7710.7219   -7651.4177    158.00519    28148.336    8.2633101 
   23160    535.80863   -7710.8143   -7651.0441    226.06778    28132.151    8.2776661 
   23170    533.61616   -7710.2572   -7650.7315    236.59886    28116.625    8.2981881 
   23180     536.5034   -7710.3226   -7650.4748    253.18387    28101.837      8.32478 
   23190     540.6056   -7710.5758   -7650.2704    337.93313    28087.862    8.3539495 
   23200    539.81594   -7710.3375   -7650.1202    633.67422    28075.087    8.3818003 
   23210    532.22053    -7709.386    -7650.016    1020.9999    28064.589    8.4075207 
   23220    521.47396   -7708.1098   -7649.9386    1376.4073    28057.828    8.4311525 
   23230    515.58746   -7707.3782   -7649.8637    1524.1707    28056.147    8.4500553 
   23240    523.77612   -7708.2118   -7649.7838    1457.5109    28060.152    8.4620323 
   23250    530.51818   -7708.8842   -7649.7041    1298.7748     28069.71    8.4696628 
   23260    531.22343   -7708.8964   -7649.6376    1211.1642    28084.365    8.4777699 
   23270    524.60226   -7708.1057   -7649.5855     1248.198    28103.871    8.4898604 
   23280    523.71568   -7707.9638   -7649.5425     1313.546    28128.413      8.50543 
   23290    530.62085   -7708.6978   -7649.5062     1287.973    28158.263    8.5227086 
   23300    546.32087    -7710.433   -7649.4901    1144.0222    28193.397    8.5423269 
   23310    549.31641   -7710.7919   -7649.5149    1035.9372    28233.413    8.5645213 
   23320    541.35429   -7709.9842   -7649.5953    899.17823    28277.929    8.5848965 
   23330    531.92771   -7709.0469   -7649.7096    838.98972    28326.529    8.5973877 
   23340    536.88149   -7709.7363   -7649.8464    765.35374    28378.969    8.5984501 
   23350    544.83941   -7710.7926    -7650.015     643.3358    28434.996    8.5896646 
   23360    545.36289   -7711.0673   -7650.2313    384.77465    28494.112    8.5770936 
   23370    536.06009   -7710.2859   -7650.4876    12.173166    28555.286    8.5639258 
   23380    529.97047   -7709.8816   -7650.7626   -339.28954    28617.075    8.5484848 
   23390    536.99054   -7710.9561    -7651.054   -732.87047    28678.006    8.5323972 
   23400    536.50323   -7711.2251   -7651.3774   -991.04509    28736.532    8.5185492 
   23410    517.18417   -7709.4123   -7651.7197   -1016.6754    28791.578    8.5068796 
   23420    509.87529   -7708.9256   -7652.0482   -1133.4278    28842.825    8.4951203 
   23430    512.99085   -7709.5688   -7652.3439   -1445.2262    28889.694    8.4840569 
   23440    508.89675   -7709.3718   -7652.6036   -1712.5817    28930.967    8.4775987 
   23450    506.39386   -7709.3132   -7652.8242   -1895.4969    28965.548    8.4780133 
   23460    504.97528   -7709.3344   -7653.0037   -2030.5534    28992.621    8.4847794 
   23470    498.04163   -7708.6944   -7653.1371   -2112.7716    29011.597     8.494368 
   23480    498.64443   -7708.8455    -7653.221   -2245.6761    29022.069      8.50055 
   23490    506.50862   -7709.7635   -7653.2617   -2283.4621    29023.548    8.5003635 
   23500    512.11879   -7710.4011   -7653.2735   -2157.8404    29015.887    8.4955143 
   23510    515.55687   -7710.7809   -7653.2698   -1963.5409    28999.522    8.4889409 
   23520    512.86641   -7710.4622   -7653.2512   -1594.6132    28975.286    8.4847071 
   23530    509.59066   -7710.0556     -7653.21   -1235.5731    28944.595    8.4852172 
   23540    501.79481   -7709.1118   -7653.1358   -971.08297    28908.876    8.4906482 
   23550    487.35654   -7707.3758   -7653.0105   -720.65686    28869.247    8.4988728 
   23560     494.5523   -7707.9871   -7652.8191   -582.29254    28826.708    8.5065256 
   23570    516.62203   -7710.1989   -7652.5689   -607.49561    28781.809    8.5139377 
   23580    522.24352   -7710.5524   -7652.2953   -448.66758    28734.645    8.5238709 
   23590    521.13109   -7710.1636   -7652.0307   -265.48198    28685.818    8.5357648 
   23600    518.76141     -7709.65   -7651.7814   -125.76622    28636.104    8.5457046 
   23610    520.34557   -7709.5969   -7651.5516   -113.16734    28586.067    8.5503677 
   23620    525.24278   -7709.9426    -7651.351   -146.19032     28535.83    8.5495952 
   23630    526.69925   -7709.9441     -7651.19    -161.3293    28485.348    8.5461455 
   23640    520.49772   -7709.1303    -7651.068   -123.44081    28434.613    8.5458854 
   23650    519.46729   -7708.9128   -7650.9655    103.01916    28383.887    8.5552465 
   23660    534.70146   -7710.5245   -7650.8778    309.63541    28334.009    8.5751526 
   23670    543.51785   -7711.4487   -7650.8185    567.15187    28285.841    8.5995678 
   23680    538.82874   -7710.9011    -7650.794    876.47706    28240.366    8.6211527 
   23690    533.27459   -7710.2816   -7650.7941    1160.4592    28198.727    8.6364823 
   23700    530.39539    -7709.973   -7650.8065    1331.0874     28161.93     8.646336 
   23710    524.99273   -7709.3941   -7650.8304    1408.2118    28130.558    8.6568335 
   23720     513.9939   -7708.1872   -7650.8504     1438.819    28104.849    8.6727998 
   23730    516.01689   -7708.4187   -7650.8563     1343.921    28084.822    8.6927004 
   23740    527.01645   -7709.6405    -7650.851    1147.0227    28070.058    8.7127607 
   23750    530.43621   -7710.0248   -7650.8538    868.47046    28059.745    8.7305891 
   23760    518.07703   -7708.6576   -7650.8654    623.76027    28052.818    8.7458219 
   23770    509.74392   -7707.7291   -7650.8664     535.5892    28048.354    8.7572897 
   23780    508.75699   -7707.5894   -7650.8367    487.83178     28045.95    8.7650126 
   23790     506.9788   -7707.3258   -7650.7716    437.18734    28045.393    8.7735199 
   23800    500.68623   -7706.5164   -7650.6641    458.82054    28046.524    8.7858791 
   23810    507.94805   -7707.1685   -7650.5061    300.19744    28049.301    8.8011157 
   23820    527.43475   -7709.1405   -7650.3043    74.124341     28053.15    8.8171644 
   23830    540.83461   -7710.4227   -7650.0918    1.8009046    28057.295    8.8335528 
   23840    541.68698   -7710.3303   -7649.9043    36.006513    28061.441    8.8500574 
   23850    531.53082   -7709.0418   -7649.7488      80.6442    28065.677    8.8643995 
   23860    522.93243   -7707.9424   -7649.6085    44.114177    28070.145    8.8754413 
   23870    520.87944   -7707.5679    -7649.463    5.3217441    28074.722    8.8841964 
   23880    518.14329   -7707.1012   -7649.3015    203.46145    28079.369     8.891042 
   23890    526.83937   -7707.8906   -7649.1209    449.50478    28084.779      8.89419 
   23900     544.6908   -7709.6981    -7648.937    464.76761    28091.752    8.8931885 
   23910    539.79287   -7708.9929   -7648.7782    583.83909    28100.462    8.8910025 
   23920    534.59263    -7708.286   -7648.6514    675.35052    28111.276    8.8911085 
   23930    538.32432   -7708.5953   -7648.5444    615.38237    28124.491    8.8973843 
   23940    537.30108    -7708.396   -7648.4593     496.2812    28139.906    8.9123007 
   23950    539.24191   -7708.5506   -7648.3973    265.00598    28157.027    8.9350113 
   23960    547.01427   -7709.3851   -7648.3648   -154.37638    28174.934    8.9603297 
   23970    540.49971   -7708.6661   -7648.3725   -586.35131    28192.106    8.9844088 
   23980    522.60608    -7706.711   -7648.4135   -815.56065    28206.987    9.0055154 
   23990    514.64411   -7705.8693     -7648.46   -792.92214    28218.739    9.0216735 
   24000    517.32246   -7706.2028   -7648.4947   -631.60729    28227.445    9.0324163 
   24010    516.06996   -7706.0859   -7648.5176   -531.75812    28233.664    9.0396854 
   24020    503.66216   -7704.7031   -7648.5189   -540.88568    28237.778     9.046954 
   24030    494.77214   -7703.6662   -7648.4736   -583.79129    28239.799    9.0579192 
   24040    501.30463   -7704.2795   -7648.3582   -588.47262    28239.605    9.0730165 
   24050    515.75633   -7705.7032   -7648.1698    -554.8979    28237.194    9.0879743 
   24060     519.9376   -7705.9221   -7647.9222   -393.45123    28232.757    9.0993132 
   24070    521.54601   -7705.8076   -7647.6283    -172.0695    28226.891     9.106879 
   24080    525.97369   -7705.9629   -7647.2898    38.953893    28220.416    9.1116856 
   24090     529.0949   -7705.9346   -7646.9133    224.34975    28214.131    9.1142642 
   24100    540.11422   -7706.7649   -7646.5144    394.61354    28208.755    9.1154028 
   24110    553.65333   -7707.8833   -7646.1224    523.29547     28204.91    9.1174354 
   24120    558.55025   -7708.0815   -7645.7744    586.12846    28203.061     9.121455 
   24130     570.4964   -7709.1432   -7645.5035    540.55525    28203.416    9.1249502 
   24140    568.41983   -7708.7362   -7645.3281    624.28863    28205.871    9.1263763 
   24150    566.47552   -7708.4505   -7645.2593    737.00942    28210.687    9.1257896 
   24160    569.65729   -7708.8401    -7645.294    767.13263     28218.24    9.1246122 
   24170     559.3685   -7707.8334    -7645.435    800.56093    28228.662     9.125474 
   24180    544.00804   -7706.3422   -7645.6573    688.38354    28242.012    9.1290511 
   24190    549.03632   -7707.1898   -7645.9439    357.17079    28257.834     9.133309 
   24200    540.26502   -7706.5595   -7646.2922    162.24229    28275.005    9.1358711 
   24210    525.20415   -7705.2651   -7646.6778   -16.974471    28292.712     9.132634 
   24220     525.1558   -7705.6532   -7647.0713   -408.13257    28310.189    9.1230352 
   24230    525.35542   -7706.0661    -7647.462   -900.64117    28325.972    9.1114678 
   24240    522.46606   -7706.1261   -7647.8442   -1193.9804    28338.303    9.1019241 
   24250    519.49107   -7706.1573   -7648.2072   -1384.7308    28346.024    9.0958354 
   24260    517.97382    -7706.322   -7648.5413   -1414.7561    28348.459    9.0920291 
   24270     516.5881   -7706.4634   -7648.8372    -1205.076    28345.546    9.0876174 
   24280    528.15539   -7708.0166      -7649.1   -942.16882    28338.049    9.0811262 
   24290    536.61026   -7709.2116   -7649.3519   -649.61457    28327.007     9.074119 
   24300    527.97938    -7708.493   -7649.5961   -458.12238    28313.509    9.0687425 
   24310    518.89078   -7707.6999   -7649.8169   -417.96225    28298.311    9.0668348 
   24320    517.18593   -7707.6899    -7649.997   -468.79346     28281.58    9.0684115 
   24330    523.36196   -7708.5256   -7650.1438   -374.46627    28263.211    9.0701221 
   24340    514.12079   -7707.6109   -7650.2599     15.78725    28243.608       9.0688 
   24350    504.28415   -7706.5834   -7650.3298     494.4086    28224.222    9.0642456 
   24360    519.89191   -7708.3519   -7650.3572    677.49434    28206.723    9.0581556 
   24370    529.37654   -7709.4204   -7650.3676    830.85315    28191.886     9.053316 
   24380    529.30235   -7709.4255    -7650.381    979.47657    28180.299     9.051789 
   24390    537.02194   -7710.3153   -7650.4097    821.52088    28172.382    9.0543727 
   24400    523.11242   -7708.8074   -7650.4535     611.8564    28167.602    9.0616347 
   24410    505.97374   -7706.9294   -7650.4873    404.02019    28165.167    9.0701609 
   24420    520.22814   -7708.5219   -7650.4897    87.092901    28164.233     9.076944 
   24430    539.35052     -7710.65   -7650.4847   -155.10353    28163.668    9.0843083 
   24440    530.49848   -7709.6778   -7650.4999   -323.03713    28162.559    9.0929622 
   24450    516.69346   -7708.1659   -7650.5279   -564.50025    28160.199    9.1006218 
   24460    511.13189   -7707.5573   -7650.5397   -689.93697    28155.742    9.1091276 
   24470     515.0425   -7707.9812   -7650.5275   -600.79807    28148.744    9.1224908 
   24480    519.05151    -7708.395    -7650.494   -361.62299    28139.561    9.1417435 
   24490    524.45386   -7708.9503   -7650.4467    -213.8915    28129.014    9.1657412 
   24500    536.63759    -7710.263   -7650.4003   -103.16745    28117.692    9.1928162 
   24510    537.37838   -7710.3201   -7650.3748    95.186012    28106.051    9.2210758 
   24520    527.27736   -7709.1881   -7650.3696     379.7256    28094.849    9.2473213 
   24530    532.18641   -7709.7452   -7650.3791    416.14976    28085.016     9.269035 
   24540    528.79881   -7709.3877   -7650.3994    446.50282    28076.811    9.2879252 
   24550    525.15968   -7709.0142   -7650.4318    451.10894    28070.309    9.3041649 
   24560    521.55403   -7708.6447   -7650.4646    387.06871    28065.512    9.3176205 
   24570      525.398   -7709.1025   -7650.4936    260.56707    28062.177    9.3304312 
   24580    531.87785    -7709.854   -7650.5222    202.90235    28059.867    9.3462443 
   24590    538.72983   -7710.6646   -7650.5685    310.86846    28058.388    9.3665813 
   24600    539.30896   -7710.8094   -7650.6487    504.63166    28058.112    9.3893571 
   24610    534.26025   -7710.3684   -7650.7708    669.86881    28059.723     9.411631 
   24620    531.19234   -7710.1905   -7650.9352    817.01921    28063.865     9.430159 
   24630    532.32322   -7710.5296   -7651.1481    785.26388    28071.019    9.4426994 
   24640    533.12626    -7710.891   -7651.4199     592.4004     28081.07    9.4505143 
   24650    535.20338   -7711.4749   -7651.7722    389.39782    28093.338    9.4568449 
   24660    525.86722   -7710.8768   -7652.2155    281.16389    28107.084    9.4638157 
   24670     511.1532   -7709.7488   -7652.7289    283.18503    28121.926    9.4703518 
   24680     506.3349   -7709.7595    -7653.277    258.40994    28137.818    9.4750486 
   24690    508.46616   -7710.5529   -7653.8327    193.93094    28154.653    9.4800363 
   24700    510.32968   -7711.3028   -7654.3748    39.689019    28172.182     9.489004 
   24710    505.43285   -7711.2537   -7654.8719   -199.74812    28189.833    9.5025445 
   24720    502.39812     -7711.34   -7655.2967   -469.07978    28206.699    9.5179451 
   24730    501.53567   -7711.5865   -7655.6394   -616.43792    28221.819    9.5342094 
   24740    495.92732   -7711.2173   -7655.8959    -591.8242    28234.649     9.551575 
   24750    494.19162   -7711.1962   -7656.0683   -535.84698    28245.234    9.5682988 
   24760    497.30811   -7711.6383   -7656.1628   -558.50381    28253.756    9.5811174 
   24770    502.47156   -7712.2478   -7656.1964   -553.01469    28260.166    9.5875459 
   24780     498.5056   -7711.7866   -7656.1775   -523.47422    28264.476    9.5889874 
   24790    498.10398   -7711.6734   -7656.1091   -488.33684    28266.798    9.5878634 
   24800    503.97756   -7712.2135    -7655.994   -500.22186    28267.238    9.5881042 
   24810    502.75886   -7711.9252   -7655.8417   -521.89516    28265.764    9.5949842 
   24820    506.06541   -7712.1122   -7655.6599   -488.79161    28262.316    9.6093317 
   24830    511.86471   -7712.5554   -7655.4561   -303.71694    28257.072    9.6273929 
   24840    500.70121   -7711.0888   -7655.2348    14.094047    28250.727    9.6435604 
   24850    503.20924   -7711.1249   -7654.9912    67.900242    28244.332    9.6537006 
   24860    521.54254   -7712.9051   -7654.7263   -82.976572    28238.126    9.6587843 
   24870    531.28925   -7713.7366   -7654.4705   -128.28287    28231.634    9.6616878 
   24880    534.74464   -7713.9028   -7654.2513    4.1132149    28224.695    9.6651933 
   24890    543.18022   -7714.6728   -7654.0802    198.92529    28217.786    9.6710297 
   24900     537.9969   -7713.9766   -7653.9623    391.58824    28211.628    9.6806884 
   24910    523.91647   -7712.3312   -7653.8876     437.8643    28206.909    9.6943397 
   24920    508.44373   -7710.5398   -7653.8221    343.13656    28203.809    9.7121074 
   24930    504.62574   -7710.0305   -7653.7387    245.12988    28202.024    9.7332588 
   24940    513.59322   -7710.9193   -7653.6272    27.753958    28201.143    9.7561589 
   24950    520.55311   -7711.5693   -7653.5008   -329.32476     28200.32     9.780453 
   24960    518.29254   -7711.1902   -7653.3738    -654.6605    28198.236     9.805787 
   24970    516.18288   -7710.8265   -7653.2456   -796.65306    28193.715    9.8310121 
   24980    517.87563   -7710.8795   -7653.1097   -830.46836     28186.17    9.8560575 
   24990    515.63165   -7710.4865    -7652.967   -734.56567    28175.476    9.8840618 
   25000    505.79346    -7709.235    -7652.813   -572.81943    28161.946    9.9173723 
Loop time of 15375.7 on 16 procs for 20000 steps with 864 atoms

Performance: 0.112 ns/day, 213.551 hours/ns, 1.301 timesteps/s
98.0% CPU use with 16 MPI tasks x 1 OpenMP threads

MPI task timing breakdown:
Section |  min time  |  avg time  |  max time  |%varavg| %total
---------------------------------------------------------------
Pair    | 13078      | 14325      | 15113      | 481.0 | 93.16
Bond    | 0.0014467  | 0.006863   | 0.014536   |   4.1 |  0.00
Neigh   | 0.21625    | 0.24101    | 0.27161    |   3.2 |  0.00
Comm    | 175.02     | 889.8      | 2079.7     |1862.4 |  5.79
Output  | 1.1504     | 1.1825     | 1.6584     |  11.3 |  0.01
Modify  | 67         | 159.62     | 268.26     | 612.5 |  1.04
Other   |            | 0.1022     |            |       |  0.00

Nlocal:        54.0000 ave          59 max          44 min
Histogram: 1 2 0 0 0 1 2 2 5 3
Nghost:        413.688 ave         436 max         397 min
Histogram: 2 1 3 4 2 0 0 1 1 2
Neighs:         0.00000 ave           0 max           0 min
Histogram: 16 0 0 0 0 0 0 0 0 0
FullNghs:      1611.12 ave        1841 max        1227 min
Histogram: 2 0 1 0 0 1 5 4 1 2

Total # of neighbors = 25778
Ave neighs/atom = 29.835648
Ave special neighs/atom = 0.0000000
Neighbor list builds = 2000
Dangerous builds = 2000
unfix   3
                
Total wall time: 5:18:11
