LAMMPS (29 Sep 2021 - Update 3)
OMP_NUM_THREADS environment is not set. Defaulting to 1 thread. (src/comm.cpp:98)
  using 1 OpenMP thread(s) per MPI task
units	metal
atom_style	full

read_data	mixed.data
Reading data file ...
  orthogonal box = (0.0000000 0.0000000 0.0000000) to (18.492711 18.368364 83.044081)
  2 by 1 by 8 MPI processor grid
  reading atoms ...
  864 atoms
Finding 1-2 1-3 1-4 neighbors ...
  special bond factors lj:    0        0        0       
  special bond factors coul:  0        0        0       
     0 = max # of 1-2 neighbors
     0 = max # of 1-3 neighbors
     0 = max # of 1-4 neighbors
     1 = max # of special neighbors
  special bonds CPU = 0.007 seconds
  read_data CPU = 0.040 seconds

pair_style	quip
pair_coeff	* * /ocean/projects/cts180021p/wuziqi/clease/mint-PD/PhaseDiagram-Clease/Liquid/GAP_potential/gap_LiKCl.xml "Potential xml_label=GAP_2021_9_27_0_1_17_37_618" 17 19 3

neighbor	0.3 bin
neigh_modify	delay 10

timestep	0.001
compute	msd all msd
thermo_style	custom step temp pe etotal press vol c_msd[4]
thermo	10
dump	1 all custom 10 xyz-mix.dump type id x y z
dump	2 all custom 10 force-mix.dump type id fx fy fz

fix     1 all nve
run     2000
Neighbor list info ...
  update every 1 steps, delay 10 steps, check yes
  max neighbors/atom: 2000, page size: 100000
  master list distance cutoff = 6.22
  ghost atom cutoff = 6.22
  binsize = 3.11, bins = 6 6 27
  1 neighbor lists, perpetual/occasional/extra = 1 0 0
  (1) pair quip, perpetual
      attributes: full, newton on
      pair build: full/bin
      stencil: full/bin/3d
      bin: standard
Per MPI rank memory allocation (min/avg/max) = 8.888 | 8.895 | 8.900 Mbytes
Step Temp PotEng TotEng Press Volume c_msd[4] 
       0            0   -7973.6696   -7973.6696   -2874.2394    28208.484            0 
      10    41.278351   -7978.2784   -7973.6737   -2959.4518    28208.484 0.00023887099 
      20    117.01377   -7986.7312   -7973.6782   -2971.9336    28208.484 0.0029537371 
      30    174.81925   -7993.1785   -7973.6771   -2824.2466    28208.484  0.010160551 
      40    218.44962    -7998.045   -7973.6766   -2720.6333    28208.484  0.020641735 
      50    256.00476   -8002.2349   -7973.6771   -2700.3711    28208.484  0.032489043 
      60    281.23595   -8005.0509   -7973.6786   -2720.3164    28208.484  0.045481137 
      70    279.84796   -8004.8936   -7973.6762   -2497.2427    28208.484  0.060875411 
      80    275.57271   -8004.4166   -7973.6761   -2346.6282    28208.484  0.078472831 
      90    275.14134   -8004.3684    -7973.676   -2375.5075    28208.484  0.097756432 
     100    277.97329   -8004.6843   -7973.6759   -2450.2098    28208.484   0.11838341 
     110    284.32121   -8005.3929   -7973.6764   -2585.3887    28208.484    0.1397563 
     120    288.42818   -8005.8514   -7973.6768   -2555.7238    28208.484   0.16133553 
     130    287.27066   -8005.7216   -7973.6761   -2379.8786    28208.484   0.18293983 
     140    286.58177   -8005.6454   -7973.6767   -2199.4073    28208.484   0.20440576 
     150    283.09159    -8005.256   -7973.6767   -2058.8623    28208.484   0.22545748 
     160    281.87093     -8005.12   -7973.6769   -2002.9487    28208.484   0.24504756 
     170    281.00839    -8005.024   -7973.6771   -2057.3307    28208.484   0.26222423 
     180    282.68046     -8005.21   -7973.6765   -2118.7926    28208.484   0.27648184 
     190    291.53832   -8006.1995   -7973.6779   -2237.0667    28208.484   0.28923786 
     200    293.64302   -8006.4325   -7973.6762   -2373.3356    28208.484   0.30372277 
     210    298.64228   -8006.9936   -7973.6796   -2435.1957    28208.484   0.32052492 
     220    292.65421   -8006.3221   -7973.6761   -2273.8456    28208.484   0.33666335 
     230    296.18967   -8006.7198   -7973.6794   -2277.4624    28208.484   0.34931106 
     240    282.07352   -8005.1401   -7973.6743   -2198.7147    28208.484   0.36070053 
     250    293.47873    -8006.417    -7973.679   -2346.9356    28208.484   0.37209929 
     260    294.86866   -8006.5718   -7973.6788   -2406.0825    28208.484   0.38456478 
     270    292.66954   -8006.3399   -7973.6921   -2371.6679    28208.484   0.39632792 
     280    288.22645   -8005.8424   -7973.6903   -2343.9303    28208.484   0.40740341 
     290    280.03766   -8004.9272   -7973.6886   -2399.6918    28208.484   0.41930862 
     300    280.42672   -8004.9707   -7973.6886   -2493.7264    28208.484   0.43203295 
     310    287.66524   -8005.7795     -7973.69   -2540.7382    28208.484   0.44617059 
     320    287.59248   -8005.7709   -7973.6895   -2479.6365    28208.484   0.46153129 
     330    287.30367   -8005.7384   -7973.6892   -2430.7941    28208.484   0.47558463 
     340      291.107   -8006.1632   -7973.6897   -2433.3574    28208.484   0.48761679 
     350    290.07985   -8006.0486   -7973.6898   -2407.8749    28208.484   0.49931209 
     360    283.46216   -8005.3096    -7973.689    -2324.857    28208.484   0.51138392 
     370    283.31611   -8005.2933    -7973.689   -2223.9029    28208.484   0.52363749 
     380    293.81781   -8006.4657   -7973.6899   -2201.7975    28208.484   0.53571675 
     390    300.79692   -8007.2454   -7973.6911   -2203.1603    28208.484   0.54763687 
     400    296.63974     -8006.78   -7973.6894   -2207.2978    28208.484   0.55946952 
     410     295.9675   -8006.7055   -7973.6899    -2389.454    28208.484   0.57119336 
     420    296.34311   -8006.7466   -7973.6891   -2528.2941    28208.484   0.58115249 
     430    302.08464   -8007.3879   -7973.6899   -2546.6384    28208.484   0.58802692 
     440    300.89773   -8007.2566    -7973.691   -2408.1467    28208.484   0.59313659 
     450    295.75798   -8006.6815   -7973.6893   -2201.4544    28208.484   0.59704421 
     460    298.71554   -8007.0127   -7973.6905   -2097.6901    28208.484   0.60034051 
     470    293.57038   -8006.4367   -7973.6885   -1853.8963    28208.484   0.60455383 
     480    299.68957   -8007.1205   -7973.6897   -1687.1392    28208.484   0.60898733 
     490    304.28303    -8007.634   -7973.6908   -1569.5251    28208.484   0.61372446 
     500    297.76534   -8006.9049   -7973.6887   -1520.9163    28208.484   0.61909997 
     510     298.0343    -8006.936   -7973.6898   -1578.3555    28208.484     0.624484 
     520    298.51386   -8006.9892   -7973.6895   -1617.2528    28208.484   0.63055005 
     530    299.67651    -8007.119   -7973.6896   -1583.6011    28208.484   0.63765456 
     540    301.93935   -8007.3714   -7973.6896    -1486.536    28208.484   0.64551302 
     550    304.04909   -8007.6074   -7973.6903   -1392.2763    28208.484    0.6536082 
     560    304.32541   -8007.6381   -7973.6901   -1287.1967    28208.484   0.66116979 
     570    303.65289   -8007.5627   -7973.6898   -1155.3607    28208.484   0.66831766 
     580    306.61685   -8007.8931   -7973.6895   -1197.3354    28208.484   0.67540713 
     590    314.13334   -8008.7329   -7973.6909   -1349.2051    28208.484   0.68183493 
     600    314.58012   -8008.7816   -7973.6897   -1383.1623    28208.484   0.68848067 
     610    313.36382   -8008.6461   -7973.6899   -1339.6031    28208.484   0.69624527 
     620     312.9428   -8008.5985   -7973.6893   -1300.0364    28208.484   0.70606469 
     630    317.72028    -8009.132   -7973.6899   -1341.7477    28208.484   0.71807814 
     640    322.57063   -8009.6733   -7973.6901   -1410.5145    28208.484   0.73069429 
     650    323.60168   -8009.7886   -7973.6903   -1540.2113    28208.484   0.74223138 
     660    318.39172   -8009.2068   -7973.6897   -1568.6259    28208.484   0.75263353 
     670    316.27474   -8008.9702   -7973.6892   -1586.0839    28208.484    0.7619451 
     680    320.95534   -8009.4935   -7973.6904   -1558.4885    28208.484   0.77150239 
     690    319.85933   -8009.3708     -7973.69    -1459.468    28208.484   0.78296875 
     700    315.81982   -8008.9199   -7973.6897   -1330.2989    28208.484   0.79605918 
     710    316.18394   -8008.9601   -7973.6893   -1285.6029    28208.484   0.80930055 
     720    321.99795   -8009.6098   -7973.6904   -1374.2337    28208.484   0.82124899 
     730    320.60154   -8009.4538   -7973.6902   -1440.5044    28208.484   0.83277534 
     740    316.58517   -8009.0043   -7973.6888   -1452.0725    28208.484    0.8439361 
     750    321.27163   -8009.5293    -7973.691   -1655.1798    28208.484     0.854338 
     760    314.38368   -8008.7598   -7973.6899   -1838.5562    28208.484   0.86584884 
     770     305.9368   -8007.8166   -7973.6889   -1999.9526    28208.484   0.87941766 
     780    305.71483   -8007.7927   -7973.6897   -2140.7584    28208.484   0.89394007 
     790    305.84031   -8007.8065   -7973.6896   -2209.2571    28208.484   0.90782838 
     800    306.48205   -8007.8784   -7973.6899   -2275.1918    28208.484   0.92026204 
     810    304.33355   -8007.6388   -7973.6899   -2343.4421    28208.484   0.93178116 
     820    297.82924   -8006.9125   -7973.6892   -2314.2529    28208.484    0.9431626 
     830    296.11711   -8006.7216   -7973.6893   -2340.1192    28208.484   0.95457823 
     840    299.50491   -8007.0998   -7973.6896   -2406.4366    28208.484   0.96506277 
     850    304.52466   -8007.6597   -7973.6895   -2460.7845    28208.484   0.97329313 
     860     310.8399   -8008.3649   -7973.6902   -2449.0401    28208.484   0.97916609 
     870    310.67413   -8008.3459   -7973.6897   -2327.6881    28208.484   0.98350092 
     880    309.42712   -8008.2065   -7973.6894   -2225.4629    28208.484   0.98651824 
     890    311.26126   -8008.4116   -7973.6899    -2248.854    28208.484   0.98981853 
     900    313.26109   -8008.6341   -7973.6893   -2271.1415    28208.484     0.995508 
     910    320.18937   -8009.4082   -7973.6906   -2399.0494    28208.484    1.0049166 
     920    319.06768   -8009.2826   -7973.6901    -2517.896    28208.484    1.0179539 
     930    311.48412   -8008.4358   -7973.6893   -2630.8665    28208.484    1.0322955 
     940    307.33364   -8007.9728   -7973.6893   -2692.4224    28208.484    1.0452919 
     950    306.79072   -8007.9125   -7973.6895   -2690.0291    28208.484    1.0559933 
     960    307.40028   -8007.9805   -7973.6895    -2685.778    28208.484    1.0648912 
     970    308.12458   -8008.0613   -7973.6895   -2650.3957    28208.484    1.0729687 
     980    308.40186   -8008.0924   -7973.6897   -2580.8757    28208.484    1.0808973 
     990    307.35297   -8007.9752   -7973.6895    -2481.356    28208.484    1.0887898 
    1000    307.21435     -8007.96   -7973.6898   -2353.6684    28208.484    1.0961224 
    1010    306.76152   -8007.9091   -7973.6894   -2248.7956    28208.484    1.1027335 
    1020    309.26646    -8008.189   -7973.6898   -2286.0041    28208.484    1.1099454 
    1030    310.25342   -8008.2989   -7973.6897   -2305.1256    28208.484    1.1183111 
    1040    307.62812   -8008.0062   -7973.6898    -2294.831    28208.484    1.1271276 
    1050    300.85261   -8007.2498   -7973.6892   -2274.7356    28208.484    1.1353455 
    1060    298.03491   -8006.9356   -7973.6894   -2274.0022    28208.484    1.1412949 
    1070     298.1827   -8006.9525   -7973.6898   -2240.2755    28208.484    1.1449307 
    1080    298.32389   -8006.9674   -7973.6889   -2186.0158    28208.484    1.1478628 
    1090    304.12167   -8007.6156   -7973.6903   -2224.5843    28208.484    1.1507358 
    1100    303.21342   -8007.5135   -7973.6896   -2273.1413    28208.484    1.1542182 
    1110    302.55349   -8007.4391   -7973.6888   -2350.8777    28208.484    1.1583885 
    1120    311.89752   -8008.4827   -7973.6901   -2437.4889    28208.484     1.162828 
    1130    317.78566     -8009.14   -7973.6905   -2446.8483    28208.484     1.167408 
    1140    311.56568   -8008.4454   -7973.6898   -2410.0182    28208.484    1.1717043 
    1150    303.07264   -8007.4971   -7973.6889   -2380.3816    28208.484    1.1751291 
    1160    303.70308   -8007.5677   -7973.6892    -2470.872    28208.484    1.1775178 
    1170    310.51899   -8008.3284   -7973.6895   -2617.7569    28208.484    1.1788381 
    1180    316.91994   -8009.0426   -7973.6898   -2682.3818    28208.484    1.1790698 
    1190    320.34041   -8009.4241   -7973.6896   -2666.8258    28208.484    1.1789053 
    1200    321.06279   -8009.5055   -7973.6905   -2603.0061    28208.484    1.1796194 
    1210    314.26027   -8008.7456   -7973.6894   -2485.4053    28208.484    1.1821764 
    1220    309.32884    -8008.196   -7973.6899    -2464.998    28208.484    1.1865082 
    1230    306.19371   -8007.8458   -7973.6895   -2530.8384    28208.484    1.1911967 
    1240    306.63151   -8007.8948   -7973.6896   -2616.4378    28208.484    1.1944331 
    1250    309.06475   -8008.1663   -7973.6897   -2607.8093    28208.484    1.1957913 
    1260    312.48643   -8008.5482   -7973.6898    -2462.899    28208.484    1.1957707 
    1270    312.94072   -8008.5995   -7973.6905   -2234.5909    28208.484    1.1949586 
    1280    309.44145   -8008.2076   -7973.6889   -2027.1289    28208.484    1.1941489 
    1290    314.87458   -8008.8149   -7973.6902   -1974.2087    28208.484    1.1943163 
    1300    319.36818   -8009.3159   -7973.6899   -1982.4404    28208.484     1.195877 
    1310    321.84143   -8009.5922   -7973.6903   -1943.5386    28208.484    1.1987306 
    1320    321.73486     -8009.58     -7973.69    -1845.706    28208.484    1.2036004 
    1330    320.53672   -8009.4466   -7973.6902   -1700.8294    28208.484    1.2106875 
    1340    314.45984   -8008.7682   -7973.6898   -1509.1942    28208.484    1.2186301 
    1350    308.88407   -8008.1459   -7973.6894   -1443.5528    28208.484    1.2257175 
    1360    308.85021   -8008.1421   -7973.6894   -1546.3935    28208.484    1.2310073 
    1370    314.64585   -8008.7893   -7973.6901   -1721.3694    28208.484     1.234708 
    1380    316.29012   -8008.9734   -7973.6908   -1817.9195    28208.484    1.2377498 
    1390    307.32275   -8007.9718   -7973.6895   -1803.5548    28208.484    1.2409119 
    1400    301.76471   -8007.3515   -7973.6892   -1859.1426    28208.484    1.2443267 
    1410    303.86241   -8007.5861   -7973.6897   -1936.9087    28208.484    1.2481193 
    1420    306.88628   -8007.9231   -7973.6894   -1917.1497    28208.484    1.2526965 
    1430    311.21927   -8008.4068   -7973.6898   -1887.7633    28208.484    1.2583105 
    1440    313.42496   -8008.6528   -7973.6898   -1851.4527    28208.484    1.2642026 
    1450     313.3569   -8008.6451   -7973.6897   -1798.7574    28208.484     1.269636 
    1460    313.21275   -8008.6295   -7973.6901   -1825.1156    28208.484    1.2754342 
    1470    309.64761   -8008.2313   -7973.6896   -1804.0626    28208.484    1.2823313 
    1480    309.40126   -8008.2029   -7973.6887   -1783.0935    28208.484    1.2890305 
    1490    320.42565   -8009.4341   -7973.6901   -1893.3186    28208.484    1.2938055 
    1500    328.10175   -8010.2905   -7973.6903   -1974.4184    28208.484    1.2976917 
    1510    327.81197   -8010.2577   -7973.6898    -1937.058    28208.484    1.3022885 
    1520     324.2243   -8009.8576   -7973.6899   -1828.5619    28208.484    1.3070588 
    1530    318.99753   -8009.2739   -7973.6893   -1744.3097    28208.484    1.3111416 
    1540    315.99968   -8008.9401   -7973.6899   -1679.5222    28208.484    1.3147163 
    1550    311.82694   -8008.4737   -7973.6889   -1676.3191    28208.484     1.318865 
    1560    315.99733   -8008.9396   -7973.6896   -1782.1266    28208.484    1.3245612 
    1570    321.70035   -8009.5765   -7973.6904   -1943.6277    28208.484    1.3315419 
    1580    318.91113   -8009.2648   -7973.6898   -1980.5418    28208.484     1.338424 
    1590    316.40503   -8008.9842   -7973.6888   -1871.1257    28208.484    1.3448929 
    1600    323.69059   -8009.7984   -7973.6903   -1863.2593    28208.484    1.3517889 
    1610    324.55521    -8009.895   -7973.6903   -1926.3043    28208.484    1.3589892 
    1620    317.22283   -8009.0757    -7973.689    -2033.451    28208.484    1.3640281 
    1630    315.56944   -8008.8917   -7973.6895   -2189.5743    28208.484    1.3650114 
    1640          316   -8008.9396   -7973.6894   -2246.5115    28208.484     1.363698 
    1650     317.3618   -8009.0917   -7973.6895   -2167.3771    28208.484    1.3628757 
    1660    317.92845   -8009.1553   -7973.6899   -2101.0814    28208.484    1.3639966 
    1670    314.61233   -8008.7852   -7973.6897   -2010.9785    28208.484    1.3669961 
    1680    312.18324   -8008.5133   -7973.6888   -2055.2147    28208.484     1.371293 
    1690    317.45918   -8009.1028   -7973.6897    -2191.224    28208.484    1.3761955 
    1700    321.08797   -8009.5076   -7973.6898   -2266.1824    28208.484    1.3813209 
    1710    322.36089   -8009.6492   -7973.6893   -2262.0514    28208.484    1.3861808 
    1720    325.18317   -8009.9643   -7973.6896   -2258.3202    28208.484    1.3904451 
    1730    326.15411   -8010.0728   -7973.6898    -2317.316    28208.484     1.394947 
    1740     323.8725   -8009.8181   -7973.6896   -2287.8062    28208.484    1.4007384 
    1750    320.41839   -8009.4325   -7973.6894   -2200.4994    28208.484    1.4075406 
    1760     319.2517   -8009.3028   -7973.6898   -2148.7833    28208.484     1.414045 
    1770    317.70647   -8009.1306     -7973.69    -2060.265    28208.484    1.4199919 
    1780    313.91842   -8008.7076   -7973.6895   -1900.1987    28208.484    1.4259827 
    1790    313.00692   -8008.6058   -7973.6894   -1752.6987    28208.484    1.4322179 
    1800     316.3606   -8008.9805     -7973.69   -1656.4741    28208.484    1.4376798 
    1810    317.06323    -8009.059   -7973.6901   -1611.9912    28208.484    1.4414287 
    1820    314.75826    -8008.801   -7973.6892    -1594.078    28208.484    1.4434919 
    1830    319.39788   -8009.3191   -7973.6898   -1580.2478    28208.484    1.4448335 
    1840    326.94741   -8010.1618   -7973.6903   -1586.0007    28208.484    1.4478206 
    1850     328.2751   -8010.3099   -7973.6903   -1510.9657    28208.484    1.4534245 
    1860    325.54844   -8010.0044    -7973.689   -1434.8489    28208.484    1.4597334 
    1870    330.22766   -8010.5276   -7973.6902   -1485.8246    28208.484    1.4649668 
    1880    331.47708   -8010.6665   -7973.6897   -1548.2944    28208.484    1.4702024 
    1890    330.21474   -8010.5256   -7973.6896   -1516.0861    28208.484    1.4764703 
    1900    331.58833   -8010.6782    -7973.689   -1442.8287    28208.484    1.4834549 
    1910    337.92691   -8011.3872    -7973.691   -1475.0881    28208.484    1.4904186 
    1920     332.3277   -8010.7614   -7973.6897   -1417.3686    28208.484    1.4973123 
    1930    326.40875   -8010.1005   -7973.6891    -1294.946    28208.484    1.5028962 
    1940    327.61985   -8010.2367   -7973.6902   -1344.4187    28208.484    1.5071937 
    1950    326.33555   -8010.0933   -7973.6901   -1454.2005    28208.484    1.5117741 
    1960    320.98412   -8009.4961   -7973.6898    -1539.947    28208.484    1.5179832 
    1970    316.38994    -8008.983   -7973.6892   -1494.5471    28208.484    1.5266599 
    1980    318.66568   -8009.2379   -7973.6903    -1430.619    28208.484     1.537506 
    1990    319.09324   -8009.2848   -7973.6895   -1383.3475    28208.484     1.548395 
    2000    324.20331   -8009.8559   -7973.6905   -1553.3118    28208.484     1.556546 
Loop time of 1013.75 on 16 procs for 2000 steps with 864 atoms

Performance: 0.170 ns/day, 140.799 hours/ns, 1.973 timesteps/s
97.7% CPU use with 16 MPI tasks x 1 OpenMP threads

MPI task timing breakdown:
Section |  min time  |  avg time  |  max time  |%varavg| %total
---------------------------------------------------------------
Pair    | 710.93     | 878.43     | 999.7      | 288.5 | 86.65
Bond    | 0.00014043 | 0.00059649 | 0.0014369  |   0.0 |  0.00
Neigh   | 0.020739   | 0.024841   | 0.029382   |   1.8 |  0.00
Comm    | 13.658     | 130.99     | 301.33     | 733.0 | 12.92
Output  | 0.32383    | 4.2401     | 12.015     | 190.0 |  0.42
Modify  | 0.0081241  | 0.00909    | 0.012686   |   1.2 |  0.00
Other   |            | 0.0589     |            |       |  0.01

Nlocal:        54.0000 ave          63 max          48 min
Histogram: 5 0 1 2 2 1 1 2 0 2
Nghost:        409.688 ave         449 max         386 min
Histogram: 3 3 1 3 2 1 1 0 0 2
Neighs:         0.00000 ave           0 max           0 min
Histogram: 16 0 0 0 0 0 0 0 0 0
FullNghs:      1604.62 ave        2106 max        1301 min
Histogram: 5 0 2 2 2 0 2 1 1 1

Total # of neighbors = 25674
Ave neighs/atom = 29.715278
Ave special neighs/atom = 0.0000000
Neighbor list builds = 199
Dangerous builds = 198
unfix   1

velocity    all create 1087.5 1312343 dist gaussian
fix     2 all npt temp 1087.5 1087.5 $(100.0*dt) aniso 0.0 1.01325 $(1000.0*dt)
fix     2 all npt temp 1087.5 1087.5 0.10000000000000000555 aniso 0.0 1.01325 $(1000.0*dt)
fix     2 all npt temp 1087.5 1087.5 0.10000000000000000555 aniso 0.0 1.01325 1
run     3000
Per MPI rank memory allocation (min/avg/max) = 8.893 | 8.897 | 8.900 Mbytes
Step Temp PotEng TotEng Press Volume c_msd[4] 
    2000       1087.5   -8009.8559   -7888.5436    1670.7856    28208.484     1.556546 
    2010    1010.0065   -8001.1886   -7888.5208    2091.7615    28210.103    1.5624983 
    2020    886.33884   -7987.2271   -7888.3546    2730.9311    28215.605    1.5759891 
    2030    798.12037   -7976.9118   -7887.8803     3240.184    28226.125    1.5916811 
    2040    737.91195   -7969.3276   -7887.0124    3563.4008    28242.604    1.6102435 
    2050    706.53238   -7964.5961   -7885.7813    3526.3214    28265.639     1.633748 
    2060    701.37261   -7962.6024   -7884.3632     3111.663    28295.189    1.6624335 
    2070    702.12197   -7961.3373   -7883.0145    2433.4547    28330.536    1.6947769 
    2080    715.03042   -7961.5534   -7881.7907     1523.933     28370.44    1.7285926 
    2090    708.52601   -7959.6093   -7880.5722    995.67585    28413.338    1.7638146 
    2100    695.56952   -7956.8646   -7879.2728    793.50842    28458.226    1.8003435 
    2110    684.24467   -7954.1657   -7877.8371    899.47763    28504.727     1.835941 
    2120    689.04262   -7953.1405   -7876.2768    1020.8887    28552.967    1.8682088 
    2130    693.97893   -7952.0319   -7874.6175    1050.7756    28603.141    1.8974209 
    2140    700.58888   -7951.0608    -7872.909    926.20069     28655.29    1.9234259 
    2150    731.42487   -7952.7119   -7871.1203     429.0051    28709.095    1.9462283 
    2160    755.12464   -7953.4725   -7869.2372   -24.637098    28763.646    1.9689197 
    2170    770.60676   -7953.2599   -7867.2975   -276.49425     28818.07    1.9945121 
    2180    782.13082   -7952.5683   -7865.3205   -409.86673    28871.819    2.0236785 
    2190    786.58817    -7951.056   -7863.3109   -592.61426    28924.552    2.0547059 
    2200    786.45878   -7949.0087    -7861.278   -740.08287    28975.898     2.085002 
    2210    791.50573   -7947.5071   -7859.2134   -918.74898    29025.496     2.112818 
    2220    784.04547   -7944.5879   -7857.1264   -814.95396    29073.042    2.1378316 
    2230    780.15762   -7942.0667   -7855.0389   -680.53749    29118.667    2.1598946 
    2240    786.71776   -7940.6863   -7852.9267   -745.36985    29162.572    2.1805296 
    2250    797.80558   -7939.7735   -7850.7771   -696.90883    29204.682    2.2023771 
    2260    806.45568   -7938.5686   -7848.6072   -564.20058    29245.089    2.2257837 
    2270    831.45736   -7939.1537   -7846.4034   -798.01198    29283.947    2.2500363 
    2280    855.04245   -7939.5327   -7844.1514   -1038.0729    29320.878    2.2775037 
    2290    861.06652   -7937.9491   -7841.8959   -1063.1149    29355.438    2.3105625 
    2300    868.18563   -7936.5095   -7839.6621   -885.10787    29387.587    2.3483332 
    2310    873.28486   -7934.8445   -7837.4282   -561.17503    29417.684    2.3887676 
    2320    878.21299   -7933.1722   -7835.2062   -205.72874    29446.374    2.4295222 
    2330    910.62482   -7934.5395   -7832.9579   -344.14413    29474.253    2.4681414 
    2340    927.75961   -7934.1741   -7830.6811   -420.33627    29501.187    2.5047775 
    2350    935.24204   -7932.7667    -7828.439   -386.06251    29527.019    2.5413011 
    2360    939.99205   -7931.0827   -7826.2252    -380.6652    29551.798    2.5796858 
    2370    937.91959   -7928.6709   -7824.0445   -276.89363    29575.577    2.6189101 
    2380    933.45565   -7926.0145   -7821.8861    9.0333324    29598.587    2.6581755 
    2390    940.46836   -7924.6514   -7819.7407    99.604918    29621.352    2.6989097 
    2400    957.52913   -7924.3829   -7817.5691     49.20269    29644.064    2.7425155 
    2410    972.02042   -7923.8335   -7815.4032    103.67229    29666.664    2.7883665 
    2420    975.38927   -7922.0672   -7813.2611    317.70942    29689.287    2.8344337 
    2430    981.44412   -7920.6393   -7811.1577    449.79451    29712.315    2.8791728 
    2440    1003.4874   -7921.0034   -7809.0629    270.77237    29735.978    2.9228852 
    2450    1014.8301   -7920.1868    -7806.981   -113.40352    29759.919      2.96842 
    2460    1010.6849   -7917.6921   -7804.9487   -324.86829    29783.428     3.017431 
    2470    1004.0669   -7914.9692    -7802.964   -324.85349    29806.082    3.0687293 
    2480     991.6299   -7911.6315   -7801.0136   -139.02273    29827.889    3.1199687 
    2490    991.01977   -7909.6266   -7799.0768   -102.30436    29849.169    3.1685647 
    2500    1007.2577   -7909.4746   -7797.1135   -188.25072    29869.998    3.2144447 
    2510    1010.8975    -7907.915   -7795.1479    9.7456495    29890.293    3.2586221 
    2520    1031.8917   -7908.3052   -7793.1962    57.538045    29910.375    3.3007745 
    2530    1060.1347   -7909.5129   -7791.2533   -21.344907    29930.369    3.3411706 
    2540    1078.0314   -7909.6207   -7789.3646    1.9138538    29950.146    3.3800173 
    2550    1083.1395   -7908.3992   -7787.5733    54.163273    29969.743    3.4169665 
    2560    1092.4126   -7907.7408   -7785.8805   -77.371256    29989.234    3.4523828 
    2570    1096.7916   -7906.6292   -7784.2804   -449.52062    30008.334    3.4877077 
    2580    1105.9701   -7906.1469   -7782.7743   -589.02278     30026.38    3.5232631 
    2590    1111.2445   -7905.3225   -7781.3615   -468.17599    30043.087    3.5597992 
    2600    1121.6524   -7905.1725   -7780.0505   -475.20679    30058.633    3.5983051 
    2610    1127.4537   -7904.6197   -7778.8505   -460.80676     30073.06    3.6387087 
    2620    1113.9883   -7902.0349   -7777.7678   -430.95519    30086.427    3.6812323 
    2630    1097.0869   -7899.1631   -7776.7814    -424.9575    30098.767    3.7262643 
    2640    1069.8509   -7895.1942   -7775.8508   -265.00931    30110.147    3.7714319 
    2650    1055.8409   -7892.7013   -7774.9207   -287.70317    30120.851    3.8132943 
    2660    1057.5992   -7891.9271   -7773.9504   -580.61148    30130.815    3.8520838 
    2670    1066.9242    -7891.945    -7772.928   -992.39786    30139.465    3.8895226 
    2680    1091.3303   -7893.6127   -7771.8731   -1300.9403    30145.992    3.9261038 
    2690    1122.4226   -7896.0316   -7770.8236   -1202.8114    30149.821    3.9623763 
    2700    1134.5975   -7896.4126   -7769.8466   -559.03279    30151.227    3.9999809 
    2710    1137.6681   -7895.8969   -7768.9884   -22.063731    30151.433    4.0402741 
    2720     1134.453   -7894.8006   -7768.2507    439.30193    30151.606    4.0820887 
    2730    1140.0506   -7894.8072   -7767.6328    667.91054    30152.659    4.1229389 
    2740    1140.2931   -7894.3327   -7767.1313    913.30263    30155.136    4.1636405 
    2750    1143.7377   -7894.3462   -7766.7606    971.49042    30159.488    4.2057083 
    2760    1157.6414   -7895.6669   -7766.5302    584.34397    30165.755    4.2472565 
    2770    1153.5246   -7895.1344    -7766.457    321.40133    30173.224    4.2868868 
    2780    1141.7673   -7893.9107   -7766.5449    169.52436    30181.322    4.3213617 
    2790    1129.1668   -7892.7162    -7766.756    48.202861    30189.724     4.349097 
    2800    1131.6365   -7893.3027   -7767.0669   -28.406329     30198.17    4.3742326 
    2810    1150.6129   -7895.8339   -7767.4813   -381.48487    30206.426    4.4038609 
    2820    1153.9595   -7896.7569    -7768.031    -695.8111    30213.842     4.442897 
    2830    1128.2231   -7894.5724   -7768.7174   -758.67521    30219.806     4.487456 
    2840    1106.5341   -7892.9115   -7769.4759   -836.10371     30224.14    4.5272761 
    2850    1110.3961   -7894.1544    -7770.288   -890.60265     30226.69    4.5575791 
    2860    1068.4861   -7890.2962    -7771.105   -363.02553    30227.474    4.5832004 
    2870    1044.5723   -7888.3813   -7771.8577    146.70815    30227.499    4.6078783 
    2880    1045.3484   -7889.1206   -7772.5104    152.05712    30227.765    4.6330417 
    2890     1059.707     -7891.28    -7773.068   -289.85375     30228.29    4.6566527 
    2900    1077.2423   -7893.7467   -7773.5787   -727.50329    30228.215    4.6793077 
    2910    1061.0774   -7892.4177   -7774.0529   -997.03695    30226.661    4.7041941 
    2920    1052.1255   -7891.8434   -7774.4772   -1247.8642    30223.047    4.7302056 
    2930    1061.6087   -7893.2573   -7774.8332   -1396.8886    30216.869    4.7512726 
    2940    1092.1462   -7896.9843   -7775.1538   -1384.8132    30207.852    4.7626731 
    2950    1104.5483   -7898.7003   -7775.4862   -1005.7618    30196.096    4.7703439 
    2960    1099.1098   -7898.4588   -7775.8514   -712.50311    30182.321    4.7839236 
    2970    1088.6973    -7897.685   -7776.2391   -477.39634    30167.186    4.8069499 
    2980    1071.3558   -7896.1269   -7776.6155   -170.26701    30151.218    4.8357884 
    2990    1063.0434   -7895.5401    -7776.956    367.54011    30135.112    4.8649549 
    3000    1058.2782    -7895.285   -7777.2325    617.36327    30119.874     4.892001 
    3010    1061.5519   -7895.8726   -7777.4549    562.37878    30106.025    4.9181596 
    3020    1047.0652   -7894.4146   -7777.6129    663.86667    30093.536    4.9442728 
    3030    1050.3048    -7894.857   -7777.6939    616.25798    30082.516    4.9665597 
    3040    1062.9483   -7896.2741   -7777.7006    481.36011    30072.872    4.9855609 
    3050    1057.2947   -7895.5833   -7777.6405    588.90144     30064.39    5.0039477 
    3060    1065.2595   -7896.3474   -7777.5161    634.96444    30057.204    5.0246468 
    3070    1075.9558   -7897.3588   -7777.3343    715.10154    30051.421     5.053088 
    3080    1068.6741   -7896.3308   -7777.1186    979.72295     30047.23    5.0867545 
    3090    1055.7429   -7894.6294   -7776.8597    1154.4723    30045.112    5.1188053 
    3100    1065.7462   -7895.4326    -7776.547    1069.4797    30045.358    5.1477558 
    3110    1069.2667   -7895.4563    -7776.178    920.77068    30047.824    5.1747796 
    3120    1077.2833   -7895.9433   -7775.7707    639.30797     30052.16     5.197909 
    3130     1099.998   -7898.0496   -7775.3432    436.47977    30057.828    5.2161321 
    3140    1110.8021   -7898.8427   -7774.9311    188.25921    30064.351    5.2363919 
    3150    1102.2563   -7897.5293    -7774.571    1.7450719    30071.234    5.2673262 
    3160    1086.3522   -7895.4251   -7774.2409   -250.99398    30078.076    5.3064143 
    3170      1075.94    -7893.936   -7773.9132   -456.08599    30084.355    5.3482463 
    3180     1064.369   -7892.2886   -7773.5566   -383.82442    30089.699    5.3924479 
    3190    1062.1383   -7891.6442   -7773.1611   -280.57346    30094.204    5.4395255 
    3200    1047.0419   -7889.5013   -7772.7022   -43.830991    30098.135    5.4850659 
    3210    1073.8766   -7891.9613   -7772.1687   -60.984212    30101.918    5.5260715 
    3220    1129.5115    -7897.592   -7771.5933   -444.92779    30105.493    5.5713842 
    3230    1143.2819    -7898.615   -7771.0802   -701.44164    30108.151     5.630436 
    3240    1118.0083   -7895.4083   -7770.6928   -641.67169    30109.394    5.6985286 
    3250    1091.3533   -7892.1282   -7770.3861   -427.87028    30109.329    5.7644204 
    3260    1090.6642   -7891.7646   -7770.0993   -316.09928     30108.36    5.8218852 
    3270     1100.746   -7892.6101   -7769.8202   -263.29291    30106.744    5.8722401 
    3280     1101.537   -7892.4378   -7769.5597   -237.17818    30104.611    5.9181995 
    3290     1102.283   -7892.2953    -7769.334   -519.68391    30101.944    5.9612148 
    3300    1090.7015   -7890.8073   -7769.1379   -846.37562    30098.204    6.0012415 
    3310    1084.8225   -7889.9686    -7768.955   -1066.3771    30092.739    6.0377227 
    3320     1083.665   -7889.6539   -7768.7694   -1010.7469    30085.135    6.0753248 
    3330    1072.9754   -7888.2635   -7768.5715   -731.61446    30075.506    6.1179157 
    3340    1077.1032   -7888.4998   -7768.3473   -368.50796    30064.424    6.1616228 
    3350    1090.3319   -7889.7257   -7768.0976    7.7886156    30052.631    6.2056469 
    3360    1091.3445   -7889.5825   -7767.8414    333.79788    30040.905    6.2516222 
    3370    1092.3826   -7889.4517   -7767.5948    210.18109    30029.829    6.2975932 
    3380    1086.5771   -7888.5655   -7767.3562    46.610844    30019.231    6.3445861 
    3390    1075.1781   -7887.0475   -7767.1097     189.2584    30008.844    6.3934293 
    3400    1068.8086    -7886.061   -7766.8338    355.96077    29998.886    6.4421862 
    3410    1077.9622   -7886.7667   -7766.5184    580.47864    29989.719    6.4884833 
    3420    1075.6965   -7886.1647   -7766.1692    671.81825    29981.759     6.531656 
    3430    1081.1702   -7886.4047   -7765.7986    511.82998    29975.162    6.5714422 
    3440    1105.1206   -7888.6947   -7765.4168    426.89873    29969.666     6.611568 
    3450    1117.6446   -7889.7396   -7765.0647    471.15321    29965.112    6.6574576 
    3460     1120.004   -7889.7225   -7764.7843    217.16285    29961.489    6.7064878 
    3470    1102.2547     -7887.53   -7764.5718   -48.885366    29958.346    6.7540366 
    3480    1105.2234   -7887.6924    -7764.403   -608.65498     29955.05    6.7952416 
    3490    1120.9339   -7889.3162   -7764.2744   -1090.4616    29950.519    6.8310699 
    3500     1109.685   -7887.9974   -7764.2103   -830.01705    29943.892    6.8700256 
    3510     1100.178   -7886.9234   -7764.1969   -255.38626    29935.619    6.9132742 
    3520    1101.1533   -7887.0448   -7764.2095    270.03833    29926.823       6.9571 
    3530    1110.0669   -7888.0853   -7764.2556    377.05509    29918.506     7.001785 
    3540    1116.7622   -7888.9344   -7764.3579    295.50136    29910.938    7.0523691 
    3550    1105.2378   -7887.8018   -7764.5108     624.4571    29904.074     7.109184 
    3560    1116.1766   -7889.2289   -7764.7177    973.06207    29898.504    7.1633527 
    3570    1110.3551   -7888.8394   -7764.9776    1340.8793    29894.974     7.211648 
    3580    1117.9541   -7890.0113   -7765.3019    1443.6449    29894.169    7.2545089 
    3590    1129.2671   -7891.6728   -7765.7013    1308.1791    29896.311    7.2917062 
    3600    1127.6792    -7891.998   -7766.2037    1079.7952    29901.152     7.327022 
    3610    1102.6713    -7889.785   -7766.7804    800.07048    29908.224    7.3675776 
    3620    1092.8309   -7889.2949   -7767.3879    569.83097    29916.983    7.4151393 
    3630    1083.1451    -7888.829   -7768.0026    315.95744    29926.942    7.4692992 
    3640    1070.5115   -7888.0073   -7768.5901   -21.935052    29937.577     7.527628 
    3650    1078.4054   -7889.4483   -7769.1505    -376.8945    29948.184    7.5838245 
    3660    1068.1544   -7888.8378   -7769.6836   -246.33706    29958.135    7.6303339 
    3670    1042.1806    -7886.411   -7770.1542    37.956627    29967.647    7.6618777 
    3680    1049.3188   -7887.5945   -7770.5414    36.060505     29977.22    7.6792613 
    3690    1056.9413   -7888.7469   -7770.8435    45.106792    29986.926    7.6974173 
    3700     1061.201   -7889.4593   -7771.0807    143.47879    29996.799     7.725545 
    3710    1062.5669   -7889.7935   -7771.2626    234.72117    30007.032    7.7596347 
    3720    1057.9172   -7889.3952   -7771.3829    304.01883    30017.811    7.7957489 
    3730    1068.4355   -7890.6279   -7771.4423    412.13303    30029.296    7.8350825 
    3740      1089.58   -7893.0118   -7771.4675    471.60813      30041.7    7.8797421 
    3750    1094.1518   -7893.5453    -7771.491    535.34611    30055.178    7.9295092 
    3760    1091.4614   -7893.2857   -7771.5315     457.7556    30069.839    7.9815024 
    3770    1091.5385   -7893.3468    -7771.584    322.21907    30085.546    8.0353195 
    3780     1085.986   -7892.7872   -7771.6439    358.89005    30102.085    8.0905219 
    3790    1078.7704   -7892.0419   -7771.7035    453.20196    30119.523    8.1415296 
    3800    1069.0515   -7890.9994   -7771.7451    353.67003    30137.995    8.1860655 
    3810    1051.8101   -7889.0746   -7771.7436    174.95802    30157.325    8.2278242 
    3820    1050.6582   -7888.8686   -7771.6661    20.101122    30177.196    8.2676504 
    3830    1062.0057   -7889.9793    -7771.511   -215.73278    30197.265     8.304974 
    3840    1056.7686   -7889.1682   -7771.2841   -596.47335    30217.029    8.3429159 
    3850    1054.6292   -7888.6324   -7770.9869   -1199.3179    30235.659    8.3807015 
    3860    1046.3796   -7887.3377   -7770.6125   -1666.6104    30251.927    8.4189099 
    3870    1037.7001   -7885.9058   -7770.1488   -1722.3646    30264.884     8.459699 
    3880    1046.3932   -7886.3178   -7769.5911   -1696.1349    30274.298    8.4987445 
    3890    1036.5333   -7884.5653   -7768.9385   -1462.2261    30280.251    8.5308924 
    3900    1040.2706   -7884.2394   -7768.1957   -1469.3433     30283.11    8.5532218 
    3910    1068.8646   -7886.5965   -7767.3631   -1653.8156    30282.839    8.5677241 
    3920    1078.0105   -7886.7448   -7766.4911   -1509.3583    30279.126    8.5802271 
    3930    1081.0607   -7886.2212   -7765.6273   -1307.4902    30272.171    8.5997306 
    3940    1083.0355   -7885.5933    -7764.779   -1185.8876    30262.344    8.6336705 
    3950    1081.1384   -7884.5514   -7763.9488   -999.27006    30249.909    8.6791589 
    3960    1091.2594   -7884.8646    -7763.133   -747.09053    30235.225    8.7233115 
    3970    1115.7289   -7886.8058   -7762.3445   -575.24849    30218.774    8.7532219 
    3980    1120.3904   -7886.6032    -7761.622   -440.81364    30200.876    8.7656638 
    3990    1116.6728   -7885.5597   -7760.9931   -144.58429    30181.862    8.7663499 
    4000    1122.2457   -7885.6299   -7760.4418   -55.326862    30162.258    8.7636702 
    4010    1131.8773   -7886.2377   -7759.9751   -26.053614    30142.281     8.763521 
    4020    1126.6224   -7885.2794    -7759.603    29.562799     30121.98    8.7674758 
    4030    1127.3817   -7885.0835   -7759.3224    217.39581    30101.496    8.7744153 
    4040    1129.9046   -7885.1748   -7759.1322    474.06099    30081.201    8.7839516 
    4050    1128.6259   -7884.9339    -7759.034    616.48538    30061.592    8.7986723 
    4060    1139.3528   -7886.1405   -7759.0439    438.49994    30042.921    8.8195527 
    4070    1130.5012   -7885.2775   -7759.1684    463.39608    30024.944    8.8450963 
    4080    1131.5443   -7885.6247   -7759.3993    496.41151    30007.663    8.8784839 
    4090    1140.9014   -7887.0203    -7759.751     254.8761    29991.081    8.9197182 
    4100    1115.5494   -7884.6582    -7760.217    266.38965     29974.82    8.9602907 
    4110    1089.4189   -7882.2692   -7760.7429    493.51865    29958.882    8.9924289 
    4120    1074.1533   -7881.0814   -7761.2579    829.56445    29943.727    9.0174361 
    4130    1097.2162   -7884.1563   -7761.7602    807.30273    29929.967    9.0384858 
    4140    1106.3766    -7885.706   -7762.2881    614.12349    29917.627    9.0630456 
    4150    1087.3685   -7884.1341   -7762.8365    649.10625    29906.407    9.0892573 
    4160    1103.8544   -7886.5398   -7763.4032    614.81407    29896.311    9.1142743 
    4170    1106.7538   -7887.4554   -7763.9954     882.7697    29887.376    9.1429398 
    4180    1095.6986   -7886.8359   -7764.6091    1231.8094    29880.133    9.1756577 
    4190    1102.9677    -7888.285   -7765.2473    1233.5779    29875.252    9.2092953 
    4200    1088.7166    -7887.346    -7765.898    1148.6593    29872.842    9.2451235 
    4210    1074.1321   -7886.3598   -7766.5387    1039.4054    29872.786    9.2821063 
    4220    1071.2286   -7886.6465   -7767.1494    736.21892    29874.853    9.3144918 
    4230    1065.9349   -7886.6209   -7767.7142    448.31846    29878.518     9.343349 
    4240     1056.376   -7886.0593    -7768.219    236.27947    29883.228    9.3723439 
    4250    1056.1685    -7886.472   -7768.6548   -55.387284    29888.518    9.4022589 
    4260    1043.8857   -7885.4544   -7769.0074   -88.459282    29893.867    9.4315469 
    4270    1044.0262   -7885.7323   -7769.2696    223.63606    29899.228     9.459892 
    4280    1062.2612   -7887.9447   -7769.4478    510.84219    29905.183    9.4919724 
    4290    1079.4727   -7889.9858    -7769.569    635.98657    29912.329    9.5321659 
    4300    1094.8432    -7891.803   -7769.6716    451.59915      29920.9    9.5789552 
    4310    1094.4911   -7891.8568   -7769.7647    488.37659    29930.681    9.6242901 
    4320    1111.7782   -7893.8941   -7769.8736    341.70351    29941.667    9.6624806 
    4330    1118.3332   -7894.7841   -7770.0324    107.39052     29953.61    9.7014554 
    4340    1108.4967   -7893.9166   -7770.2622   -177.02763    29966.055    9.7490229 
    4350    1094.4898   -7892.6385   -7770.5466    -352.2736    29978.436    9.8052856 
    4360    1077.1662   -7891.0173   -7770.8578   -195.99879    29990.414    9.8636318 
    4370    1065.2555   -7889.9867   -7771.1558    14.692206    30002.269    9.9169095 
    4380    1061.6381   -7889.8463    -7771.419    25.486163    30014.403    9.9644032 
    4390    1059.9481   -7889.8666   -7771.6278   -203.84106    30026.826    10.010976 
    4400    1077.5093   -7891.9905   -7771.7927     -536.621    30039.073    10.059028 
    4410    1079.8876   -7892.3964   -7771.9333   -702.74611    30050.502    10.108909 
    4420    1078.8661   -7892.4152   -7772.0661   -576.57759    30060.774    10.161762 
    4430    1088.5522     -7893.63   -7772.2004   -394.04969    30070.068    10.222379 
    4440    1087.2059   -7893.6227   -7772.3433    -308.2388    30078.721    10.292915 
    4450     1083.769    -7893.388   -7772.4919   -190.48192    30086.942    10.366426 
    4460    1098.6025   -7895.1977   -7772.6469   -133.36476    30094.946    10.437656 
    4470    1108.2362   -7896.4631   -7772.8377   -24.369744    30102.869    10.503894 
    4480    1095.9575   -7895.3402   -7773.0845    106.78713    30110.934    10.559232 
    4490    1083.7105   -7894.2543   -7773.3648    131.32071    30119.399    10.602609 
    4500    1077.0294   -7893.7907   -7773.6465    91.168888     30128.35    10.647448 
    4510    1078.1675   -7894.1986   -7773.9274   -48.175781    30137.684    10.701523 
    4520    1055.4479   -7891.9298    -7774.193    187.78367    30147.228    10.762616 
    4530     1027.962   -7889.0645   -7774.3938    424.66095    30157.415    10.829996 
    4540    1044.8786   -7891.0626   -7774.5048    312.84152    30168.698    10.900954 
    4550    1060.4593   -7892.8205   -7774.5247    288.02565    30180.961    10.971181 
    4560    1077.4057   -7894.6752    -7774.489    258.82902    30194.137    11.037445 
    4570    1056.0466   -7892.2034   -7774.3999      304.715    30208.202    11.098715 
    4580    1039.1473   -7890.1535   -7774.2351    260.05668    30223.263    11.150184 
    4590    1047.5188   -7890.8073    -7773.955   -287.32171    30239.149    11.189634 
    4600    1029.2186   -7888.3452   -7773.5343   -625.46613    30254.869    11.223367 
    4610    1025.3175   -7887.3316   -7772.9559   -736.40185    30269.689    11.255761 
    4620    1049.1051    -7889.223   -7772.1938    -915.8088    30283.278    11.287287 
    4630    1077.6448   -7891.4923   -7771.2794    -1035.463    30295.249    11.321838 
    4640    1092.0675   -7892.1146   -7770.2929   -805.98324    30305.361     11.36037 
    4650    1109.5631   -7893.0869   -7769.3134   -727.51493    30313.932    11.400156 
    4660    1124.9775   -7893.8925   -7768.3996   -731.42521    30321.126    11.440141 
    4670    1116.0272   -7892.0998   -7767.6053   -492.66132    30326.975    11.482018 
    4680    1105.8161   -7890.2893   -7766.9339   -191.34585    30331.915    11.524076 
    4690    1101.1001     -7889.18   -7766.3506   -15.462427    30336.543     11.56307 
    4700    1119.2989   -7890.7093   -7765.8499   -244.37494    30341.165    11.595344 
    4710    1126.9481   -7891.1591   -7765.4463   -494.66014    30345.387    11.624506 
    4720    1135.2835    -7891.811   -7765.1684    -748.7499    30348.647     11.65666 
    4730      1135.88   -7891.7187   -7765.0095   -831.59662    30350.421    11.692516 
    4740    1134.0198   -7891.4749   -7764.9733   -789.72469    30350.458    11.730853 
    4750    1113.7542   -7889.2696   -7765.0286   -523.11322    30348.856    11.770624 
    4760    1113.2724   -7889.3413   -7765.1541   -384.46687    30346.074    11.804095 
    4770    1105.7374   -7888.6726   -7765.3259   -315.91145      30342.4    11.827883 
    4780    1097.6026   -7887.9809   -7765.5416   -243.74348     30337.97    11.841222 
    4790    1072.3754   -7885.3784   -7765.7533   -83.931245    30332.956    11.848381 
    4800    1072.4611   -7885.5643   -7765.9297    58.488169    30327.638    11.856764 
    4810    1096.1008   -7888.3508   -7766.0791    373.32833    30322.369    11.873433 
    4820    1105.5805   -7889.5718   -7766.2427    715.16138    30317.816    11.900081 
    4830    1108.5694   -7890.1088   -7766.4462    668.81683    30314.626    11.928555 
    4840    1124.2371   -7892.1193   -7766.7089    390.02528    30312.778    11.951099 
    4850    1135.8272   -7893.7644   -7767.0612    57.739161     30311.74    11.970342 
    4860    1135.9137   -7894.2449    -7767.532    20.181086    30310.883    11.991969 
    4870    1127.0804   -7893.8499   -7768.1224    154.43326    30310.083    12.016344 
    4880    1115.9134   -7893.2905   -7768.8087     373.4499     30309.63    12.047994 
    4890    1108.6995    -7893.247   -7769.5699    579.64153    30309.965     12.08981 
    4900    1094.0908    -7892.417   -7770.3696    789.88493    30311.564    12.139611 
    4910    1098.7343   -7893.7457   -7771.1803    543.12384    30314.805    12.193781 
    4920    1100.6769   -7894.7644   -7771.9823    27.414505    30319.243    12.248339 
    4930    1092.2483    -7894.597    -7772.755   -382.18619    30323.873    12.302683 
    4940    1061.4499   -7891.8498   -7773.4434   -472.73232    30327.852    12.360725 
    4950    1046.0892   -7890.6725   -7773.9797   -493.76928    30330.915    12.424516 
    4960    1044.1919   -7890.8387   -7774.3575   -720.50967    30332.933    12.488618 
    4970    1015.3878   -7887.8384   -7774.5703   -650.11304    30333.535    12.542986 
    4980    993.35256   -7885.4171   -7774.6071   -640.07602    30332.752    12.582313 
    4990    1006.1423   -7886.7122   -7774.4755   -782.33412     30330.57    12.606591 
    5000    1030.6404   -7889.1945    -7774.225   -1037.1172    30326.646    12.619052 
Loop time of 1573.44 on 16 procs for 3000 steps with 864 atoms

Performance: 0.165 ns/day, 145.689 hours/ns, 1.907 timesteps/s
97.9% CPU use with 16 MPI tasks x 1 OpenMP threads

MPI task timing breakdown:
Section |  min time  |  avg time  |  max time  |%varavg| %total
---------------------------------------------------------------
Pair    | 1374.3     | 1454.7     | 1507.2     | 112.9 | 92.46
Bond    | 0.00025296 | 0.00090083 | 0.0015872  |   0.0 |  0.00
Neigh   | 0.030806   | 0.03385    | 0.035846   |   0.7 |  0.00
Comm    | 34.99      | 98.627     | 172.31     | 430.9 |  6.27
Output  | 0.16759    | 0.1713     | 0.22541    |   3.4 |  0.01
Modify  | 9.6841     | 19.851     | 30.988     | 179.2 |  1.26
Other   |            | 0.01169    |            |       |  0.00

Nlocal:        54.0000 ave          60 max          48 min
Histogram: 2 0 2 1 3 3 1 1 0 3
Nghost:        400.438 ave         422 max         373 min
Histogram: 1 0 2 0 3 3 4 0 1 2
Neighs:         0.00000 ave           0 max           0 min
Histogram: 16 0 0 0 0 0 0 0 0 0
FullNghs:      1493.88 ave        1714 max        1283 min
Histogram: 2 1 1 2 3 1 1 2 2 1

Total # of neighbors = 23902
Ave neighs/atom = 27.664352
Ave special neighs/atom = 0.0000000
Neighbor list builds = 300
Dangerous builds = 300
unfix   2

fix     3 all npt temp 1087.5 1087.5 $(100.0*dt) aniso 1.01325 1.01325 $(1000.0*dt)
fix     3 all npt temp 1087.5 1087.5 0.10000000000000000555 aniso 1.01325 1.01325 $(1000.0*dt)
fix     3 all npt temp 1087.5 1087.5 0.10000000000000000555 aniso 1.01325 1.01325 1
run     20000
Per MPI rank memory allocation (min/avg/max) = 8.897 | 8.899 | 8.901 Mbytes
Step Temp PotEng TotEng Press Volume c_msd[4] 
    5000    1030.6404   -7889.1945    -7774.225   -1037.1172    30326.646    12.619052 
    5010    1042.1276   -7890.4183   -7774.1674   -1027.0424    30325.529    12.637203 
    5020    1052.1025   -7891.3826    -7774.019   -963.20395    30322.229    12.661923 
    5030    1039.0664   -7889.6893   -7773.7799   -798.20184    30316.902    12.695584 
    5040    1046.4764   -7890.1779   -7773.4419   -551.28617      30309.9    12.735133 
    5050    1066.0409   -7891.9198   -7773.0013   -436.23327    30301.713    12.775196 
    5060    1075.8953   -7892.5071   -7772.4894   -579.85483    30292.549    12.809604 
    5070    1087.3548   -7893.2333   -7771.9372   -553.88432    30282.193    12.836513 
    5080    1099.8531   -7894.0479   -7771.3577   -562.51603    30270.646    12.858935 
    5090    1110.6632   -7894.6797   -7770.7836   -581.59346    30257.911    12.878473 
    5100    1117.4495   -7894.8939   -7770.2407   -752.60279    30243.903    12.893045 
    5110    1124.1015   -7895.1482    -7769.753    -952.9698    30228.284    12.906358 
    5120     1120.726   -7894.3538   -7769.3352   -853.36795    30210.704     12.92737 
    5130    1108.5032   -7892.6373   -7768.9821   -586.63413    30191.325    12.960261 
    5140    1084.1799   -7889.5938   -7768.6519   -154.72612    30170.729    13.001239 
    5150    1096.5968   -7890.6307   -7768.3036    -45.59577    30149.721    13.048074 
    5160    1126.4981   -7893.6055   -7767.9429    85.687787     30128.61    13.104618 
    5170    1135.4267   -7894.2858   -7767.6272    520.43494     30107.73    13.171639 
    5180    1133.7266   -7893.8694   -7767.4005     921.6472    30087.893     13.24082 
    5190    1107.9403   -7890.8441   -7767.2517    1416.3952    30069.981    13.297425 
    5200    1101.7801   -7890.0559   -7767.1507    1571.1245    30054.933    13.335362 
    5210    1114.0519   -7891.3522    -7767.078    1469.2926    30043.103     13.36329 
    5220     1123.504   -7892.3878   -7767.0593    1404.2205    30034.334    13.388159 
    5230     1145.861   -7894.9644   -7767.1419    1147.6529    30028.439    13.416023 
    5240    1158.5156    -7896.635   -7767.4009    704.36995    30024.883    13.449049 
    5250    1137.5178   -7894.7932   -7767.9014     629.8403    30022.877    13.485539 
    5260    1115.0522   -7893.0355   -7768.6497    795.78617    30022.225    13.519844 
    5270    1104.4731   -7892.8281   -7769.6225    1020.3498    30023.257     13.55186 
    5280    1081.8551   -7891.4501   -7770.7675    1112.8305    30026.396    13.585606 
    5290    1061.4473   -7890.3724   -7771.9664     1118.923    30031.849    13.624268 
    5300    1059.0452   -7891.2569   -7773.1188    916.26494    30039.637    13.672562 
    5310    1065.3871   -7893.0248   -7774.1792    436.73149    30049.322    13.728193 
    5320    1074.8265   -7895.0331   -7775.1345    48.142153    30059.986    13.782188 
    5330    1060.7954    -7894.301   -7775.9676   -97.654658     30070.85    13.835773 
    5340    1048.8143   -7893.6535   -7776.6567    34.876841    30081.631    13.890818 
    5350    1066.4237   -7896.1724   -7777.2112   -123.89787    30092.477    13.943725 
    5360    1085.2475   -7898.7495   -7777.6885    -475.2713    30103.079    13.995728 
    5370    1074.4527   -7897.9617   -7778.1048   -803.41016    30112.757    14.049823 
    5380    1078.6422   -7898.7946   -7778.4704    -1282.739    30120.761    14.101882 
    5390    1077.6184    -7899.006    -7778.796   -1471.1903    30126.175    14.153106 
    5400    1060.9683   -7897.4308   -7779.0782   -1389.9816    30128.587    14.210286 
    5410    1054.6436   -7896.9522   -7779.3051   -1305.7896    30128.094    14.274378 
    5420     1042.894   -7895.7936   -7779.4572   -1114.3454    30124.889    14.338088 
    5430    1018.9549   -7893.1694   -7779.5035   -976.27188    30119.326    14.390597 
    5440    1015.3875   -7892.6906   -7779.4226   -1090.4493    30111.631    14.429811 
    5450    1014.7594   -7892.3882   -7779.1903   -1132.7219    30101.631     14.46567 
    5460    1023.4646     -7892.98   -7778.8109    -1018.659    30089.243     14.50445 
    5470     1028.606   -7893.0211   -7778.2785   -649.99134    30074.719    14.542557 
    5480    1067.7779   -7896.7317   -7777.6194   -405.03502    30058.748    14.577918 
    5490    1083.0877   -7897.6967   -7776.8766   -184.03781     30041.88    14.615926 
    5500     1091.707   -7897.9107   -7776.1291   -131.99813    30024.534    14.661732 
    5510    1104.7439   -7898.6389    -7775.403   -122.02796    30006.854    14.717369 
    5520    1103.8433   -7897.8666   -7774.7313    25.563053    29988.891    14.776623 
    5530    1116.4101    -7898.673   -7774.1358    309.93058    29970.956    14.831133 
    5540    1105.6273   -7896.9594    -7773.625    821.38155    29953.654      14.8827 
    5550    1094.2978   -7895.2638   -7773.1933    1042.8783    29937.957    14.930714 
    5560    1097.7035   -7895.2645    -7772.814    895.38695    29924.309    14.973172 
    5570    1083.1067   -7893.2897   -7772.4675    850.54196    29912.505    15.012451 
    5580    1094.9876   -7894.3038   -7772.1563    598.38524    29902.388    15.052666 
    5590    1082.9464   -7892.6697   -7771.8654    345.35779    29893.495    15.099909 
    5600     1065.896   -7890.4856   -7771.5833    160.58733    29885.308    15.149856 
    5610    1077.6224   -7891.4903   -7771.2799    5.7218201    29877.423    15.198217 
    5620    1091.1498   -7892.6768   -7770.9574   -11.860872    29869.555    15.248266 
    5630    1094.3354   -7892.7279   -7770.6531    185.78618    29861.681     15.30317 
    5640    1077.7014   -7890.5894   -7770.3702    747.98893    29854.229    15.359654 
    5650    1091.4976   -7891.8499   -7770.0917    1152.4098    29848.262    15.410639 
    5660    1130.7088   -7895.9706   -7769.8383    1004.0637    29844.551    15.460045 
    5670    1131.8917   -7895.9363   -7769.6721    777.32409    29842.894    15.518999 
    5680     1120.143   -7894.5644   -7769.6108    714.95704    29842.886    15.583606 
    5690    1123.5385   -7894.9647   -7769.6322    508.76007    29844.316    15.646094 
    5700    1117.5061   -7894.3882   -7769.7287    387.93185    29846.827    15.707222 
    5710    1095.2716   -7892.0622    -7769.883    391.75443    29850.175    15.761597 
    5720    1086.9453   -7891.3128   -7770.0624    443.37346    29854.368    15.807136 
    5730    1088.7772   -7891.7053   -7770.2505    470.37766    29859.504    15.847395 
    5740    1079.5472   -7890.8664   -7770.4412     648.2898    29865.671    15.883386 
    5750    1083.0739   -7891.4435    -7770.625    699.06817    29873.195    15.919327 
    5760    1096.7976    -7893.159   -7770.8096    541.01741    29882.176    15.965338 
    5770    1107.9941   -7894.6233   -7771.0249    206.53433    29892.307    16.025546 
    5780    1100.8573   -7894.1057   -7771.3035    -75.07529    29902.938    16.098772 
    5790    1067.4981   -7890.7147   -7771.6336   -5.8648975    29913.551    16.179168 
    5800    1047.9884   -7888.8804   -7771.9757    193.86387    29924.239    16.257014 
    5810     1044.431   -7888.8095   -7772.3016    374.53043    29935.397    16.328986 
    5820    1044.3703   -7889.1162   -7772.6151    443.75943    29947.391     16.39354 
    5830    1036.9077   -7888.5852   -7772.9165    435.46475    29960.377    16.452285 
    5840    1032.3045   -7888.3473   -7773.1922    384.73957    29974.362     16.50571 
    5850    1049.8825   -7890.5553   -7773.4394    47.495095     29989.18    16.557966 
    5860    1061.3539   -7892.0657   -7773.6701   -187.33218    30004.223    16.606203 
    5870    1065.8885   -7892.8078   -7773.9063   -58.645061    30019.047    16.642695 
    5880    1058.2077   -7892.1796    -7774.135    270.93426    30033.895    16.674178 
    5890    1073.8179   -7894.1342   -7774.3482    222.41966    30049.343    16.709101 
    5900    1080.4768   -7895.0843   -7774.5555    134.39855    30065.385     16.74567 
    5910     1063.173   -7893.3568   -7774.7583    243.92556    30081.898    16.777187 
    5920    1068.9788   -7894.1895   -7774.9433    1.7677423    30098.996     16.79722 
    5930    1068.4491    -7894.281   -7775.0939   -472.33239    30116.211    16.811041 
    5940     1060.099   -7893.4682   -7775.2125   -844.95505    30132.606    16.826802 
    5950    1022.9027   -7889.3747   -7775.2683   -801.11619    30147.447    16.850822 
    5960    977.89654   -7884.2712   -7775.1854   -410.93652    30160.804     16.88537 
    5970    988.04006    -7885.112   -7774.8947   -253.67506    30173.365    16.922085 
    5980    1012.4491   -7887.3131   -7774.3729   -249.29421    30185.491    16.953407 
    5990    1041.9918   -7889.9051   -7773.6693   -383.36588    30197.172    16.977532 
    6000    1062.3314   -7891.3416   -7772.8369   -454.24777     30208.18    17.002357 
    6010    1078.0362   -7892.2097   -7771.9531   -463.53398    30218.334     17.04233 
    6020    1079.4683    -7891.484   -7771.0677   -261.72186    30227.651    17.099005 
    6030    1092.5876   -7892.0971   -7770.2173    -178.4717    30236.478    17.162782 
    6040    1119.2551   -7894.2753   -7769.4207   -265.66989    30244.974    17.222041 
    6050    1133.8073   -7895.2076   -7768.7297   -283.18907    30253.004     17.27118 
    6060    1134.8831   -7894.7783   -7768.1804     -258.944    30260.521     17.31449 
    6070    1119.4421   -7892.6358   -7767.7604   -309.71535    30267.553    17.365801 
    6080    1091.9914   -7889.2575   -7767.4442   -504.84512    30273.959    17.430249 
    6090    1061.2165   -7885.5353    -7767.155   -732.84543    30279.339    17.503452 
    6100    1086.0248   -7887.9913   -7766.8436   -988.44481    30283.201    17.581756 
    6110    1097.9387   -7888.9845   -7766.5078   -1058.6607     30285.04    17.665691 
    6120     1092.501   -7888.0601     -7766.19   -1165.6318    30284.635    17.749722 
    6130    1090.1213   -7887.4901   -7765.8854   -1095.4063    30281.802    17.824291 
    6140    1085.4829   -7886.6746   -7765.5873   -904.79081    30276.656    17.885382 
    6150    1099.6013    -7887.962   -7765.2999   -964.56403    30269.523    17.935943 
    6160     1105.111   -7888.3099   -7765.0331   -940.47914    30260.347    17.987944 
    6170    1102.5744   -7887.8019   -7764.8081   -687.69645    30249.202    18.045065 
    6180    1104.4643   -7887.8263   -7764.6216    -571.0533    30236.551    18.101912 
    6190    1098.6498   -7887.0216   -7764.4655   -682.57163    30222.644    18.159634 
    6200     1091.632   -7886.0989   -7764.3257   -877.23972    30207.274    18.221153 
    6210     1082.715   -7884.9544    -7764.176   -836.94792    30190.107    18.284172 
    6220    1083.3749   -7884.8504   -7763.9983   -763.39634    30171.199    18.344794 
    6230    1105.0925   -7887.0781   -7763.8033    -605.9945    30150.752    18.403241 
    6240    1124.5161   -7889.0718   -7763.6304   -326.45106    30129.129    18.457048 
    6250     1122.235   -7888.7099   -7763.5229   -9.9398827    30106.932    18.503383 
    6260    1112.3562   -7887.5709   -7763.4858    86.899546    30084.795    18.541888 
    6270    1119.4793   -7888.3925   -7763.5129   -56.377499    30062.939    18.568311 
    6280    1146.4676   -7891.5241   -7763.6339    -205.1916    30041.136    18.585971 
    6290    1162.3506    -7893.581    -7763.919   -237.81257    30019.097    18.609831 
    6300    1145.7579   -7892.2213   -7764.4103    91.266334    29996.841    18.648726 
    6310    1107.7883   -7888.6508   -7765.0754    566.45173    29975.047    18.702115 
    6320    1062.0486   -7884.2988   -7765.8257    714.91791    29954.604    18.761182 
    6330    1046.6574   -7883.3317   -7766.5755    669.41172    29935.851    18.810205 
    6340     1057.487   -7885.2615   -7767.2973    816.61568    29918.765    18.845731 
    6350    1070.6074   -7887.4205   -7767.9926    1049.6801    29903.618    18.872186 
    6360    1081.5646   -7889.3349   -7768.6847    1085.2858    29890.797    18.894372 
    6370    1082.3853   -7890.1249   -7769.3832    1079.7114    29880.373    18.920247 
    6380    1073.5905   -7889.8349   -7770.0742    1219.7513    29872.357    18.950534 
    6390    1086.9247   -7892.0001    -7770.752     1074.211    29866.901    18.974283 
    6400    1110.7828     -7895.35   -7771.4405    811.24687    29863.724    18.988205 
    6410    1115.5098   -7896.6144   -7772.1776     791.9342    29862.292    19.000356 
    6420    1101.3389   -7895.7954   -7772.9394    934.97839    29862.534    19.014638 
    6430    1100.6814   -7896.4807    -7773.698    717.06422     29864.62    19.030968 
    6440     1096.008    -7896.687   -7774.4257     453.3284    29868.136    19.048226 
    6450    1098.1906   -7897.6193   -7775.1144    348.80691    29872.566    19.071894 
    6460    1088.6452   -7897.1931   -7775.7531    365.93774    29877.662    19.111095 
    6470    1063.2902   -7894.9089   -7776.2973    443.43069    29883.439    19.160221 
    6480    1070.8868   -7896.1885   -7776.7295    56.599089    29889.938    19.207427 
    6490     1073.006   -7896.7482   -7777.0528   -433.45528     29896.44    19.250548 
    6500    1063.7393   -7895.9535   -7777.2918   -772.08841    29901.965    19.288758 
    6510    1041.2172   -7893.5837   -7777.4344   -667.37774    29905.902    19.322588 
    6520    1045.6587   -7894.1154   -7777.4706   -587.66329    29908.402    19.353223 
    6530    1068.3294   -7896.5989   -7777.4252    -742.9169    29909.609    19.384748 
    6540    1092.0428   -7899.1708   -7777.3518   -648.68037    29909.337    19.422847 
    6550     1096.626   -7899.6248   -7777.2945   -386.01385    29907.779     19.47056 
    6560    1072.2615   -7896.8584   -7777.2461   -1.3550221    29905.502    19.523117 
    6570    1071.1951   -7896.6733   -7777.1798    176.87779    29903.236    19.573227 
    6580    1070.1916   -7896.4665    -7777.085    194.69472    29901.358    19.619128 
    6590    1057.7356   -7894.9447   -7776.9527    238.31093    29899.938    19.657875 
    6600    1070.2774   -7896.1694   -7776.7783    369.41779     29899.06    19.687918 
    6610     1074.549   -7896.4355   -7776.5679     664.4394    29899.005    19.711937 
    6620    1069.8061   -7895.6742   -7776.3357    765.38116    29900.295    19.731981 
    6630    1084.9742   -7897.1153   -7776.0848    330.52334    29903.036    19.747542 
    6640    1091.9608   -7897.6362   -7775.8264   -178.07739      29906.4    19.759247 
    6650    1086.5463   -7896.7831   -7775.5772   -483.01324     29909.39    19.768892 
    6660    1088.9331   -7896.8133   -7775.3412   -836.10491    29911.323    19.780526 
    6670     1072.155   -7894.7053   -7775.1048   -841.72371    29911.586    19.799586 
    6680    1040.5236    -7890.913    -7774.841    -484.2313    29910.192    19.831998 
    6690    1027.0765   -7889.0651   -7774.4931   -159.95797    29907.823    19.877199 
    6700    1036.8676   -7889.6825   -7774.0184    31.121363    29905.161    19.923616 
    6710    1064.3304   -7892.1605   -7773.4328    102.88833    29902.592    19.961851 
    6720    1088.1241   -7894.1666   -7772.7847    111.12035    29900.278    19.996231 
    6730    1095.5214    -7894.339   -7772.1319    -123.7332    29898.194    20.028886 
    6740      1104.15   -7894.6874   -7771.5178   -461.34019    29895.884     20.06135 
    6750    1092.9837   -7892.8769    -7770.953   -546.60163    29892.731    20.102654 
    6760     1082.963   -7891.2441    -7770.438   -537.63463    29888.515     20.15415 
    6770    1068.9464    -7889.191   -7769.9484   -303.63695    29883.326    20.209854 
    6780    1064.9396    -7888.255   -7769.4594   -121.93533    29877.602    20.263785 
    6790    1063.6985   -7887.6201   -7768.9629    6.5096665     29871.73    20.312092 
    6800    1054.8542   -7886.1315   -7768.4609    92.828513    29865.975    20.355219 
    6810    1069.9115   -7887.3111   -7767.9608   -63.793266    29860.461     20.39693 
    6820    1091.2104   -7889.2146   -7767.4885   -341.51603      29854.9    20.441056 
    6830    1085.0624   -7888.1208   -7767.0805   -353.23894    29848.801    20.487529 
    6840    1084.5587    -7887.725   -7766.7408   -271.70285    29842.114     20.53812 
    6850    1093.0973   -7888.3998   -7766.4631   -306.18148    29834.962    20.594016 
    6860    1083.4253   -7887.1024   -7766.2447   -166.29394    29827.358    20.647104 
    6870    1076.2133   -7886.1231   -7766.0699   -78.778993    29819.538    20.693402 
    6880    1073.0852    -7885.615   -7765.9108    11.731715    29811.702    20.738473 
    6890    1094.9267   -7887.9087   -7765.7679    137.30189    29804.041    20.786984 
    6900    1111.7445   -7889.6782   -7765.6614    162.41734    29796.773    20.840787 
    6910    1108.5557   -7889.2726   -7765.6115    46.899928    29789.941    20.898416 
    6920    1114.0013   -7889.9008   -7765.6323     -120.906    29783.302    20.957425 
    6930      1094.59   -7887.7979   -7765.6947    16.381708    29776.598      21.0228 
    6940    1096.2885   -7888.0765   -7765.7839    288.01967    29770.068     21.09672 
    6950    1102.0252   -7888.8023   -7765.8697    812.45607    29764.313    21.165324 
    6960    1124.0275   -7891.3797   -7765.9927    970.77781    29760.236    21.217181 
    6970    1110.1721   -7890.0128   -7766.1715    964.89271    29758.179    21.259646 
    6980    1101.0398   -7889.2135   -7766.3908    764.88693    29758.079    21.293072 
    6990    1116.4296   -7891.1877   -7766.6484    537.34043    29759.531    21.314738 
    7000    1108.2744   -7890.5883   -7766.9587    697.84795    29762.131    21.328904 
    7010    1103.4894    -7890.414   -7767.3181    954.36488    29766.147    21.348717 
    7020    1114.6372   -7892.0709   -7767.7314    863.96808    29771.964    21.379841 
    7030    1091.2807   -7889.9097   -7768.1757    752.86519    29779.455    21.415434 
    7040    1092.4495   -7890.5076   -7768.6432    461.53782    29788.299    21.445023 
    7050    1088.9075   -7890.5815   -7769.1122    328.18979     29797.95    21.468419 
    7060     1084.948   -7890.6042   -7769.5766    312.80662    29808.115    21.490867 
    7070     1103.774   -7893.1854   -7770.0577    156.72146      29818.7    21.512923 
    7080    1088.4109   -7891.9751   -7770.5612    299.27649    29829.483    21.535597 
    7090    1067.9991   -7890.2004   -7771.0635    367.73854    29840.666    21.562107 
    7100    1048.8014   -7888.5109   -7771.5155    274.93779    29852.387     21.58988 
    7110    1043.3068   -7888.2684    -7771.886   -47.573934    29864.427    21.609724 
    7120    1060.1698   -7890.4373   -7772.1738   -550.44034    29876.117    21.621865 
    7130    1064.1288   -7891.1076   -7772.4024   -761.51962    29886.513    21.634752 
    7140    1047.4344   -7889.4109    -7772.568    -658.4426    29895.235    21.656449 
    7150    1064.4361   -7891.4096   -7772.6701   -670.07288     29902.43    21.691432 
    7160    1078.5471   -7893.0315    -7772.718   -506.70527    29908.187    21.733538 
    7170    1059.4804   -7890.9263   -7772.7397   -192.13384     29912.83    21.778032 
    7180    1038.6698   -7888.5596   -7772.6945    159.84901    29917.029    21.821098 
    7190    1053.4154   -7890.0621    -7772.552    24.009924    29921.393    21.862582 
    7200    1047.5043    -7889.149   -7772.2983   -174.48954    29925.743    21.912595 
    7210    1038.0924    -7887.716   -7771.9153    -376.5829    29929.669    21.964901 
    7220    1044.1399   -7887.8379   -7771.3625   -470.53464    29932.768    22.001945 
    7230    1061.6959   -7889.0377   -7770.6039   -152.38275    29934.932    22.023038 
    7240     1078.855   -7889.9862   -7769.6383    376.99566    29936.784    22.037771 
    7250    1072.6261   -7888.1475   -7768.4944    652.03981    29939.346    22.046646 
    7260    1079.4471   -7887.6277   -7767.2138    463.02291    29943.145    22.047986 
    7270    1107.2719   -7889.3728    -7765.855   -55.878374    29947.779    22.043308 
    7280    1113.9987   -7888.8166   -7764.5484   -258.32928      29952.3    22.036125 
    7290    1111.5329   -7887.4165   -7763.4233   -169.81118    29956.279    22.026104 
    7300    1112.8194   -7886.6431   -7762.5065    158.96935    29959.917    22.019992 
    7310    1115.4402   -7886.2275   -7761.7985    339.26155    29963.794     22.02506 
    7320    1103.3747    -7884.353   -7761.2699    491.03809    29968.351    22.036417 
    7330    1119.2656   -7885.7451   -7760.8893    122.00241    29973.765    22.044378 
    7340    1105.4891   -7883.9441   -7760.6251   -90.644166    29979.423    22.044658 
    7350    1080.5394   -7880.9762   -7760.4404   -143.82253     29984.86     22.04494 
    7360    1083.8131   -7881.1768   -7760.2758   -107.70588    29989.976    22.056213 
    7370     1097.577   -7882.5605   -7760.1241    15.669778    29994.829    22.076138 
    7380    1111.2396   -7883.9724   -7760.0119    207.04468    29999.671    22.100018 
    7390    1113.6324   -7884.1881   -7759.9608    270.10714    30004.867    22.128756 
    7400    1113.0216   -7884.1382   -7759.9789    185.25246    30010.539    22.156644 
    7410    1100.0866   -7882.7666   -7760.0503    397.48352    30016.598    22.183335 
    7420    1114.4813   -7884.4819   -7760.1598    656.23286    30023.421    22.208371 
    7430     1144.194   -7887.9742   -7760.3376    712.52296    30031.503    22.231784 
    7440    1122.6176   -7885.8389   -7760.6093     828.7704    30041.001    22.259865 
    7450    1120.0276   -7885.9038    -7760.963    578.69703     30052.05    22.297191 
    7460    1115.3176   -7885.7936   -7761.3783    276.62571     30064.19    22.341225 
    7470    1114.5319   -7886.1827    -7761.855    66.931439    30076.788    22.386097 
    7480    1130.1999   -7888.4791   -7762.4036   -21.117534    30089.436    22.424476 
    7490    1147.2169   -7891.0364   -7763.0626   -110.81931    30101.915     22.45346 
    7500    1134.7937     -7890.44   -7763.8521     21.12899    30114.093    22.478284 
    7510    1093.4491   -7886.6705   -7764.6946    439.48425    30126.274    22.504497 
    7520    1099.3869   -7888.1648   -7765.5266    396.37259    30139.159    22.538692 
    7530    1112.1543   -7890.4029   -7766.3404    309.44998    30152.765    22.583834 
    7540    1107.7203   -7890.7053   -7767.1374    94.789681    30166.862    22.635899 
    7550     1110.219   -7891.7417   -7767.8951   -314.12417    30180.987    22.692251 
    7560    1116.1417   -7893.1218   -7768.6145    -692.3724    30194.349    22.746893 
    7570    1108.5625   -7892.9501   -7769.2883   -977.30618    30206.165    22.788746 
    7580    1102.3237   -7892.8785   -7769.9126   -1101.9116    30215.851    22.814767 
    7590    1093.2575   -7892.4307   -7770.4762   -1185.9349    30223.128    22.825569 
    7600    1077.7755   -7891.1961   -7770.9686   -1106.1183    30227.881     22.82468 
    7610    1047.0257   -7888.1565   -7771.3592   -879.78003    30230.305    22.825996 
    7620    1030.2214   -7886.5326   -7771.6099   -766.77672    30230.851    22.842553 
    7630    1052.0449   -7889.0856   -7771.7284   -1040.1098    30229.706    22.873285 
    7640    1068.7085    -7890.975    -7771.759   -1212.2192    30226.409    22.917273 
    7650    1073.6675   -7891.5159   -7771.7467   -1057.3187    30220.663    22.965183 
    7660    1082.4185    -7892.458   -7771.7126   -747.01402    30212.787    23.004216 
    7670    1077.4485   -7891.8535   -7771.6625   -356.36745     30203.43    23.031655 
    7680     1084.284    -7892.552   -7771.5985   -117.92438    30193.379    23.052139 
    7690     1091.944   -7893.3342   -7771.5262    137.18804    30183.188    23.069335 
    7700    1085.8711   -7892.5909   -7771.4603    329.57735    30173.351    23.084895 
    7710    1058.9601   -7889.5091   -7771.3805    632.66801    30164.324    23.106594 
    7720    1039.8476   -7887.2447   -7771.2481     864.3285    30156.678    23.140665 
    7730     1023.008   -7885.1283   -7771.0102    955.95902     30150.89    23.188229 
    7740    1044.7185   -7887.1949    -7770.655    624.71616    30147.061    23.249904 
    7750    1066.5634   -7889.1699   -7770.1931    353.34772     30144.58     23.32164 
    7760    1060.9802   -7888.0236   -7769.6697    520.78306     30142.94    23.392381 
    7770    1069.7953   -7888.4286   -7769.0914    631.38001    30142.397    23.450195 
    7780    1106.7626   -7891.9329   -7768.4719    502.53783    30143.138    23.493805 
    7790    1106.2839   -7891.2803   -7767.8726    538.98626    30144.964    23.525761 
    7800    1119.9921   -7892.2684   -7767.3316    342.00417    30147.859    23.549823 
    7810    1120.7676   -7891.8768   -7766.8535    190.26455    30151.474    23.571251 
    7820      1109.43   -7890.2157   -7766.4571    104.29009    30155.496    23.588438 
    7830    1111.0802   -7890.0729   -7766.1303   -202.25033    30159.674    23.601565 
    7840    1098.0673    -7888.345    -7765.854   -264.95936    30163.481    23.607499 
    7850    1091.0692   -7887.3178   -7765.6074   -243.01527    30166.743    23.609248 
    7860    1101.0427   -7888.1932   -7765.3702   -423.67464    30169.458    23.617746 
    7870    1113.3584   -7889.3506   -7765.1538   -848.62932    30171.231    23.643128 
    7880    1117.5741   -7889.6587   -7764.9916   -1112.5733    30171.264    23.689183 
    7890    1093.1109   -7886.8227   -7764.8845   -1151.8824    30169.008    23.749835 
    7900    1080.3523   -7885.3167   -7764.8017   -1180.8013    30164.334     23.81916 
    7910    1074.3993   -7884.5409   -7764.6901   -932.86807    30157.266    23.893998 
    7920    1096.2643   -7886.8356   -7764.5457   -730.06615    30148.246    23.963119 
    7930    1108.4803   -7888.0477   -7764.3951    -442.6726    30137.747    24.024815 
    7940    1068.1077   -7883.3898   -7764.2407    147.82046    30126.437    24.088521 
    7950    1056.6461   -7881.9006   -7764.0301    176.88674    30115.349    24.163739 
    7960    1065.3207   -7882.5262   -7763.6881    34.811961    30104.637     24.25349 
    7970    1080.7572   -7883.7545   -7763.1944    155.20298    30094.085    24.353779 
    7980    1101.4276   -7885.3965   -7762.5306     336.6671    30083.905     24.46008 
    7990    1115.5268   -7886.1499   -7761.7112    353.77704    30074.427    24.565399 
    8000    1121.2741   -7885.8538    -7760.774    132.38918    30065.667     24.65594 
    8010    1119.9746   -7884.6927   -7759.7579   -127.05213      30057.2    24.731415 
    8020    1127.4726   -7884.4831   -7758.7118   -587.65546    30048.442    24.803588 
    8030    1136.2379   -7884.4343   -7757.6852   -1011.9163    30038.481    24.879091 
    8040    1141.4133   -7884.0749   -7756.7485   -1024.6702    30026.506    24.954354 
    8050    1132.3826   -7882.2471   -7755.9282    -890.0581    30012.418    25.026355 
    8060    1148.3704    -7883.341   -7755.2385   -670.69608    29996.497    25.094272 
    8070    1166.2248   -7884.7859   -7754.6918   -358.35018    29979.208     25.15647 
    8080    1155.5729   -7883.2398   -7754.3339   -8.0556914    29961.184    25.219378 
    8090    1143.3519   -7881.6872   -7754.1446    263.70573    29943.131    25.284642 
    8100    1148.7045   -7882.2352   -7754.0955    350.95323    29925.602    25.345489 
    8110    1157.4949   -7883.3134   -7754.1931    267.20128    29908.771    25.400614 
    8120    1148.2999   -7882.5405   -7754.4459    239.85607    29892.497     25.45286 
    8130    1137.2576   -7881.7082   -7754.8454    553.51748    29876.783    25.506028 
    8140    1138.5071   -7882.3667   -7755.3645     1021.698    29862.228     25.56252 
    8150    1145.8101   -7883.8348   -7756.0179    1456.9479    29849.773    25.622412 
    8160    1142.6105   -7884.2667   -7756.8067    1573.3366    29840.251    25.679446 
    8170     1163.871   -7887.5757   -7757.7442    1301.2775    29833.899    25.725549 
    8180    1150.1799     -7887.13   -7758.8257    1143.4323    29830.247    25.760495 
    8190    1107.8781   -7883.5184    -7759.933    926.50501    29828.922    25.789395 
    8200    1087.5844   -7882.2797    -7760.958    472.48147    29829.445    25.816693 
    8210    1060.1148   -7880.0668   -7761.8094    367.31831    29831.026    25.845945 
    8220    1058.8175   -7880.5804   -7762.4678    294.03849    29833.391    25.882178 
    8230    1076.9188   -7883.1015   -7762.9696   -39.367636    29836.324    25.933147 
    8240    1077.1604   -7883.5275   -7763.3686   -160.44431    29839.235    25.993997 
    8250    1057.2087   -7881.6026   -7763.6694   -164.68356    29841.848    26.053918 
    8260    1069.8536   -7883.2212   -7763.8774    -482.7253    29844.088    26.105318 
    8270    1078.4529   -7884.3224   -7764.0193   -559.86763    29845.407    26.145064 
    8280    1075.6329   -7884.1113   -7764.1228   -460.91165     29845.59    26.177937 
    8290     1077.954   -7884.4411   -7764.1937   -116.91923    29844.873    26.213238 
    8300    1089.6304   -7885.7932   -7764.2433    293.77547    29843.922    26.241631 
    8310     1100.438   -7887.0538   -7764.2983    648.40102    29843.555    26.253301 
    8320    1093.2518   -7886.3284   -7764.3745    1036.9442    29844.543     26.25809 
    8330    1099.4484   -7887.1113   -7764.4661     992.1587    29847.582     26.26345 
    8340    1114.0603   -7888.8602   -7764.5851    905.11486     29852.68    26.270581 
    8350    1110.9443   -7888.6887   -7764.7612    900.30542    29859.686    26.289897 
    8360    1101.8579    -7887.899   -7764.9851    785.02911    29868.579    26.334487 
    8370    1118.5714   -7890.0375   -7765.2592    294.83739     29879.08    26.398332 
    8380    1117.0548   -7890.2079   -7765.5987   -214.09604    29890.263    26.450625 
    8390    1089.3112   -7887.5053    -7765.991   -432.18553     29901.13    26.473223 
    8400    1074.5082   -7886.2614   -7766.3984   -413.35765    29911.218     26.46761 
    8410    1069.9749   -7886.1411   -7766.7838   -294.04043     29920.53    26.444077 
    8420    1085.2722   -7888.2119   -7767.1481   -442.93492    29929.256     26.41205 
    8430    1100.3614   -7890.2708   -7767.5238   -799.10269    29937.097    26.377471 
    8440    1094.1943   -7889.9985   -7767.9395    -1009.865     29943.37     26.34555 
    8450    1067.9943   -7887.5146   -7768.3782   -907.53468    29947.664    26.327223 
    8460    1055.3459    -7886.512   -7768.7866   -635.43011     29950.15    26.326591 
    8470    1075.8544   -7889.1774   -7769.1642    -373.6855    29951.341    26.336324 
[...]
   22890     1069.181   -7890.5241   -7771.2553   -174.82303    29848.337    72.907558 
   22900    1085.0776   -7892.2622   -7771.2201   -19.672448    29857.516    72.946037 
   22910    1117.1282   -7895.7929   -7771.1756   -94.175709    29866.458    73.008411 
   22920    1116.5755    -7895.734   -7771.1783     17.79606    29875.088    73.095596 
   22930    1085.2013   -7892.3033   -7771.2475    104.66028    29883.575    73.191293 
   22940    1058.6697   -7889.4192    -7771.323    196.00125    29892.142    73.270737 
   22950    1058.6407   -7889.4427   -7771.3497    180.38517    29900.952    73.335884 
   22960    1069.0598   -7890.5705   -7771.3153    35.398634    29909.979    73.390734 
   22970    1066.0147   -7890.1429   -7771.2274   -198.08162    29918.927    73.427131 
   22980    1046.1955   -7887.7816   -7771.0769    -189.7375    29927.383    73.445082 
   22990    1041.3794   -7886.9934    -7770.826   -131.25649    29935.346    73.450617 
   23000    1065.4216   -7889.3051   -7770.4557   -410.15031    29942.842    73.446666 
   23010     1069.652   -7889.3112   -7769.9899   -469.46901    29949.432    73.454696 
   23020    1058.0079   -7887.4754    -7769.453   -450.11045    29954.986    73.502219 
   23030    1059.1847   -7886.9964   -7768.8427   -363.56424     29959.56    73.580786 
   23040    1064.8686   -7886.9334   -7768.1457   -139.29037    29963.356      73.6565 
   23050    1096.9061   -7889.7529   -7767.3914   -12.557629    29966.806    73.705899 
   23060     1107.487   -7890.1755   -7766.6337   -52.507207    29970.148    73.729291 
   23070     1096.214   -7888.2125   -7765.9282    26.565493    29973.379    73.741821 
   23080    1108.6774   -7888.9471   -7765.2724   -234.09952    29976.571    73.758939 
   23090    1111.3968   -7888.6484   -7764.6704   -484.14576    29979.265     73.78756 
   23100    1103.4792   -7887.2339   -7764.1391   -461.10591    29980.991    73.839776 
   23110    1103.9614   -7886.8108   -7763.6622   -483.92337    29981.744    73.912813 
   23120    1124.0627   -7888.6315   -7763.2407   -448.53109    29981.507    73.998054 
   23130    1132.6298   -7889.2471   -7762.9005     -89.3498    29980.426    74.092273 
   23140    1128.7901   -7888.5843   -7762.6661    392.95736    29979.213    74.183061 
   23150    1124.7248   -7887.9957    -7762.531    730.21264    29978.818    74.248852 
   23160    1130.5063   -7888.6015   -7762.4918    803.67419    29979.901    74.268663 
   23170     1123.544    -7887.874    -7762.541    839.85267    29982.652    74.260086 
   23180    1111.7873   -7886.6964   -7762.6748    901.07759    29987.133    74.258075 
   23190    1099.1028   -7885.4712   -7762.8646    901.03491    29993.456    74.271618 
   23200    1088.1536   -7884.4719   -7763.0867    677.77632    30001.572     74.29399 
   23210    1094.7197   -7885.4469   -7763.3292     534.1027    30011.071     74.31862 
   23220    1107.2387   -7887.1153   -7763.6012    392.97215    30021.626     74.33986 
   23230    1116.5937   -7888.4949   -7763.9372    42.222534    30032.891    74.356231 
   23240    1119.2932    -7889.212   -7764.3531   -251.02046    30044.207    74.371967 
   23250    1132.8179    -7891.244   -7764.8765   -450.30144    30054.958    74.384887 
   23260    1132.4439   -7891.8595   -7765.5337   -382.30978    30064.774     74.39388 
   23270    1123.7689   -7891.6881     -7766.33   -291.47143    30073.741    74.404046 
   23280     1105.908   -7890.5869   -7767.2212   -205.27797    30082.072    74.422503 
   23290    1106.5765    -7891.608   -7768.1677   -442.72684     30089.89     74.45931 
   23300    1100.6064   -7891.9088   -7769.1345   -869.65421    30096.714    74.513551 
   23310    1075.6398   -7890.0551   -7770.0658   -936.95152    30101.782    74.569168 
   23320    1056.5228   -7888.7479   -7770.8912   -851.69043    30104.913    74.609499 
   23330    1047.8172   -7888.4532   -7771.5676   -868.73061    30106.236    74.636711 
   23340    1034.7565   -7887.5041   -7772.0755   -795.42898    30105.764    74.674726 
   23350    1015.6692   -7885.7063   -7772.4069   -607.19428    30103.663    74.733616 
   23360    1006.4895    -7884.826   -7772.5506   -688.27238    30100.267    74.800179 
   23370    1021.7281   -7886.5051   -7772.5298    -1166.453    30095.376    74.855276 
   23380    1031.8337   -7887.4858   -7772.3832   -1662.1209    30088.067    74.883131 
   23390    1034.9696   -7887.6009   -7772.1485   -1743.1885    30077.401    74.884322 
   23400    1021.1863    -7885.752   -7771.8371   -1343.8949    30063.222     74.87872 
   23410    1000.0411    -7882.977   -7771.4209   -709.96102    30046.365     74.88351 
   23420    1026.9299   -7885.4442   -7770.8887   -270.68313    30028.045    74.901316 
   23430    1063.3323   -7888.8819   -7770.2656    361.56887    30009.273    74.916097 
   23440    1089.2132   -7891.1389   -7769.6356    794.53297     29991.29    74.916497 
   23450    1093.1902   -7891.0106   -7769.0636    1046.5642    29974.997    74.906473 
   23460    1085.7929   -7889.6864   -7768.5646    1165.1636    29960.906    74.892153 
   23470    1098.4528   -7890.6648   -7768.1307    1004.0827    29949.228    74.880071 
   23480    1113.8607   -7892.0268   -7767.7739    982.82928    29939.698    74.882764 
   23490    1100.0411   -7890.2176   -7767.5064    1155.5799    29932.254     74.89484 
   23500    1064.9925   -7886.0856   -7767.2841    1278.5463    29927.216    74.892045 
   23510    1063.2989   -7885.6671   -7767.0545    1100.8739    29924.773    74.869868 
   23520    1076.1159   -7886.8369   -7766.7946    971.31108    29924.638     74.83194 
   23530    1085.9737   -7887.6804   -7766.5384    934.63096    29926.539    74.796192 
   23540    1090.6156   -7887.9558    -7766.296    874.93036    29930.385    74.778111 
   23550    1092.8364   -7887.9844   -7766.0769    769.44788    29936.028    74.791313 
   23560    1096.5367   -7888.1976   -7765.8773    604.91867    29943.256    74.846332 
   23570    1116.0897   -7890.2172   -7765.7157     351.4401    29951.715    74.941234 
   23580    1101.5949   -7888.4873   -7765.6027     543.2147    29960.987    75.050379 
   23590    1093.7333   -7887.5502   -7765.5426    782.54853    29971.383    75.158901 
   23600    1069.9492   -7884.8478   -7765.4933    912.14726    29983.383    75.267692 
   23610    1033.9998   -7880.7505   -7765.4062    971.61243    29997.278    75.364607 
   23620    1030.0209   -7880.1167   -7765.2163    785.41773    30013.173    75.437632 
   23630    1067.2398   -7883.9699   -7764.9177    290.10142    30030.657     75.50204 
   23640    1089.1028   -7886.0458   -7764.5548   -33.067485      30048.8    75.570837 
   23650    1104.4844   -7887.3855   -7764.1786   -247.56402     30066.91    75.640141 
   23660    1115.5119   -7888.2634   -7763.8264   -379.32864    30084.523    75.692815 
   23670    1122.6554   -7888.7602   -7763.5263   -340.31178    30101.373    75.719166 
   23680    1099.0418   -7885.8797   -7763.2799   -34.237682    30117.565    75.732437 
   23690    1081.3712    -7883.687   -7763.0584    208.75209    30133.669    75.746331 
   23700    1078.5166   -7883.1242   -7762.8141    257.00273    30150.177     75.76942 
   23710     1081.092   -7883.1267   -7762.5293    98.510104    30167.194    75.801008 
   23720    1099.4171   -7884.8464   -7762.2048   -365.66251    30184.376     75.82499 
   23730    1115.5927   -7886.3092   -7761.8632   -810.52503    30200.784    75.837303 
   23740    1112.3971   -7885.6217   -7761.5321    -937.5283    30215.522    75.861908 
   23750    1109.2838   -7884.9549   -7761.2127   -1018.9044    30228.293    75.899613 
   23760    1101.2838   -7883.7326   -7760.8828   -1081.6206    30238.931    75.933382 
   23770      1094.25   -7882.5889   -7760.5237   -1135.1375    30247.269    75.948069 
   23780    1081.1748   -7880.7051   -7760.0985   -994.02102    30253.246    75.943807 
   23790    1082.0929   -7880.2726   -7759.5635   -940.21949    30257.107    75.926914 
   23800    1114.0038   -7883.1559   -7758.8871   -1259.9263    30258.893    75.902306 
   23810    1139.7309   -7885.2429   -7758.1042   -1388.0962    30258.065    75.883247 
   23820    1151.0203   -7885.6911   -7757.2931   -1048.1446    30254.418    75.867886 
   23830    1160.2709   -7885.9502   -7756.5202   -495.73477    30248.602    75.850956 
   23840    1153.5888    -7884.515   -7755.8305    45.271253    30241.753    75.833514 
   23850    1158.8426   -7884.5208   -7755.2502    235.53124    30234.946    75.813385 
   23860    1171.3691   -7885.4673   -7754.7993     213.1624      30228.6    75.793244 
   23870    1166.8862   -7884.6845   -7754.5166    223.37767    30222.732    75.787289 
   23880    1164.9264   -7884.3628   -7754.4135   -50.257616    30217.298    75.804827 
   23890    1171.6765   -7885.2077   -7754.5054   -512.37324    30211.721    75.850502 
   23900    1151.0843   -7883.1994   -7754.7942   -627.50821     30205.15     75.90634 
   23910    1143.0649   -7882.7811   -7755.2705   -763.23111    30197.242    75.945572 
   23920    1138.8176   -7882.9524   -7755.9156    -719.8394    30187.778    75.948134 
   23930    1139.2614   -7883.8086   -7756.7222   -498.30402    30176.829    75.911746 
   23940    1150.9981   -7886.0961   -7757.7005   -392.69187    30164.793    75.851985 
   23950    1141.6155   -7886.1771   -7758.8282   -196.05505    30151.951    75.788801 
   23960    1135.8865   -7886.7532   -7760.0433    -57.19875     30138.65    75.744142 
   23970    1130.6878   -7887.4043   -7761.2744    86.720294    30125.224    75.740128 
   23980    1111.9949     -7886.49   -7762.4453    144.70108    30111.945    75.778819 
   23990    1090.8948   -7885.1582   -7763.4672    180.38038    30098.934      75.8398 
   24000    1090.6418   -7885.9872   -7764.3245    282.30001    30086.288     75.90599 
   24010    1086.5923   -7886.2458   -7765.0348    484.77814    30074.222    75.980587 
   24020    1088.6073   -7887.0576   -7765.6218    526.34991     30063.11    76.053771 
   24030     1114.057   -7890.4119   -7766.1372    192.33635    30053.009    76.100326 
   24040     1137.122   -7893.5058   -7766.6581   -349.41369    30043.244    76.115153 
   24050    1124.0704   -7892.6053   -7767.2135   -386.65289     30032.84    76.127546 
   24060    1124.4288   -7893.2299   -7767.7981   -461.66662    30021.579     76.16414 
   24070    1127.1731   -7894.1571   -7768.4193   -596.33319    30009.317    76.220864 
   24080    1100.2404   -7891.7927   -7769.0593    -546.1618    29995.819    76.284461 
   24090    1085.0353   -7890.7141   -7769.6768   -533.40229    29981.129    76.347122 
   24100    1062.7996   -7888.7889    -7770.232   -301.59977    29965.321    76.405189 
   24110    1045.4459   -7887.3066   -7770.6856    53.208035    29948.854    76.449168 
   24120    1050.8325   -7888.2525   -7771.0305    124.60159     29932.39     76.46979 
   24130    1052.3601   -7888.6729   -7771.2805    100.93728    29916.121    76.459611 
   24140    1051.1466   -7888.7043   -7771.4474   -69.954911    29899.972     76.41915 
   24150    1059.7435   -7889.7559   -7771.5399   -304.81191    29883.592    76.363668 
   24160    1080.4082   -7892.1005   -7771.5793   -556.88966    29866.484    76.313605 
   24170    1096.3379   -7893.9048   -7771.6067   -454.82158     29848.21    76.277952 
   24180    1084.2062   -7892.5807   -7771.6358    95.130493     29828.98    76.255075 
   24190    1093.2672   -7893.6202   -7771.6646    585.78897    29809.833     76.22929 
   24200    1100.7174    -7894.484   -7771.6973    655.34172    29791.714    76.189169 
   24210    1095.9922   -7894.0235   -7771.7639    559.08924    29774.799    76.147269 
   24220    1094.7312   -7893.9762   -7771.8573    257.02029    29758.892    76.122055 
   24230    1092.4584   -7893.8444    -7771.979   -194.52327    29743.372    76.121429 
   24240    1064.6555   -7890.8692   -7772.1053   -369.40875    29727.413    76.144635 
   24250    1056.2459   -7890.0288    -7772.203    -652.9401    29710.562    76.183046 
   24260    1051.1655    -7889.492   -7772.2329   -602.77251     29692.34    76.228718 
   24270    1064.7647    -7890.967   -7772.1909   -175.62743    29672.831    76.279661 
   24280    1086.2003   -7893.2481   -7772.0808    362.42701    29652.864    76.345171 
   24290    1111.2247   -7895.9169   -7771.9581    678.90794    29633.454    76.426474 
   24300    1108.6259   -7895.5248   -7771.8559     1012.615    29615.323    76.505026 
   24310    1110.9446   -7895.7353   -7771.8077    1095.0433    29599.078    76.568163 
   24320    1077.4483    -7891.981     -7771.79    1433.8809        29585    76.615481 
   24330    1044.9054   -7888.3115   -7771.7508    1803.4899    29573.721     76.64547 
   24340    1047.3117   -7888.4512    -7771.622    1979.0001     29565.99    76.658517 
   24350    1069.2469    -7890.669   -7771.3929    1901.9333    29562.146    76.675315 
   24360    1072.2927   -7890.6902   -7771.0743    1891.7269    29562.156    76.727164 
   24370    1095.8294   -7892.9324    -7770.691    1636.1173    29565.966    76.816349 
   24380    1091.9015   -7892.0636   -7770.2603    1309.3897    29573.112     76.92067 
   24390    1082.1339   -7890.5034   -7769.7897    1003.6961    29582.999    77.021312 
   24400    1085.1151   -7890.2975   -7769.2512    609.06997    29595.012    77.108969 
   24410    1095.7233   -7890.8763   -7768.6467    343.38862    29608.421     77.18628 
   24420    1094.9821   -7890.1421   -7767.9952    547.27251    29622.767    77.253401 
   24430    1091.9799   -7889.1245   -7767.3125    964.27643    29638.427     77.30025 
   24440    1128.0868   -7892.4518    -7766.612     725.2872    29656.085    77.336611 
   24450    1118.0729   -7890.6579   -7765.9351    692.96836    29675.487    77.384686 
   24460    1102.6912   -7888.3351   -7765.3283    740.31656    29696.542    77.446652 
   24470    1110.3405   -7888.6095   -7764.7493    683.79331     29719.33    77.505398 
   24480    1117.2306   -7888.8321   -7764.2034    824.07454    29743.832    77.547057 
   24490    1133.8498   -7890.2028   -7763.7202    727.18591    29770.253     77.58554 
   24500    1133.6682   -7889.7892   -7763.3268    805.02413    29798.513    77.634416 
   24510    1119.9925   -7887.9729    -7763.036    853.66549    29828.741    77.698792 
   24520    1104.7319   -7886.0524   -7762.8179    803.15465    29861.073    77.782028 
   24530    1115.8871   -7887.1252   -7762.6463    470.14486    29895.376    77.886842 
   24540    1130.3228   -7888.6121   -7762.5229     127.6913    29931.045    77.996255 
   24550    1128.6807   -7888.3925   -7762.4865   -347.59238    29967.317    78.088155 
   24560    1113.1389   -7886.6971   -7762.5248   -870.63284    30003.246    78.165984 
   24570    1092.5487    -7884.489   -7762.6136   -1343.2497    30037.727     78.24646 
   24580    1094.2597   -7884.7963     -7762.73   -1727.2486    30069.726    78.325308 
   24590      1080.99   -7883.4483   -7762.8622   -1712.7381    30098.473    78.402764 
   24600    1068.2305   -7882.1638    -7763.001   -1561.1858    30123.895    78.492416 
   24610    1072.6342   -7882.7836   -7763.1297   -1349.7464    30146.262    78.603633 
   24620    1086.7466   -7884.4786   -7763.2503   -1269.2062    30165.931    78.735902 
   24630    1091.1458   -7885.1146   -7763.3956   -1142.1392    30183.089    78.868709 
   24640    1070.4099   -7882.9695   -7763.5636   -929.71226    30197.998    78.977969 
   24650    1104.2772   -7886.9473   -7763.7635   -1088.8981    30210.958    79.055821 
   24660    1107.7649   -7887.5983   -7764.0254    -873.2116    30221.798    79.119874 
   24670    1096.1098     -7886.66   -7764.3873   -733.06751    30230.849    79.188092 
   24680    1108.5249   -7888.5051   -7764.8475   -790.36337    30238.365    79.281029 
   24690    1115.7113   -7889.8872   -7765.4279   -653.92581    30244.308    79.392043 
   24700    1126.9128   -7891.8802   -7766.1714   -747.70066    30248.866    79.494923 
   24710    1121.6743   -7892.2106   -7767.0861    -922.6023     30251.87    79.582147 
   24720    1100.3507   -7890.8884   -7768.1426    -1160.364    30252.936    79.652446 
   24730    1082.4461     -7889.99   -7769.2415   -1537.8239    30251.543    79.712099 
   24740    1070.1755   -7889.6825   -7770.3028   -1890.5978    30246.892    79.779783 
   24750    1052.4599   -7888.6747   -7771.2712   -1884.0855    30238.291    79.867435 
   24760    1037.5984   -7887.8326    -7772.087    -1840.692    30225.687    79.969036 
   24770    1048.4592   -7889.7038   -7772.7466   -1895.3141    30209.137    80.060475 
   24780    1057.4394   -7891.2363   -7773.2773    -1719.242    30188.585    80.119566 
   24790    1067.3747   -7892.7745   -7773.7073   -1265.6895    30164.424     80.13837 
   24800    1077.1076   -7894.2161   -7774.0632   -863.50227    30137.548    80.130511 
   24810    1074.2114   -7894.1923   -7774.3624   -470.93546    30108.837    80.113925 
   24820    1063.2433   -7893.2263   -7774.6199   -148.42339    30079.113    80.105332 
   24830     1040.937    -7890.921   -7774.8029    49.071779    30049.071    80.118955 
   24840    1039.3962   -7890.8293   -7774.8831    195.16479    30019.164      80.1543 
   24850    1034.7422   -7890.2714   -7774.8444    479.73072    29989.738    80.190887 
   24860    1042.0833   -7890.9351   -7774.6891    760.87335    29961.373     80.21484 
   24870    1046.1421   -7891.1237    -7774.425    970.93944    29934.657    80.239897 
   24880    1054.8449   -7891.7398   -7774.0703    1100.6546    29910.032    80.274257 
   24890     1091.103   -7895.3686   -7773.6544    1081.2252    29887.747    80.304723 
   24900    1107.0001   -7896.7164   -7773.2289    1152.9694    29867.814    80.328756 
   24910     1105.509   -7896.1583   -7772.8371    1282.0015    29850.364    80.346426 
   24920    1106.1413   -7895.8603   -7772.4686      1435.01    29835.654    80.352345 
   24930    1122.8787   -7897.3959   -7772.1371    1236.2908    29823.882     80.34761 
   24940    1100.6765   -7894.6386   -7771.8564    1279.7993    29814.798    80.346833 
   24950    1088.9835   -7893.0937    -7771.616     1109.593    29808.351    80.359372 
   24960    1088.2021   -7892.7541   -7771.3636    822.40049    29804.202    80.382149 
   24970    1082.0877   -7891.8052   -7771.0967     611.9501     29801.79    80.404768 
   24980       1083.3   -7891.6552   -7770.8115    433.40376    29800.669    80.410895 
   24990     1092.409   -7892.3629    -7770.503    368.43894    29800.459    80.387688 
   25000    1093.1767   -7892.1211   -7770.1755    736.10041      29801.1    80.347052 
Loop time of 10261.3 on 16 procs for 20000 steps with 864 atoms

Performance: 0.168 ns/day, 142.518 hours/ns, 1.949 timesteps/s
97.7% CPU use with 16 MPI tasks x 1 OpenMP threads

MPI task timing breakdown:
Section |  min time  |  avg time  |  max time  |%varavg| %total
---------------------------------------------------------------
Pair    | 8820.6     | 9413.7     | 9813.4     | 270.1 | 91.74
Bond    | 0.0031037  | 0.0084877  | 0.015952   |   3.4 |  0.00
Neigh   | 0.30699    | 0.32492    | 0.33617    |   1.3 |  0.00
Comm    | 354.86     | 718.86     | 1280.5     | 950.7 |  7.01
Output  | 1.5318     | 1.5624     | 2.0056     |   9.2 |  0.02
Modify  | 65.521     | 126.48     | 166.18     | 325.6 |  1.23
Other   |            | 0.3206     |            |       |  0.00

Nlocal:        54.0000 ave          59 max          50 min
Histogram: 3 2 1 0 2 4 0 2 0 2
Nghost:        402.562 ave         422 max         378 min
Histogram: 1 0 2 1 3 3 1 1 1 3
Neighs:         0.00000 ave           0 max           0 min
Histogram: 16 0 0 0 0 0 0 0 0 0
FullNghs:      1524.75 ave        1710 max        1345 min
Histogram: 3 1 0 2 1 2 3 1 2 1

Total # of neighbors = 24396
Ave neighs/atom = 28.236111
Ave special neighs/atom = 0.0000000
Neighbor list builds = 2000
Dangerous builds = 2000
unfix   3
                
Total wall time: 3:34:18
