LAMMPS (29 Sep 2021 - Update 3)
OMP_NUM_THREADS environment is not set. Defaulting to 1 thread. (src/comm.cpp:98)
  using 1 OpenMP thread(s) per MPI task
units	metal
atom_style	full

read_data	mixed.data
Reading data file ...
  orthogonal box = (0.0000000 0.0000000 0.0000000) to (15.857269 15.758596 73.856324)
  2 by 1 by 8 MPI processor grid
  reading atoms ...
  864 atoms
Finding 1-2 1-3 1-4 neighbors ...
  special bond factors lj:    0        0        0       
  special bond factors coul:  0        0        0       
     0 = max # of 1-2 neighbors
     0 = max # of 1-3 neighbors
     0 = max # of 1-4 neighbors
     1 = max # of special neighbors
  special bonds CPU = 0.001 seconds
  read_data CPU = 0.024 seconds

pair_style	quip
pair_coeff	* * /ocean/projects/cts180021p/wuziqi/clease/mint-PD/PhaseDiagram-Clease/Liquid/GAP_potential/gap_LiKCl.xml "Potential xml_label=GAP_2021_9_27_0_1_17_37_618" 17 19 3

neighbor	0.3 bin
neigh_modify	delay 10

timestep	0.001
compute	msd all msd
thermo_style	custom step temp pe etotal press vol c_msd[4]
thermo	10
dump	1 all custom 10 xyz-mix.dump type id x y z
dump	2 all custom 10 force-mix.dump type id fx fy fz

fix     1 all nve
run     2000
Neighbor list info ...
  update every 1 steps, delay 10 steps, check yes
  max neighbors/atom: 2000, page size: 100000
  master list distance cutoff = 6.22
  ghost atom cutoff = 6.22
  binsize = 3.11, bins = 6 6 24
  1 neighbor lists, perpetual/occasional/extra = 1 0 0
  (1) pair quip, perpetual
      attributes: full, newton on
      pair build: full/bin
      stencil: full/bin/3d
      bin: standard
Per MPI rank memory allocation (min/avg/max) = 8.896 | 8.907 | 8.915 Mbytes
Step Temp PotEng TotEng Press Volume c_msd[4] 
       0            0   -6680.0933   -6680.0933   -8281.1165    18455.831            0 
      10    70.089017   -6687.9205    -6680.102   -9637.9304    18455.831 0.00053514082 
      20    180.09083   -6700.2003   -6680.1109   -11326.743    18455.831 0.0066144209 
      30    218.60542   -6704.4933   -6680.1075   -10699.378    18455.831  0.022432956 
      40    219.14865   -6704.5494    -6680.103   -8951.3193    18455.831  0.042690684 
      50    240.47609   -6706.9311   -6680.1056   -8003.5149    18455.831  0.059191698 
      60    253.66901   -6708.4039   -6680.1068    -7626.627    18455.831   0.07070925 
      70     242.9182   -6707.2018   -6680.1039   -7466.6829    18455.831  0.079364222 
      80    245.92472    -6707.537   -6680.1038   -7609.4954    18455.831  0.086633288 
      90    257.49674   -6708.8305   -6680.1063   -7851.5904    18455.831  0.095173812 
     100    252.46946   -6708.2676   -6680.1043   -7551.0395    18455.831   0.10676573 
     110    248.46405   -6707.8212   -6680.1047   -7097.6705    18455.831   0.12025968 
     120    250.68872   -6708.0687    -6680.104   -6824.8497    18455.831   0.13340609 
     130      258.818   -6708.9777   -6680.1062   -6596.3887    18455.831   0.14573975 
     140    253.60976   -6708.3953   -6680.1047   -6185.2051    18455.831   0.15889724 
     150    247.40375   -6707.7026   -6680.1043   -5947.5032    18455.831   0.17318983 
     160    248.95468   -6707.8762   -6680.1049   -5851.7986    18455.831   0.18766652 
     170    251.06346   -6708.1121   -6680.1056   -5590.4969    18455.831   0.20144657 
     180    246.23782    -6707.572   -6680.1038   -5247.2261    18455.831   0.21382042 
     190    251.48989   -6708.1586   -6680.1045   -5416.1608    18455.831   0.22371169 
     200    260.44308   -6709.1586   -6680.1058   -5793.9896    18455.831   0.23141162 
     210    257.82494   -6708.8658    -6680.105   -6133.6533    18455.831   0.23844771 
     220    250.73963   -6708.0747   -6680.1043   -6257.2025    18455.831   0.24564622 
     230    248.07271   -6707.7773   -6680.1044   -6243.0592    18455.831   0.25309034 
     240    248.93862   -6707.8742   -6680.1047   -6226.9294    18455.831   0.26091643 
     250    248.99388   -6707.8804   -6680.1047   -6334.5414    18455.831   0.26913526 
     260    251.27669   -6708.1344   -6680.1041   -6551.8246    18455.831   0.27705303 
     270    260.34527   -6709.1477   -6680.1058        -6764    18455.831   0.28421607 
     280    260.83001   -6709.2011   -6680.1051   -6639.8092    18455.831   0.29163604 
     290    256.24266   -6708.6893    -6680.105   -6449.9322    18455.831   0.29974682 
     300    250.69638     -6708.07   -6680.1044   -6471.1016    18455.831   0.30849754 
     310    250.05901    -6707.999   -6680.1046   -6562.0942    18455.831   0.31777754 
     320    252.23509   -6708.2423   -6680.1051   -6693.6464    18455.831   0.32755563 
     330    250.81469   -6708.0833   -6680.1046   -6713.8004    18455.831   0.33779883 
     340    250.65515   -6708.0657   -6680.1047     -6614.52    18455.831   0.34801692 
     350    252.94275   -6708.3202   -6680.1041   -6588.7327    18455.831   0.35730468 
     360    261.50627   -6709.2774    -6680.106   -6797.9362    18455.831   0.36504658 
     370    261.10007   -6709.2316   -6680.1055   -6831.7443    18455.831   0.37190178 
     380    253.99916   -6708.4387   -6680.1047   -6726.1215    18455.831   0.37827271 
     390    253.05009   -6708.3325   -6680.1044    -6835.806    18455.831   0.38397661 
     400    258.03703   -6708.8906   -6680.1062   -6768.7818    18455.831   0.38955387 
     410      252.036   -6708.2195   -6680.1045   -6292.4532    18455.831   0.39652014 
     420    250.52201   -6708.0507   -6680.1046   -5826.2725    18455.831   0.40500255 
     430    256.29495   -6708.6954   -6680.1053    -5546.315    18455.831    0.4145153 
     440    262.43605   -6709.3808   -6680.1057   -5439.0868    18455.831   0.42473971 
     450    264.26046   -6709.5844   -6680.1058   -5272.9671    18455.831   0.43527985 
     460    262.52327   -6709.3894   -6680.1046   -5195.9426    18455.831   0.44476232 
     470    267.68384   -6709.9661   -6680.1056   -5304.7962    18455.831   0.45177569 
     480    270.55653   -6710.2863   -6680.1053   -5291.2639    18455.831   0.45687774 
     490    270.72724   -6710.3054   -6680.1053   -5218.7322    18455.831   0.46120142 
     500    269.05227   -6710.1187   -6680.1055   -5175.8745    18455.831   0.46642946 
     510    263.94553   -6709.5489   -6680.1053   -5239.9274    18455.831   0.47407361 
     520    257.63711   -6708.8446   -6680.1048   -5291.7388    18455.831   0.48412853 
     530    257.06548   -6708.7811   -6680.1051   -5321.5334    18455.831   0.49506416 
     540    260.38526   -6709.1518   -6680.1055   -5376.0867    18455.831   0.50501047 
     550    260.91759   -6709.2118    -6680.106    -5479.615    18455.831   0.51322197 
     560    255.01677   -6708.5518   -6680.1043   -5675.0057    18455.831   0.52041437 
     570     259.1908   -6709.0183   -6680.1051   -6233.3417    18455.831    0.5272333 
     580    265.73933   -6709.7494   -6680.1058   -6810.0612    18455.831   0.53425593 
     590    267.07214   -6709.8973    -6680.105   -7271.0617    18455.831   0.54173358 
     600    270.59769   -6710.2906    -6680.105   -7669.4363    18455.831   0.54966243 
     610    275.51295   -6710.8394   -6680.1055   -7859.4286    18455.831   0.55825095 
     620    275.26386   -6710.8118   -6680.1057   -7564.3126    18455.831   0.56786247 
     630    267.62803    -6709.959   -6680.1047   -6980.9593    18455.831   0.57832835 
     640    265.09163   -6709.6761   -6680.1047   -6568.2152    18455.831   0.58820723 
     650    267.67247   -6709.9653    -6680.106    -6347.284    18455.831   0.59641333 
     660    264.01415   -6709.5562    -6680.105   -5916.0469    18455.831   0.60309646 
     670    263.52965    -6709.502   -6680.1049   -5671.0684    18455.831   0.60844331 
     680    269.00124    -6710.113   -6680.1055   -5692.2827    18455.831    0.6132683 
     690    271.45591    -6710.387   -6680.1057   -5574.8525    18455.831   0.61933075 
     700     270.0884   -6710.2336   -6680.1048   -5412.3704    18455.831   0.62727776 
     710    274.16504    -6710.689   -6680.1055   -5445.9009    18455.831   0.63604213 
     720    276.77226   -6710.9801   -6680.1057   -5459.4182    18455.831   0.64454539 
     730    275.88502   -6710.8806   -6680.1052    -5417.932    18455.831   0.65171241 
     740    275.85971   -6710.8783   -6680.1057   -5536.9233    18455.831   0.65662341 
     750    272.97993   -6710.5569   -6680.1056   -5708.1328    18455.831    0.6598394 
     760    268.28422    -6710.033   -6680.1055   -5761.8441    18455.831   0.66298993 
     770    264.14144   -6709.5705   -6680.1051   -5775.8492    18455.831   0.66717813 
     780    263.51726    -6709.501   -6680.1053   -5700.2554    18455.831   0.67265545 
     790    266.55703   -6709.8409    -6680.106    -5605.591    18455.831   0.67864068 
     800    265.59911   -6709.7343   -6680.1063   -5512.5062    18455.831   0.68325498 
     810    257.26872   -6708.8037    -6680.105    -5609.846    18455.831   0.68551207 
     820    257.02246   -6708.7759   -6680.1047   -5957.2323    18455.831   0.68532325 
     830    268.49996   -6710.0576    -6680.106   -6395.3276    18455.831   0.68384718 
     840      275.603   -6710.8497   -6680.1057   -6790.5333    18455.831   0.68323699 
     850    277.81756   -6711.0961   -6680.1052   -7039.0507    18455.831   0.68429619 
     860    281.61629     -6711.52   -6680.1053    -7112.387    18455.831   0.68675849 
     870    285.63694   -6711.9688   -6680.1055   -6936.0551    18455.831    0.6904508 
     880    286.29079   -6712.0419   -6680.1057   -6480.6542    18455.831   0.69538495 
     890    281.96956   -6711.5596   -6680.1055   -6039.8274    18455.831   0.70113257 
     900    274.65893   -6710.7442   -6680.1055     -5564.23    18455.831   0.70667182 
     910    267.20366   -6709.9114   -6680.1045   -5257.3591    18455.831   0.71136984 
     920     269.3838   -6710.1555   -6680.1053    -5367.122    18455.831   0.71512054 
     930    273.08823   -6710.5689   -6680.1055   -5720.7294    18455.831   0.71853359 
     940    275.14424   -6710.7982   -6680.1055   -5917.6904    18455.831   0.72236347 
     950    276.67291   -6710.9689   -6680.1056   -5610.0935    18455.831   0.72713733 
     960    276.62748   -6710.9635   -6680.1053   -5046.3658    18455.831   0.73337224 
     970     278.3434   -6711.1556   -6680.1059   -4610.3497    18455.831   0.74121898 
     980    276.50421   -6710.9503   -6680.1058   -4305.2609    18455.831   0.75038076 
     990    274.46428   -6710.7216   -6680.1047   -4327.9119    18455.831   0.75935205 
    1000    282.87647   -6711.6614   -6680.1061   -4696.6429    18455.831   0.76641954 
    1010    286.63377   -6712.0812   -6680.1068   -4990.2699    18455.831   0.77271728 
    1020    279.06324   -6711.2352   -6680.1053   -4771.2676    18455.831   0.78024384 
    1030    275.82234   -6710.8738   -6680.1054    -4403.339    18455.831   0.78871428 
    1040    278.66942   -6711.1919   -6680.1059   -3941.2604    18455.831   0.79675694 
    1050    279.04998   -6711.2352   -6680.1068   -3356.1301    18455.831   0.80429238 
    1060    270.39607   -6710.2685   -6680.1054   -2836.7873    18455.831   0.81167046 
    1070    268.92869   -6710.1046   -6680.1052   -2775.6081    18455.831   0.81774479 
    1080    276.86697   -6710.9921   -6680.1072   -2982.0197    18455.831   0.82183502 
    1090    273.51021   -6710.6167   -6680.1062   -3002.8881    18455.831   0.82504043 
    1100    268.10286   -6710.0129   -6680.1056    -3041.916    18455.831   0.82859974 
    1110    268.86345   -6710.0983   -6680.1061   -3274.5241    18455.831   0.83307382 
    1120    271.12867   -6710.3511   -6680.1063   -3502.0504    18455.831   0.83788345 
    1130    271.41072   -6710.3825   -6680.1063   -3567.0764    18455.831   0.84210043 
    1140    271.86949   -6710.4327   -6680.1053   -3657.0206    18455.831   0.84510588 
    1150    281.86599   -6711.5491   -6680.1065   -4076.7437    18455.831    0.8468347 
    1160    288.73127   -6712.3154    -6680.107   -4317.2032    18455.831    0.8485126 
    1170    284.72713   -6711.8682   -6680.1065   -4221.6867    18455.831   0.85124425 
    1180    277.76624   -6711.0907   -6680.1055   -3786.2546    18455.831   0.85522238 
    1190    278.42764   -6711.1658   -6680.1068   -3453.5254    18455.831   0.86063272 
    1200    274.57485   -6710.7358   -6680.1066   -3135.4804    18455.831   0.86799772 
    1210    268.17301   -6710.0207   -6680.1056   -3061.7485    18455.831   0.87596914 
    1220    269.73514   -6710.1951   -6680.1058   -3498.6687    18455.831   0.88197829 
    1230    275.57277   -6710.8475    -6680.107   -3998.6686    18455.831   0.88464671 
    1240    273.28864   -6710.5919   -6680.1062   -4275.4959    18455.831   0.88485118 
    1250    269.21341   -6710.1371    -6680.106   -4301.1389    18455.831   0.88413656 
    1260    268.47841   -6710.0549   -6680.1057   -4311.1873    18455.831   0.88296339 
    1270    272.54156   -6710.5085   -6680.1061   -4356.8217    18455.831   0.88172746 
    1280    277.77621   -6711.0926   -6680.1063   -4588.2508    18455.831   0.88180594 
    1290    280.19269   -6711.3629    -6680.107   -4852.3632    18455.831   0.88389526 
    1300    274.38994   -6710.7142   -6680.1056   -4801.0391    18455.831   0.88737003 
    1310    272.68687   -6710.5248   -6680.1062   -4600.8128    18455.831   0.89133871 
    1320    273.33879   -6710.5972   -6680.1059   -4506.2257    18455.831   0.89528436 
    1330    275.86937     -6710.88   -6680.1064   -4590.7459    18455.831   0.89889495 
    1340    276.57557   -6710.9584    -6680.106   -4592.8619    18455.831   0.90245999 
    1350    276.61512   -6710.9634   -6680.1066   -4506.7758    18455.831   0.90646299 
    1360    272.26073   -6710.4771    -6680.106   -4467.2196    18455.831   0.91136845 
    1370    268.73878   -6710.0839   -6680.1057   -4589.1112    18455.831   0.91701889 
    1380    269.83102   -6710.2061    -6680.106   -4803.1401    18455.831   0.92344131 
    1390    271.01809   -6710.3391   -6680.1066   -4995.7936    18455.831   0.93117145 
    1400    266.53417   -6709.8383   -6680.1061   -4887.7324    18455.831   0.93925395 
    1410    264.34979   -6709.5941   -6680.1054   -4661.6641    18455.831   0.94440069 
    1420    271.24246   -6710.3639   -6680.1064   -4782.1646    18455.831   0.94464645 
    1430    278.14891   -6711.1341   -6680.1062   -5345.1098    18455.831   0.94130273 
    1440    284.26073    -6711.816   -6680.1063   -5956.3496    18455.831    0.9366539 
    1450    286.06102   -6712.0176    -6680.107   -6473.9841    18455.831   0.93338269 
    1460    278.13817   -6711.1322   -6680.1055    -6637.014    18455.831   0.93336514 
    1470    274.95588   -6710.7774   -6680.1057   -6848.7234    18455.831   0.93597431 
    1480    275.34081   -6710.8209   -6680.1062   -7017.9963    18455.831   0.93943367 
    1490    271.96867   -6710.4442   -6680.1057   -6827.7136    18455.831   0.94245071 
    1500    271.43894   -6710.3851   -6680.1057   -6399.8258    18455.831   0.94456699 
    1510    273.11981   -6710.5738   -6680.1069   -5919.9683    18455.831   0.94612167 
    1520    266.58025   -6709.8431   -6680.1057   -5429.0631    18455.831   0.94681802 
    1530    264.24493   -6709.5825   -6680.1056   -5386.7007    18455.831   0.94511663 
    1540    268.14703   -6710.0187   -6680.1065   -5636.8718    18455.831   0.94138542 
    1550    270.20911    -6710.248   -6680.1058   -5845.7424    18455.831   0.93815309 
    1560    276.27553   -6710.9252   -6680.1062   -5792.6983    18455.831   0.93754478 
    1570    281.48981   -6711.5074   -6680.1068   -5440.6487    18455.831   0.94039184 
    1580    279.21915   -6711.2534    -6680.106   -4999.2991    18455.831   0.94601391 
    1590     277.1071   -6711.0177    -6680.106   -4867.2447    18455.831   0.95254979 
    1600    278.30993   -6711.1519    -6680.106   -4854.7315    18455.831   0.95811089 
    1610    283.09805   -6711.6862   -6680.1062   -4922.4033    18455.831   0.96206314 
    1620    285.07138   -6711.9077   -6680.1076   -4696.0901    18455.831   0.96577017 
    1630    273.23535   -6710.5854   -6680.1056   -4246.7962    18455.831   0.97096923 
    1640     267.7179   -6709.9697   -6680.1053   -4035.6486    18455.831     0.977191 
    1650    272.52244   -6710.5064   -6680.1061   -4111.8074    18455.831   0.98346373 
    1660     277.8589   -6711.1018   -6680.1062   -4253.7363    18455.831   0.98934697 
    1670    281.07361    -6711.461   -6680.1068   -4561.0787    18455.831   0.99446833 
    1680    278.83973   -6711.2107   -6680.1057   -4801.2753    18455.831   0.99855733 
    1690    282.27607   -6711.5942   -6680.1059   -5070.8212    18455.831    1.0013333 
    1700    288.92729   -6712.3376   -6680.1074   -5075.7299    18455.831    1.0032748 
    1710    283.97303   -6711.7838   -6680.1062   -4524.3033    18455.831    1.0056492 
    1720    280.32496   -6711.3763   -6680.1056   -4088.2037    18455.831    1.0090707 
    1730    285.00962   -6711.9005   -6680.1072   -4166.6509    18455.831    1.0129097 
    1740    281.71349    -6711.532   -6680.1064   -4428.6075    18455.831    1.0162807 
    1750    277.27178   -6711.0355   -6680.1055   -4669.9286    18455.831    1.0185587 
    1760    282.23006   -6711.5895   -6680.1063   -4723.6015    18455.831    1.0199448 
    1770    285.90961   -6712.0006   -6680.1069   -4414.9618    18455.831      1.02094 
    1780    282.38129   -6711.6061    -6680.106   -3873.7091    18455.831    1.0213084 
    1790    282.44165    -6711.613   -6680.1062   -3619.8434    18455.831    1.0208436 
    1800    287.55602   -6712.1841   -6680.1067   -3726.4708    18455.831    1.0207901 
    1810    288.11308   -6712.2473   -6680.1079    -3934.633    18455.831    1.0230701 
    1820    276.98552   -6711.0034   -6680.1052    -4186.202    18455.831    1.0283135 
    1830    277.15263   -6711.0235   -6680.1067   -4345.9838    18455.831    1.0350393 
    1840    276.23823   -6710.9215   -6680.1067   -4368.7653    18455.831    1.0414724 
    1850    273.19513   -6710.5804   -6680.1051   -4416.5455    18455.831    1.0455768 
    1860    283.83055   -6711.7684   -6680.1067   -4696.8368    18455.831    1.0462471 
    1870    291.37755   -6712.6113   -6680.1077   -4729.2468    18455.831    1.0448258 
    1880    283.33807   -6711.7134   -6680.1066   -4658.1696    18455.831    1.0428769 
    1890    273.10669    -6710.571   -6680.1055   -4806.2478    18455.831     1.040683 
    1900    272.25017   -6710.4761   -6680.1062   -4992.1727    18455.831    1.0384095 
    1910    274.11365   -6710.6842   -6680.1065    -4851.611    18455.831    1.0367748 
    1920     274.3815    -6710.714   -6680.1064   -4374.9654    18455.831    1.0362621 
    1930    273.80361   -6710.6496   -6680.1064   -3953.3671    18455.831    1.0369737 
    1940    273.81216   -6710.6506   -6680.1064   -3660.7249    18455.831     1.038631 
    1950     274.0972   -6710.6826   -6680.1067   -3555.6748    18455.831    1.0408007 
    1960     275.1804   -6710.8028    -6680.106   -3995.0323    18455.831    1.0431217 
    1970    281.99645   -6711.5638   -6680.1067   -4818.7611    18455.831    1.0450424 
    1980     287.0536   -6712.1285   -6680.1072   -5430.2829    18455.831    1.0464652 
    1990    282.90097   -6711.6645   -6680.1064   -5324.8363    18455.831    1.0478613 
    2000    278.29624   -6711.1501   -6680.1058   -5003.2499    18455.831    1.0492005 
Loop time of 1541.31 on 16 procs for 2000 steps with 864 atoms

Performance: 0.112 ns/day, 214.070 hours/ns, 1.298 timesteps/s
97.2% CPU use with 16 MPI tasks x 1 OpenMP threads

MPI task timing breakdown:
Section |  min time  |  avg time  |  max time  |%varavg| %total
---------------------------------------------------------------
Pair    | 711.01     | 1180.4     | 1540.7     | 577.7 | 76.58
Bond    | 0.00016665 | 0.00042789 | 0.00090909 |   0.0 |  0.00
Neigh   | 0.018834   | 0.030288   | 0.049679   |   3.9 |  0.00
Comm    | 0.34381    | 322.98     | 791.81     |1044.7 | 20.95
Output  | 0.1458     | 22.562     | 55.89      | 442.6 |  1.46
Modify  | 0.0095737  | 0.011551   | 0.015535   |   1.4 |  0.00
Other   |            | 15.37      |            |       |  1.00

Nlocal:        54.0000 ave          86 max          35 min
Histogram: 1 1 3 7 2 1 0 0 0 1
Nghost:        537.750 ave         662 max         448 min
Histogram: 3 1 1 5 0 0 3 1 1 1
Neighs:         0.00000 ave           0 max           0 min
Histogram: 16 0 0 0 0 0 0 0 0 0
FullNghs:      2646.75 ave        5387 max        1216 min
Histogram: 2 2 3 4 3 1 0 0 0 1

Total # of neighbors = 42348
Ave neighs/atom = 49.013889
Ave special neighs/atom = 0.0000000
Neighbor list builds = 199
Dangerous builds = 198
unfix   1

velocity    all create 975.0 1312343 dist gaussian
fix     2 all npt temp 975.0 975.0 $(100.0*dt) aniso 0.0 1.01325 $(1000.0*dt)
fix     2 all npt temp 975.0 975.0 0.10000000000000000555 aniso 0.0 1.01325 $(1000.0*dt)
fix     2 all npt temp 975.0 975.0 0.10000000000000000555 aniso 0.0 1.01325 1
run     3000
Per MPI rank memory allocation (min/avg/max) = 8.897 | 8.909 | 8.917 Mbytes
Step Temp PotEng TotEng Press Volume c_msd[4] 
    2000          975   -6711.1501   -6602.3874   -505.35728    18455.831    1.0492005 
    2010    848.14362   -6696.9582   -6602.3465    2463.4639    18455.838    1.0577771 
    2020    671.73032   -6677.0331   -6602.1005    6353.3579    18458.056    1.0772581 
    2030     626.1143   -6671.3506   -6601.5066    6816.3407    18465.577    1.0953408 
    2040    599.71949   -6667.3984   -6600.4988    6053.3114    18479.022    1.1135721 
    2050    573.60745   -6663.2691   -6599.2824    5497.2357     18497.86    1.1325148 
    2060    586.60865   -6663.5354   -6598.0983    4530.0754    18521.553      1.15045 
    2070    608.36876   -6664.8748   -6597.0103     3944.431    18549.345     1.168992 
    2080    626.61705   -6665.8447   -6595.9446    3587.4283    18580.711    1.1888918 
    2090    629.81287   -6665.0426   -6594.7861    2932.9109    18615.306    1.2085534 
    2100     645.0672   -6665.4405   -6593.4823    1598.9524    18652.518    1.2268597 
    2110    683.07231    -6668.175   -6591.9772   -382.20859    18691.123    1.2459779 
    2120     686.5034   -6666.9252   -6590.3447    -996.8849    18729.477    1.2688089 
    2130    645.46047   -6660.7383   -6588.7363   -91.237014    18767.005    1.2948364 
    2140    645.37994   -6659.1447   -6587.1516    244.53676    18804.315    1.3195496 
    2150    657.62945     -6658.84   -6585.4805   -389.68029    18841.658    1.3419404 
    2160     658.4339    -6657.199   -6583.7498   -1451.6049    18878.458    1.3630479 
    2170    677.71694   -6657.5663   -6581.9659   -2185.8639    18913.778     1.383675 
    2180    694.93595   -6657.6358   -6580.1147     -2445.42     18946.92    1.4048817 
    2190    686.22661   -6654.8091   -6578.2594    -2205.805     18977.64    1.4269272 
    2200    685.61589   -6652.8989   -6576.4174   -2043.1722    19006.108    1.4485806 
    2210    701.85204   -6652.8253   -6574.5326   -2376.4915    19032.428     1.468765 
    2220    705.20267   -6651.2767   -6572.6103   -2572.1426    19056.353    1.4872381 
    2230    700.86567   -6648.8702   -6570.6875   -2947.5162    19077.664     1.503406 
    2240     695.0548   -6646.2965   -6568.7621   -3489.3567    19096.035    1.5168576 
    2250    711.70072   -6646.2045   -6566.8132   -3950.3482    19110.993    1.5269227 
    2260    725.37387   -6645.7345   -6564.8179   -3965.0007    19122.153     1.534361 
    2270    735.42425   -6644.8602   -6562.8225   -3632.0163    19129.527    1.5395375 
    2280    763.89387   -6646.0161   -6560.8026   -3182.0768    19133.443    1.5428091 
    2290    773.67024   -6645.0686   -6558.7645     -2369.51    19134.372    1.5469368 
    2300    763.30941   -6641.9097   -6556.7614   -1535.2972    19133.076    1.5522969 
    2310    776.23325   -6641.3587   -6554.7688   -1492.9152    19130.284    1.5557896 
    2320    807.58129   -6642.8153   -6552.7284   -1892.6265    19126.071    1.5570227 
    2330    812.15249   -6641.2855   -6550.6886   -1850.0235    19120.168    1.5593614 
    2340    801.65896   -6638.1217   -6548.6954    -1592.812    19112.616    1.5646402 
    2350    825.47604   -6638.7894   -6546.7063   -1664.6057      19103.6    1.5724199 
    2360    841.30228   -6638.5296    -6544.681   -1302.3377    19093.149    1.5841557 
    2370    825.52334   -6634.7809   -6542.6925   -721.88642    19081.566     1.598173 
    2380    819.28281   -6632.1319   -6540.7397    196.06019     19069.45    1.6091512 
    2390    835.05606   -6631.9124   -6538.7607    471.50161    19057.569    1.6149959 
    2400    862.11183   -6632.9142   -6536.7443    103.78611    19046.173    1.6205374 
    2410    869.73416   -6631.7576   -6534.7374    65.134568        19035    1.6311604 
    2420     864.2936   -6629.1929   -6532.7796    484.91614    19024.006    1.6485078 
    2430    874.33971   -6628.3851   -6530.8512    976.47487    19013.553    1.6724865 
    2440    887.92729   -6627.9712   -6528.9215    1268.1658    19004.058    1.7009942 
    2450    887.97926   -6626.0788   -6527.0234    1888.2298    18995.867    1.7289558 
    2460    912.41555   -6626.9327   -6525.1514    1771.8829    18989.419    1.7519759 
    2470    929.66736   -6626.9934   -6523.2876    1965.7149    18984.698    1.7711382 
    2480     945.6685   -6626.9672   -6521.4764    2279.7288    18981.832    1.7875246 
    2490    944.99565   -6625.1518   -6519.7361    2598.5637      18981.1    1.8015903 
    2500     935.4934   -6622.4204   -6518.0647    3035.2598    18982.795    1.8128305 
    2510    950.73069    -6622.494   -6516.4385    3422.3479    18987.296    1.8216496 
    2520    961.08667   -6622.0595   -6514.8488    3785.2073    18994.948    1.8336387 
    2530    955.49085   -6619.9257   -6513.3392    4290.1328    19006.077    1.8521269 
    2540      978.675   -6621.0673   -6511.8946    4318.2843    19021.077     1.874621 
    2550    989.53069   -6620.8916    -6510.508    4543.2374    19040.047    1.9006425 
    2560     1004.008   -6621.2205   -6509.2219     4152.546    19063.078    1.9309214 
    2570    995.55713   -6619.0959     -6508.04    3357.6375    19089.812    1.9632647 
    2580     983.5843   -6616.6799   -6506.9596    2884.7566    19119.562    1.9950927 
    2590    970.80592   -6614.2356   -6505.9407      2413.11    19151.829    2.0243605 
    2600     987.5828   -6615.1038   -6504.9375    1203.3203    19186.054    2.0478478 
    2610    998.59136   -6615.3345   -6503.9401    265.91096    19221.179    2.0701795 
    2620    978.04473   -6612.1073   -6503.0049    36.263647    19256.305     2.100417 
    2630    937.33024   -6606.6828   -6502.1222     849.2214    19291.241     2.139269 
    2640    928.69221   -6604.8314   -6501.2344    1280.7872    19326.612    2.1803967 
    2650    959.63165   -6607.3126   -6500.2642    996.53409    19362.795    2.2205981 
    2660    971.00294   -6607.5646   -6499.2478    936.30305    19399.551    2.2640008 
    2670     960.4411   -6605.3885   -6498.2499    1223.3194    19436.797    2.3088307 
    2680    953.30743    -6603.606   -6497.2631    1124.4732    19474.737    2.3499972 
    2690     972.8347   -6604.7606   -6496.2394    -77.12435    19513.157    2.3832553 
    2700    1002.4129    -6607.001   -6495.1803    -1320.322    19550.948    2.4091768 
    2710    1005.0951   -6606.2867   -6494.1668   -1510.1679    19586.966    2.4331846 
    2720    994.29733   -6604.1697   -6493.2543   -1356.1687    19620.929      2.45971 
    2730    979.47035   -6601.6739   -6492.4125   -1264.0449    19652.969    2.4899061 
    2740    984.26163    -6601.403   -6491.6071   -1756.4954    19683.148    2.5220145 
    2750    999.55624   -6602.3134   -6490.8114   -2663.2104    19710.997     2.554901 
    2760    959.08222   -6597.0406   -6490.0535   -3281.5475    19735.703    2.5911051 
    2770    933.42983   -6593.4271   -6489.3016   -4184.6805    19756.643    2.6290485 
    2780     953.1826   -6594.8099    -6488.481    -4848.701    19773.026    2.6670419 
    2790    980.91364   -6597.0367   -6487.6143   -4477.7826    19784.336    2.7061463 
    2800      981.167   -6596.2168   -6486.7661   -3346.8383    19791.018    2.7458201 
    2810    979.91054   -6595.2708   -6485.9603   -2507.1435    19794.209     2.780955 
    2820    998.76466   -6596.6046   -6485.1909   -2610.7965    19794.744    2.8072844 
    2830    998.83668   -6595.8889   -6484.4672   -2940.6502    19792.637    2.8286709 
    2840    1008.6422   -6596.3353   -6483.8197   -3270.6076    19787.615     2.849509 
    2850    1019.2932   -6596.9552   -6483.2515   -2686.3252    19779.522    2.8711868 
    2860    1006.9116      -6595.1   -6482.7775   -1795.1528    19768.935    2.8955206 
    2870    985.89564   -6592.3522   -6482.3741   -938.67283    19756.787    2.9254904 
    2880    1005.5639   -6594.1826   -6482.0104    -1077.497    19743.847    2.9610431 
    2890    1025.7685   -6596.1304   -6481.7043   -832.18032    19730.137    2.9990709 
    2900    1023.7599   -6595.7027   -6481.5007    140.87657    19715.944    3.0383302 
    2910    1014.1349   -6594.5276   -6481.3994    794.11224     19702.15    3.0793216 
    2920     1003.104   -6593.2971   -6481.3994    1301.2425    19689.409    3.1206816 
    2930    977.13428   -6590.4548    -6481.454    1234.5966    19678.154    3.1579919 
    2940    996.39195   -6592.6871   -6481.5381    637.82385    19668.309    3.1903968 
    2950    1010.6652   -6594.4111   -6481.6699    503.05032    19659.329    3.2236358 
    2960    1016.1783   -6595.2347   -6481.8785    1139.1717    19651.082    3.2591689 
    2970    1025.3945   -6596.5758   -6482.1915    1849.5987    19644.115    3.2949308 
    2980    1008.3317   -6595.0717   -6482.5908    2098.8082     19639.07    3.3261549 
    2990    1028.1837   -6597.7915   -6483.0961    1500.0539    19636.119    3.3490307 
    3000    1026.6631   -6598.2499   -6483.7241    770.96142    19634.686    3.3714472 
    3010    1005.8209   -6596.6559   -6484.4551    690.39319    19634.096    3.4005456 
    3020    990.23119   -6595.7063   -6485.2445    842.21347    19634.204    3.4378311 
    3030    955.54563   -6592.6151   -6486.0225    999.90898    19635.154    3.4815726 
    3040    966.68173   -6594.5875   -6486.7527   -79.655088    19636.969    3.5228676 
    3050    989.10959   -6597.8105   -6487.4739   -876.82254    19638.716    3.5547135 
    3060    997.98073   -6599.5533   -6488.2271   -356.76843    19639.686    3.5777352 
    3070     979.3831   -6598.2699   -6489.0182     1139.389    19640.382    3.5997066 
    3080    944.93762   -6595.1847   -6489.7755    2433.1562    19642.189    3.6302637 
    3090    940.31364   -6595.3581   -6490.4647     2346.289    19646.252    3.6684107 
    3100    928.95139    -6594.678    -6491.052    1747.0177    19652.551    3.7060811 
    3110    937.47441   -6596.1289   -6491.5522    1115.1328    19660.496    3.7393836 
    3120    924.16742   -6595.0447   -6491.9524    1231.2074    19669.538    3.7679458 
    3130    942.14696    -6597.358   -6492.2601    678.30457    19679.631    3.7912048 
    3140    958.07022   -6599.3733   -6492.4991   -152.27059    19690.268    3.8148194 
    3150     939.3056   -6597.4637   -6492.6827   -646.97134     19700.67    3.8438066 
    3160    926.91839   -6596.1876   -6492.7884   -1094.9015    19710.338    3.8791971 
    3170    931.94183   -6596.7548   -6492.7953   -1640.5069    19718.794    3.9204009 
    3180    942.53099   -6597.8481   -6492.7073    -1722.098     19725.57    3.9629569 
    3190    953.59372   -6598.9308    -6492.556   -1465.0701    19730.604    4.0007169 
    3200    942.11634   -6597.4423   -6492.3478   -1135.3742    19734.147    4.0321926 
    3210    937.95891   -6596.7146   -6492.0839    -1412.194    19736.464    4.0585571 
    3220    948.97238   -6597.5993     -6491.74   -1901.5033    19737.353      4.08222 
    3230    966.83695   -6599.1949   -6491.3428   -2244.8274     19736.35    4.1062785 
    3240    966.90398   -6598.7669   -6490.9073   -2412.9238    19733.143    4.1280959 
    3250    995.37243   -6601.5044   -6490.4692   -2950.4197    19727.509    4.1471808 
    3260    981.68935   -6599.5668   -6490.0578    -2736.874     19719.06    4.1699017 
    3270    962.48976   -6597.0424   -6489.6752     -2338.57    19707.965    4.1922999 
    3280     960.9864   -6596.4784   -6489.2789   -1811.8263     19694.64    4.2068831 
    3290    971.31655   -6597.2014   -6488.8495   -1204.9669    19679.625    4.2134262 
    3300    977.87133   -6597.4804   -6488.3974   -892.44513    19663.494    4.2183306 
    3310     981.3731   -6597.4261   -6487.9525   -463.13004    19646.615    4.2307604 
    3320    971.23693   -6595.8495   -6487.5066     256.5563    19629.464    4.2540186 
    3330    971.61197   -6595.4381   -6487.0534      201.127    19612.635    4.2870535 
    3340      988.918   -6596.9183    -6486.603    48.174934     19596.12    4.3260715 
    3350    988.84099   -6596.4684   -6486.1617    815.18884    19579.895    4.3659142 
    3360    982.32655   -6595.3361    -6485.756    1677.4134    19564.606    4.4040577 
    3370    966.12791   -6593.1374   -6485.3644    2205.2963    19551.062    4.4399195 
    3380    976.83276   -6593.9275   -6484.9604    1722.3384    19539.697    4.4721247 
    3390    1000.3802    -6596.149   -6484.5551    1069.1554    19530.111    4.4991328 
    3400    1029.1224   -6599.0059   -6484.2057    614.85093    19521.664    4.5226352 
    3410    1030.4796   -6598.9234   -6483.9719    1112.3868    19513.978     4.550244 
    3420    999.01766   -6595.3098   -6483.8679    2080.1158    19507.467    4.5839509 
    3430    977.04889   -6592.8122   -6483.8209    2206.7862    19502.967    4.6232339 
    3440    995.07574   -6594.7919   -6483.7897    1709.9376    19500.609    4.6691274 
    3450    983.46727   -6593.4965   -6483.7892    2082.7728    19500.015    4.7221984 
    3460    973.46877   -6592.4077   -6483.8158    2418.4449    19501.443    4.7731348 
    3470    983.26596   -6593.5403   -6483.8555    2300.5144    19505.205    4.8136068 
    3480    990.88287   -6594.4499   -6483.9154    1609.2816    19511.136       4.8416 
    3490    955.83194   -6590.6121   -6483.9876    1417.2827    19518.672    4.8587602 
    3500    954.70701   -6590.5285   -6484.0295    717.81083    19527.506    4.8669655 
    3510     965.6276   -6591.7389   -6484.0217    661.67594    19537.071    4.8719111 
    3520    959.89654   -6591.0525   -6483.9746    1381.6779     19547.31    4.8804968 
    3530     996.9495   -6595.1271   -6483.9159     1786.234    19558.823    4.8941163 
    3540    1007.5367   -6596.2832    -6483.891    2093.5018    19572.037    4.9181577 
    3550    1010.6722    -6596.687    -6483.945    1716.5413    19587.166    4.9545752 
    3560    1003.2606    -6595.993   -6484.0778    1297.6531    19603.916       4.9955 
    3570    982.62023   -6593.8812   -6484.2684    1120.3677    19621.906    5.0293792 
    3580    965.84678   -6592.2203   -6484.4786    591.60541    19640.893     5.053262 
    3590    959.30129   -6591.6789   -6484.6674   -183.26764    19660.362     5.070385 
    3600    976.44054   -6593.7483   -6484.8249   -1010.2592    19679.551    5.0854819 
    3610    994.08524   -6595.8731   -6484.9814   -1551.4973    19697.682    5.1017738 
    3620    1000.5468   -6596.7947   -6485.1822   -1384.8189     19714.26    5.1214875 
    3630    1000.2801   -6597.0285   -6485.4457   -1234.4237    19729.371    5.1469681 
    3640    1011.9003   -6598.6513   -6485.7723   -1660.1549    19743.137    5.1740201 
    3650    1024.2199   -6600.4544   -6486.2012   -2189.9756    19755.174    5.1998561 
    3660    983.13247   -6596.3827   -6486.7128   -1811.2266    19765.063     5.227688 
    3670    954.39201   -6593.7019    -6487.238    -1355.101    19773.092    5.2524346 
    3680    947.59369   -6593.4249   -6487.7194   -1188.8473    19779.701    5.2697815 
    3690    966.16506   -6595.9271   -6488.1499   -1411.0217    19785.051    5.2835973 
    3700    982.45186   -6598.1658   -6488.5718   -1487.9953    19788.972    5.3033415 
    3710    981.66418   -6598.5102    -6489.004   -1576.4229    19791.395    5.3380442 
    3720    992.88006   -6600.2275   -6489.4702   -1925.5014    19792.202    5.3789147 
    3730    967.05491    -6597.841   -6489.9646   -1614.3109    19791.129    5.4134701 
    3740     928.7929   -6594.0318   -6490.4235   -924.09599     19788.48    5.4396653 
    3750    934.44975   -6595.0324   -6490.7931   -945.00638    19784.835    5.4607423 
    3760    953.84899   -6597.4884   -6491.0852   -1265.5251    19780.233    5.4772645 
    3770    955.76065   -6597.9459   -6491.3294   -1360.4419    19774.412    5.4873192 
    3780    952.58792   -6597.7894   -6491.5268   -1589.1324    19767.235    5.4959326 
    3790    955.05045   -6598.2094   -6491.6721   -1446.6811    19758.525    5.5078473 
    3800    964.94059   -6599.4149   -6491.7743   -1194.7425    19748.388    5.5257741 
    3810    964.65595   -6599.4524   -6491.8436   -1207.6421    19737.075     5.552199 
    3820    967.45273   -6599.8227   -6491.9019   -1377.4164    19724.567    5.5833482 
    3830    945.15567   -6597.3528   -6491.9193   -760.19355    19710.813    5.6095484 
    3840    958.24369   -6598.7895   -6491.8959   -535.80053    19696.299    5.6238104 
    3850    972.07682   -6600.2558   -6491.8191   -138.24531    19681.359     5.628991 
    3860    985.91322   -6601.7225   -6491.7424    21.466879    19666.318    5.6308253 
    3870    977.35159   -6600.7055   -6491.6804    199.78507    19651.367    5.6318239 
    3880    961.47126   -6598.8767   -6491.6231    457.49396    19636.721    5.6300631 
    3890    971.52092   -6599.9292   -6491.5546    246.65261    19622.568    5.6282258 
    3900    982.19676   -6601.0419   -6491.4763    83.896731    19608.749    5.6358754 
    3910    977.63444   -6600.4715   -6491.4149    195.89374     19595.11    5.6558052 
    3920    974.81269   -6600.1023   -6491.3605    895.54679     19581.81    5.6803629 
    3930    981.29986   -6600.7654   -6491.2999     1594.624    19569.479    5.7040552 
    3940    989.29889   -6601.6023   -6491.2445    1848.4708    19558.753    5.7259718 
    3950    989.66481   -6601.6103   -6491.2117    2241.2743    19549.946    5.7381049 
    3960    978.54701   -6600.3606   -6491.2022    2490.0394    19543.379     5.736029 
    3970    986.42633    -6601.248   -6491.2107    2424.2361    19539.267    5.7269634 
    3980     969.2228   -6599.3478   -6491.2295    3105.1827    19537.642    5.7221736 
    3990    962.54514   -6598.6202   -6491.2468     3596.227     19539.06    5.7298118 
    4000    973.17083   -6599.8096    -6491.251    3346.5654    19543.942     5.754807 
    4010    972.90235   -6599.7765   -6491.2478     3082.344    19552.069    5.7926298 
    4020     983.9765    -6601.008   -6491.2439    2791.7304    19563.174    5.8334974 
    4030    985.05384   -6601.1395   -6491.2553    2171.9629    19576.898    5.8721541 
    4040    985.42062   -6601.2151   -6491.2899    2094.9714    19592.733    5.9036651 
    4050     980.5581   -6600.7302   -6491.3475    1749.3164    19610.467    5.9317209 
    4060    963.63547    -6598.913    -6491.418    1723.1543    19629.833    5.9627855 
    4070    970.97192   -6599.7966   -6491.4832    1049.9919    19650.662    5.9976926 
    4080    965.14877   -6599.1975   -6491.5337    515.85955     19672.38    6.0380464 
    4090    946.03627   -6597.0917   -6491.5599    83.911374    19694.425    6.0837629 
    4100     935.2499   -6595.8554   -6491.5269   -342.26384    19716.343    6.1268604 
    4110     961.9398   -6598.6964   -6491.3905   -1122.4468    19737.671    6.1609016 
    4120    994.08943   -6602.1087   -6491.2165   -1952.9271    19757.635    6.1942711 
    4130    973.49219   -6599.6555    -6491.061   -1828.6287    19775.533    6.2352978 
    4140    947.03555   -6596.5701   -6490.9269   -1533.4254    19791.424    6.2854614 
    4150    922.26426   -6593.6082   -6490.7282   -1787.2125    19805.545    6.3414575 
    4160    937.57059   -6594.9982   -6490.4108   -2580.2109    19817.644    6.3949699 
    4170    942.86036   -6595.1538   -6489.9763   -2598.3981    19827.067    6.4434238 
    4180     933.6492   -6593.6195   -6489.4695   -2431.3706    19833.761    6.4870318 
    4190    952.10367   -6595.0918   -6488.8832   -2699.0783    19837.884    6.5262085 
    4200    968.56652   -6596.2813   -6488.2363   -2853.3247    19839.253    6.5633215 
    4210    981.72127   -6597.0906   -6487.5781   -2814.0895    19837.753    6.6009745 
    4220    980.96915   -6596.3665   -6486.9379   -3158.3003    19833.401     6.638243 
    4230    977.76595   -6595.4152   -6486.3439   -3164.4092    19825.959    6.6701023 
    4240    944.39473   -6591.1231   -6485.7744   -2012.3175    19815.565    6.6935714 
    4250    948.33566    -6590.975   -6485.1867   -1079.0079    19803.275    6.7081311 
    4260    952.33298   -6590.7642     -6484.53   -475.38885    19790.079    6.7224804 
    4270    995.87224   -6594.9288   -6483.8378   -987.07594    19776.493    6.7475761 
    4280     1010.761   -6595.9328   -6483.1808   -1104.8691    19762.151      6.79159 
    4290    973.24223   -6591.1841   -6482.6174   -401.14043    19746.981     6.852665 
    4300    967.87324   -6590.0688   -6482.1011    -243.0619    19731.576     6.918019 
    4310    984.46583   -6591.4027    -6481.584    -274.9762    19716.143    6.9737235 
    4320    987.02771   -6591.1903   -6481.0859    171.10854    19700.703    7.0159478 
    4330    974.91235   -6589.3696   -6480.6167    846.62824    19685.671    7.0473144 
    4340    960.79744   -6587.3315   -6480.1531    1675.9792    19671.705    7.0707233 
    4350    944.01601   -6584.9636   -6479.6572     2628.514    19659.629    7.0900587 
    4360    975.61688   -6587.9519   -6479.1204    2558.1186     19650.21    7.1078168 
    4370    984.31887   -6588.3791   -6478.5769    2623.8521     19643.44    7.1267839 
    4380    954.60071   -6584.5517   -6478.0645    3411.0341    19639.426    7.1457429 
    4390    970.50003   -6585.8123   -6477.5516    3319.1531    19638.758    7.1549117 
    4400    1019.9554   -6590.8139   -6477.0364    2306.6316    19641.301    7.1507034 
    4410    1036.7274     -6592.24   -6476.5915     1653.808    19646.155    7.1451928 
    4420     1018.357   -6589.8966   -6476.2974    1199.8308    19652.629    7.1493331 
    4430    998.59336   -6587.5033   -6476.1088     252.7531    19660.186    7.1638228 
    4440    1003.1679     -6587.89   -6475.9852   -463.20927    19667.961    7.1865381 
    4450    1005.0538   -6588.0302    -6475.915   -330.79511    19675.297    7.2197959 
    4460    1003.6674   -6587.8702   -6475.9096   -75.271314    19682.255    7.2614327 
    4470    1012.7884   -6588.9609   -6475.9828    -9.137911    19689.062    7.3046546 
    4480    1000.4847   -6587.7353   -6476.1297    531.05542    19695.872    7.3459284 
    4490    1008.8469   -6588.8887   -6476.3503    683.91406    19703.116    7.3772539 
    4500    1035.5847   -6592.1956   -6476.6746    584.78429    19710.969    7.3959549 
    4510    1045.3738   -6593.7732   -6477.1602    539.69056    19719.363    7.4128559 
    4520    1022.7705   -6591.9132   -6477.8216    562.17229    19728.239    7.4389988 
    4530    991.69671   -6589.2044   -6478.5791    555.86973    19737.612    7.4710634 
    4540    984.48638   -6589.1868   -6479.3658    448.68688    19747.489    7.5015337 
    4550     991.1892   -6590.7292   -6480.1605    -306.0774    19757.694    7.5280062 
    4560    1000.0979    -6592.516   -6480.9536   -1044.5081    19767.545    7.5528818 
    4570    991.19382   -6592.3091   -6481.7399   -1598.4648    19776.315    7.5834931 
    4580    962.93384   -6589.8873   -6482.4705   -2195.7751    19783.439    7.6162331 
    4590    976.34357   -6592.0507   -6483.1382   -2662.1266    19788.316    7.6388941 
    4600    976.49371   -6592.6672   -6483.7379    -2019.458    19790.596    7.6523818 
    4610    985.60399   -6594.2307   -6484.2851    -1324.619    19790.834    7.6668992 
    4620    993.03635    -6595.582   -6484.8073   -694.49072    19789.741    7.6947875 
    4630    970.28534   -6593.5339   -6485.2971   -82.564441    19787.976     7.738122 
    4640    965.97757    -6593.493   -6485.7367   -388.77482    19786.057    7.7777564 
    4650    977.93093   -6595.2176   -6486.1279   -685.04141    19783.772    7.8019237 
    4660     971.6765   -6594.8859   -6486.4939   -226.60693    19780.877    7.8184582 
    4670    952.09466   -6593.0187   -6486.8111    276.07632    19777.781    7.8377844 
    4680     959.1095   -6594.0553   -6487.0651    197.73587    19774.931    7.8603421 
    4690     954.1523   -6593.6997   -6487.2626    476.70713    19772.337    7.8833545 
    4700    952.06718    -6593.603   -6487.3985    512.94177    19770.198    7.9042855 
    4710    968.45018   -6595.5054   -6487.4733    376.69336    19768.577    7.9265699 
    4720     979.8758   -6596.8366     -6487.53    231.91106     19767.35    7.9533585 
    4730    979.92001   -6596.9139   -6487.6023    108.48764    19766.375    7.9834137 
    4740    982.22726   -6597.2642   -6487.6952   -207.30978    19765.501    8.0141254 
    4750    984.06861   -6597.5743   -6487.7999   -567.58813     19764.43    8.0476819 
    4760    971.80397   -6596.3219   -6487.9157   -283.11768    19762.886    8.0854568 
    4770    964.86578   -6595.6592    -6488.027   -35.799988    19761.071    8.1201133 
    4780    987.67433   -6598.3132   -6488.1367   -180.28472    19759.203    8.1426113 
    4790    997.08767   -6599.5085   -6488.2818   -354.85141    19757.169    8.1493759 
    4800    985.88583   -6598.4545   -6488.4774   -434.17463    19754.804    8.1449307 
    4810     984.1815   -6598.5065   -6488.7196   -162.08389     19752.05    8.1422664 
    4820    984.47919   -6598.8184   -6488.9983    430.85436    19749.174    8.1470926 
    4830    984.17851     -6599.11   -6489.3234     603.3412    19746.707    8.1615107 
    4840    969.08473   -6597.7991   -6489.6963    222.83795    19744.806    8.1891006 
    4850    959.80382    -6597.161   -6490.0935    5.4384216    19743.156    8.2305798 
    4860    949.85375   -6596.4518   -6490.4942    409.70329    19741.574    8.2779347 
    4870    941.66384   -6595.9247   -6490.8807    1016.2681     19740.42    8.3131385 
    4880    958.29886   -6598.1609   -6491.2612    1139.3091    19740.231    8.3320622 
    4890    963.66011   -6599.1546   -6491.6569    1173.3929    19741.195     8.348751 
    4900    955.94918   -6598.7178   -6492.0802    641.65562    19743.292    8.3705724 
    4910    954.78733   -6599.0365   -6492.5286    109.18692    19746.042      8.39582 
    4920    947.18279   -6598.6559   -6492.9962   -279.11375    19748.918    8.4217277 
    4930     932.2691   -6597.4653   -6493.4693   -861.92763    19751.495      8.44484 
    4940    918.22902   -6596.3366   -6493.9068   -1216.1042    19753.231    8.4642785 
    4950    926.60629    -6597.655   -6494.2907   -1025.7487    19753.803    8.4841891 
    4960    930.05661   -6598.3743    -6494.625    -847.4084    19753.345    8.5112954 
    4970     924.8392   -6598.0667   -6494.8995   -565.25173    19752.069    8.5436462 
    4980    933.36568   -6599.2222   -6495.1038   -555.48611    19750.196    8.5821428 
    4990    943.61779   -6600.5126   -6495.2506   -716.57345     19747.76    8.6265265 
    5000    932.48708   -6599.3565   -6495.3362   -1094.7655    19744.597    8.6672776 
Loop time of 2496.05 on 16 procs for 3000 steps with 864 atoms

Performance: 0.104 ns/day, 231.116 hours/ns, 1.202 timesteps/s
97.4% CPU use with 16 MPI tasks x 1 OpenMP threads

MPI task timing breakdown:
Section |  min time  |  avg time  |  max time  |%varavg| %total
---------------------------------------------------------------
Pair    | 1715.1     | 2164.5     | 2465.3     | 483.1 | 86.72
Bond    | 0.00026035 | 0.00062214 | 0.0011871  |   0.0 |  0.00
Neigh   | 0.035708   | 0.043991   | 0.056259   |   2.9 |  0.00
Comm    | 29.915     | 271.88     | 704.29     |1283.2 | 10.89
Output  | 0.20151    | 0.20655    | 0.2797     |   4.2 |  0.01
Modify  | 0.54882    | 59.445     | 115.49     | 640.8 |  2.38
Other   |            | 0.01534    |            |       |  0.00

Nlocal:        54.0000 ave          65 max          45 min
Histogram: 1 2 3 0 2 3 1 3 0 1
Nghost:        520.125 ave         603 max         464 min
Histogram: 2 2 2 4 2 1 1 0 0 2
Neighs:         0.00000 ave           0 max           0 min
Histogram: 16 0 0 0 0 0 0 0 0 0
FullNghs:      2369.25 ave        3216 max        1645 min
Histogram: 1 3 2 1 3 1 1 2 0 2

Total # of neighbors = 37908
Ave neighs/atom = 43.875000
Ave special neighs/atom = 0.0000000
Neighbor list builds = 300
Dangerous builds = 300
unfix   2

fix     3 all npt temp 975.0 975.0 $(100.0*dt) aniso 1.01325 1.01325 $(1000.0*dt)
fix     3 all npt temp 975.0 975.0 0.10000000000000000555 aniso 1.01325 1.01325 $(1000.0*dt)
fix     3 all npt temp 975.0 975.0 0.10000000000000000555 aniso 1.01325 1.01325 1
run     20000
Per MPI rank memory allocation (min/avg/max) = 8.901 | 8.910 | 8.917 Mbytes
Step Temp PotEng TotEng Press Volume c_msd[4] 
    5000    932.48708   -6599.3565   -6495.3362   -1094.7655    19744.597    8.6672776 
    5010    927.54413   -6598.7583   -6495.2893   -2138.7311    19743.896    8.7018792 
    5020    927.51028   -6598.6104   -6495.1452   -2651.7888    19741.103    8.7339299 
    5030    932.47848   -6598.9186   -6494.8993   -2363.5084    19735.719    8.7648752 
    5040    930.98567   -6598.4133   -6494.5604   -2002.3943    19727.963    8.7929728 
    5050     923.6576    -6597.147   -6494.1116    -1496.141    19718.216    8.8127383 
    5060    950.44263   -6599.5778   -6493.5545    -1405.935    19706.902    8.8239753 
    5070    949.76257   -6598.8507   -6492.9032   -808.21476    19694.233    8.8299807 
    5080    938.58518   -6596.9008   -6492.2002   -22.941005    19680.758    8.8297431 
    5090    926.23804   -6594.7561   -6491.4328    441.98271    19667.234    8.8237793 
    5100    949.35089   -6596.5118   -6490.6103    237.29863    19654.079    8.8171939 
    5110    957.15064   -6596.5486    -6489.777    123.87517    19641.152    8.8126241 
    5120    949.09537   -6594.8657   -6488.9927     494.6023    19628.379    8.8109984 
    5130    987.59401   -6598.4491   -6488.2815    521.39805    19616.034    8.8132265 
    5140    1006.5514   -6599.9692   -6487.6869     951.7204     19604.25    8.8271932 
    5150    990.12072   -6597.7078   -6487.2584    1658.2285     19593.42    8.8592825 
    5160    988.17538   -6597.1827   -6486.9503    2127.8317    19584.187    8.9038446 
    5170    978.74084    -6595.895    -6486.715    2628.0435    19577.054    8.9501434 
    5180    984.38327   -6596.3604   -6486.5509    2608.4539    19572.454    8.9867888 
    5190    995.82941   -6597.5214   -6486.4351    2035.7236    19570.385    9.0101866 
    5200    1020.7219   -6600.2596   -6486.3966    1386.4303    19570.314     9.021524 
    5210    1005.4945   -6598.6112   -6486.4467     1593.423    19571.714     9.024796 
    5220    974.49549   -6595.2574    -6486.551    1720.8081     19574.67    9.0194671 
    5230    962.77671   -6594.0361   -6486.6369    1592.6708    19579.301    9.0147466 
    5240    966.81786   -6594.5327   -6486.6827    1453.9749    19585.517    9.0263678 
    5250    960.66794   -6593.8792   -6486.7152    1394.1406    19593.179    9.0575622 
    5260    951.61078    -6592.888   -6486.7344    1567.3636    19602.257    9.0969089 
    5270     941.6445   -6591.7546   -6486.7127    1861.7103    19612.916    9.1358233 
    5280    925.13156   -6589.8074   -6486.6076    1925.8822    19625.422    9.1719314 
    5290    956.99835   -6593.1721   -6486.4174    1344.4193    19639.786    9.2072337 
    5300    977.70769   -6595.2202   -6486.1554    907.73836    19655.525    9.2454664 
    5310    1011.5125   -6598.7311   -6485.8954    218.56675    19672.148    9.2844095 
    5320    999.43599   -6597.1747   -6485.6861    -210.9108    19689.019    9.3231572 
    5330    972.35186   -6593.9947   -6485.5274   -667.58087    19705.677    9.3604089 
    5340    969.38345   -6593.4982    -6485.362    -1169.633    19721.638    9.3935962 
    5350     971.2722   -6593.5252   -6485.1783   -1378.7975    19736.408     9.423048 
    5360    972.89729   -6593.5061    -6484.978   -1351.3771    19749.787    9.4528564 
    5370    965.94709   -6592.4988   -6484.7459   -1227.4818    19761.786    9.4862029 
    5380    979.82161   -6593.7713   -6484.4707   -1079.1201    19772.493    9.5194898 
    5390    966.03746   -6591.9318   -6484.1689    -203.4408    19782.153     9.548937 
    5400    979.68018   -6593.1516   -6483.8668   -240.97047    19791.493    9.5674353 
    5410    986.92739   -6593.6442    -6483.551   -643.61957    19800.536    9.5787694 
    5420    987.04942   -6593.3521   -6483.2453   -678.46005    19808.937    9.5994372 
    5430    991.84041   -6593.5706   -6482.9293   -785.69348    19816.625    9.6339133 
    5440    1028.3653   -6597.3333   -6482.6176   -918.40182     19823.48    9.6661964 
    5450     1030.633   -6597.3297   -6482.3611   -848.29536    19829.383    9.6880988 
    5460    998.63009   -6593.5889   -6482.1902   -592.57638    19834.418     9.707919 
    5470    985.88066   -6592.0385    -6482.062    -282.3434    19838.843    9.7381235 
    5480     980.2788   -6591.2916   -6481.9401    143.29009    19842.971    9.7852559 
    5490    948.66019   -6587.6199   -6481.7954    706.05833    19847.252    9.8405968 
    5500    954.16298   -6588.0298   -6481.5915   -177.43343    19852.071    9.8911168 
    5510    963.09702   -6588.7294   -6481.2945   -1139.7374    19856.687    9.9377821 
    5520     981.9409    -6590.457     -6480.92   -1624.7622    19860.159    9.9803828 
    5530    994.89676   -6591.4674   -6480.4852   -1496.8568    19862.012    10.016893 
    5540    994.17466   -6590.9209   -6480.0193   -694.76886    19862.413    10.048394 
    5550    992.66451   -6590.2722    -6479.539   -66.074917    19862.096    10.073351 
    5560    993.66712   -6589.8888   -6479.0437    273.96221    19861.712    10.098603 
    5570    1013.9907   -6591.6684   -6478.5562   -36.145268    19861.552      10.1347 
    5580    998.87231   -6589.5254   -6478.0997   -55.006468    19861.392     10.18573 
    5590    991.51381   -6588.2997   -6477.6948   -308.71456    19861.157    10.242303 
    5600    1028.1425   -6592.0047   -6477.3138   -1274.0004    19860.529    10.294305 
    5610    1035.6473   -6592.5315   -6477.0035   -1168.3428    19858.738    10.346427 
    5620    1018.7025   -6590.4619   -6476.8241   -303.08153    19855.862    10.403703 
    5630    1005.6951   -6588.9353   -6476.7485    266.18738    19852.676    10.464377 
    5640    1009.7369   -6589.3885   -6476.7508    286.51858     19849.74    10.523566 
    5650    992.55697   -6587.5257   -6476.8045    782.16877    19847.185    10.573607 
    5660    975.59338   -6585.7148   -6476.8859     1422.188    19845.455    10.606781 
    5670    1004.7166   -6589.0754   -6476.9977    1352.0153    19845.123    10.623976 
    5680    993.32802   -6587.9834   -6477.1762    1373.3712    19846.196    10.641417 
    5690    989.54793   -6587.8187   -6477.4332    1062.9116     19848.64     10.67363 
    5700    993.51008   -6588.5785   -6477.7509    115.48485    19852.089    10.727719 
    5710    989.74865   -6588.5496   -6478.1417   -523.55181    19855.645    10.802849 
    5720    965.69207   -6586.3022   -6478.5778    -119.8995    19858.757    10.887696 
    5730    967.81016   -6587.0031   -6479.0425   -76.310417    19861.682    10.963382 
    5740    972.29382    -6587.985   -6479.5242    -256.8478    19864.512    11.021751 
    5750    973.54157   -6588.6381    -6480.038   -673.59471    19867.044    11.062349 
    5760    958.91044    -6587.549   -6480.5811   -596.65301    19868.925     11.09425 
    5770     950.0076   -6587.0839   -6481.1091   -209.77059    19870.212    11.131636 
    5780    951.52086   -6587.7515   -6481.6079    447.71829    19871.315    11.178756 
    5790    945.10002   -6587.4969   -6482.0696    1361.3547    19872.905    11.224084 
    5800    949.22271    -6588.376   -6482.4887    1624.3668    19875.814    11.263442 
    5810      958.348   -6589.7761   -6482.8709    1192.6813     19880.31    11.300879 
    5820    974.18677   -6591.9103   -6483.2383    146.56301    19885.938    11.341693 
    5830    963.45324   -6591.0799   -6483.6052   -344.78098     19891.74    11.388659 
    5840    926.93377   -6587.3385   -6483.9376   -463.44175    19897.206    11.439653 
    5850    937.50039   -6588.7813   -6484.2018   -1393.7171    19902.088    11.485208 
    5860    927.24112   -6587.8159   -6484.3808   -1886.8264    19905.575     11.52156 
    5870    914.70478   -6586.5071   -6484.4704   -1881.3129    19907.173    11.553039 
    5880    920.98278   -6587.1778   -6484.4408    -1932.212    19906.853    11.578088 
    5890    945.98633   -6589.8294   -6484.3032   -1789.0377    19904.593    11.594838 
    5900    946.99882   -6589.7087   -6484.0696   -1240.7444    19900.568    11.610855 
    5910    946.05211   -6589.2844   -6483.7508   -1121.6034    19895.257    11.627022 
    5920    947.93387    -6589.061   -6483.3176   -983.72569    19888.846    11.630526 
    5930    975.22053   -6591.5508   -6482.7634   -958.73183    19881.453    11.624264 
    5940    1003.2356   -6594.0218   -6482.1094    -1097.482    19873.116     11.62829 
    5950    1019.9415    -6595.199    -6481.423   -951.17755    19863.715    11.655274 
    5960    989.77453   -6591.1549   -6480.7441    327.80884    19853.509    11.704078 
    5970    965.20601   -6587.7273   -6480.0571    1362.9275    19843.669    11.757733 
    5980     967.6247   -6587.2439   -6479.3039     1787.805    19835.216    11.792316 
    5990    958.40028   -6585.3888   -6478.4778    2288.4153    19828.629    11.804883 
    6000    971.27583   -6585.9457   -6477.5985    2543.9039    19824.365    11.805226 
    6010    978.42223   -6585.8266   -6476.6822    2438.7782    19822.668     11.79978 
    6020    1017.3365   -6589.2939   -6475.8085    1510.5159    19823.369    11.795793 
    6030    1033.5803   -6590.3465   -6475.0491    644.16448    19825.595    11.804928 
    6040    998.78774   -6585.8947   -6474.4784    1002.1124    19828.582    11.826905 
    6050     985.2769   -6583.9593   -6474.0502    1543.2928    19832.602    11.850293 
    6060    983.35034   -6583.3992    -6473.705    1601.0975    19838.143    11.871105 
    6070     985.7059    -6583.381    -6473.424     769.0161    19845.194    11.891081 
    6080    1007.5947   -6585.6068   -6473.2081    59.519434    19853.012    11.910654 
    6090    998.53398   -6584.4547   -6473.0668    346.96207    19860.959     11.93412 
    6100     994.6289   -6583.9526   -6473.0003    691.81554    19869.225     11.96303 
    6110    1018.0958   -6586.5692   -6472.9991     987.0737    19878.181    11.995574 
    6120     1025.125   -6587.4483   -6473.0941    1105.9972    19888.104    12.035889 
    6130    1001.1815   -6584.9647   -6473.2814    1307.0717    19899.134    12.084464 
    6140    1008.1112   -6585.9906   -6473.5343    1129.2091    19911.425    12.139329 
    6150    1030.5895    -6588.819   -6473.8552    302.93254    19924.758    12.207473 
    6160    994.77635   -6585.2008    -6474.232   -179.65076    19938.395    12.293608 
    6170    975.13024   -6583.3864   -6474.6091   -891.70613    19951.736    12.376982 
    6180    988.67417   -6585.2456   -6474.9575   -1525.3654    19964.096    12.446405 
    6190    967.48457    -6583.201   -6475.2767   -1730.1749    19974.854    12.505559 
    6200    958.65737   -6582.4854   -6475.5457    -2357.662      19983.7    12.554493 
    6210    975.26712   -6584.5523   -6475.7598   -3039.6043    19990.048    12.591089 
    6220    975.40768   -6584.7647   -6475.9565   -2673.7556    19993.326    12.620456 
    6230    979.70208   -6585.4386   -6476.1514   -2022.5292    19993.861    12.657684 
    6240    961.30631   -6583.5707   -6476.3355   -1364.9573    19992.322    12.709684 
    6250    942.11961   -6581.5641   -6476.4692   -881.65083    19989.411    12.765595 
    6260    960.14745   -6583.6241   -6476.5182   -1239.8745    19985.558    12.815231 
    6270    991.75787   -6587.1554   -6476.5233   -1791.7764    19980.492    12.855856 
    6280     1004.161   -6588.5794   -6476.5638   -2070.7251    19973.684     12.88693 
    6290    979.06004   -6585.8699   -6476.6543   -1059.2986    19964.995    12.911427 
    6300    966.36812   -6584.5572   -6476.7573   -155.81772    19955.343    12.936284 
    6310    955.05425   -6583.3607    -6476.823    565.80244    19945.695     12.97607 
    6320    974.82653   -6585.6084    -6476.865     578.3032    19936.707    13.041301 
    6330    986.88159   -6586.9849   -6476.8968    1157.0073    19928.533     13.12502 
    6340    975.25511    -6585.741   -6476.9498    1831.2047    19921.694    13.210095 
    6350    977.36266   -6586.0281   -6477.0018     1569.007    19916.775    13.282007 
    6360    996.23716   -6588.2077   -6477.0759    633.96555    19913.477    13.335342 
    6370    997.55338   -6588.4744   -6477.1958   -132.29359    19910.887    13.377276 
    6380    986.21897   -6587.3626   -6477.3484    181.87581     19908.33    13.414148 
    6390    979.07266   -6586.7357   -6477.5186    886.33429    19906.039    13.443998 
    6400     987.2912   -6587.8275   -6477.6937    922.24091    19904.648    13.471174 
    6410    1001.1402   -6589.5778   -6477.8991    111.04412    19904.149    13.504914 
    6420    999.87131   -6589.6949   -6478.1578     -398.187    19903.811    13.548492 
    6430    980.50824   -6587.8443   -6478.4671   -675.81512    19903.106    13.602974 
    6440    970.50943   -6587.0519   -6478.7902   -1261.8541    19901.695    13.664014 
    6450     985.1162   -6589.0085   -6479.1173   -1691.3645    19899.044    13.723081 
    6460    973.40055   -6588.0364   -6479.4521   -994.53308     19894.85    13.780177 
    6470    949.67502   -6585.7084   -6479.7707    262.75512    19889.805    13.833653 
    6480    963.15957   -6587.4849    -6480.043    33.446657    19884.979    13.884757 
    6490    990.07064   -6590.7568   -6480.3129   -989.64882    19880.206    13.943758 
    6500    973.11691   -6589.1709   -6480.6182   -1328.1743    19874.579    14.014973 
    6510     940.7651   -6585.8587    -6480.915   -864.22598    19867.812    14.082558 
    6520    950.55753   -6587.2126   -6481.1765   -1051.5347    19860.234    14.133044 
    6530      980.216   -6590.7726    -6481.428   -1460.0958    19851.726    14.172827 
    6540    986.02139   -6591.7264   -6481.7342   -1376.6719    19841.967     14.20452 
    6550    970.99145   -6590.4449   -6482.1293   -1181.8498    19831.021     14.23147 
    6560    964.66955   -6590.2486   -6482.6383   -996.83981    19819.106     14.26438 
    6570    947.24553    -6588.935   -6483.2683   -357.00825    19806.491    14.307414 
    6580    960.69604   -6591.2473   -6484.0802   -251.44991    19793.692    14.354571 
    6590    954.39452   -6591.5881    -6485.124    163.44584    19780.915    14.397748 
    6600    933.80971   -6590.5118   -6486.3439    974.95573    19768.589    14.424228 
    6610    925.33141   -6590.8377   -6487.6156    1169.1777    19757.406    14.428001 
    6620    920.98394   -6591.5438   -6488.8067    1116.1574    19747.581    14.415715 
    6630    926.21019   -6593.1551    -6489.835    1085.5493    19739.053    14.397557 
    6640    928.51726   -6594.2571   -6490.6796    827.69529    19731.736    14.380356 
    6650    921.52974   -6594.1386   -6491.3406     475.9613    19725.367    14.365692 
    6660    913.39334   -6593.7011   -6491.8107    478.45798    19719.635    14.364998 
    6670    920.32269   -6594.7827   -6492.1193    265.81564    19714.457    14.385563 
    6680    900.12922   -6592.6898    -6492.279    180.67998    19709.657    14.413705 
    6690    880.78728     -6590.53   -6492.2769    196.88958    19705.135    14.427159 
    6700    891.60989   -6591.5561   -6492.0957     121.6791    19700.887    14.425961 
    6710    938.75848   -6596.4828   -6491.7628   -227.28933    19696.806    14.424808 
    6720    953.14601   -6597.6612   -6491.3364   -150.62805    19692.632    14.425288 
    6730     956.8402   -6597.6197   -6490.8827    50.041916    19688.391    14.423086 
    6740     943.8836   -6595.6937    -6490.402     511.3782    19684.301    14.427184 
    6750    933.16609   -6593.9725   -6489.8764    1066.1952    19680.788    14.439063 
    6760    922.88675   -6592.2369   -6489.2875    1546.5315    19678.386    14.453547 
    6770    922.90759   -6591.5738   -6488.6221     1470.458    19677.504    14.477363 
    6780    955.69148    -6594.501   -6487.8922    710.24106    19678.029    14.517263 
    6790    990.06545   -6597.5945   -6487.1512    41.491071    19679.269    14.563076 
    6800    1003.2023   -6598.4005   -6486.4918     -118.335    19680.585    14.604723 
    6810    1003.7068    -6597.914    -6485.949    110.46747    19681.807    14.641546 
    6820    997.61474   -6596.8099   -6485.5245    487.23806    19683.131    14.685029 
    6830    983.84809   -6594.9404   -6485.1906    1008.2348    19684.952    14.737945 
    6840    977.90323    -6593.994   -6484.9074     1229.413    19687.734    14.789222 
    6850    986.04947   -6594.6651   -6484.6698    991.83657     19691.65    14.829616 
    6860    974.22457   -6593.1361   -6484.4599    1277.1698    19696.562    14.858839 
    6870    952.81483   -6590.5564   -6484.2685    1027.2651    19702.617    14.878009 
    6880     948.0478   -6589.7954   -6484.0392     159.7196    19709.582    14.887859 
    6890    971.22109   -6592.1128   -6483.7717   -945.04608    19716.559    14.893951 
    6900    967.31643   -6591.3807   -6483.4751   -956.69703    19722.605    14.903174 
    6910    1005.2403   -6595.3291   -6483.1931   -805.83758    19727.621    14.922437 
    6920    1013.4631   -6596.0162   -6482.9628   -192.36058    19731.813    14.962365 
    6930    990.88762   -6593.3572   -6482.8222    626.53349    19735.781     15.02384 
    6940    975.89363   -6591.5974    -6482.735    951.72757    19740.279    15.089244 
    6950    968.47939   -6590.6932   -6482.6579    982.13926    19745.647    15.134398 
    6960    969.67776   -6590.7387   -6482.5697    538.61795    19751.901    15.159126 
    6970    969.27885    -6590.594   -6482.4695   -123.83158     19758.61    15.183496 
    6980    952.03561   -6588.5388   -6482.3378   -608.36907    19765.137    15.220273 
    6990    976.42537   -6591.0912   -6482.1695   -1240.4901    19770.959    15.263001 
    7000    973.33018   -6590.5493   -6481.9729   -1277.6842    19775.535    15.305122 
    7010    973.17509   -6590.3261   -6481.7669   -865.41738    19778.808    15.346361 
    7020    982.15355   -6591.1123   -6481.5516    208.84441    19781.234    15.395469 
    7030    968.89081   -6589.3983   -6481.3171     818.0325    19783.803    15.461542 
    7040    975.59969   -6589.8796     -6481.05    483.76908    19787.103    15.538355 
    7050    988.68482   -6591.0325   -6480.7432   -289.83664    19790.817    15.611808 
    7060    982.05821   -6589.9586   -6480.4086   -845.83924    19794.203    15.675385 
    7070    958.07324   -6586.9008   -6480.0263   -601.93866    19796.794    15.727556 
    7080    986.38678   -6589.5936   -6479.5607   -489.40339     19798.74    15.783012 
    7090    998.51508   -6590.3919    -6479.006   -5.3605764    19800.206    15.858764 
    7100    974.59279   -6587.1146   -6478.3973    790.39954    19801.683    15.952172 
    7110    986.59504   -6587.7725   -6477.7163    979.33848    19803.888    16.048539 
    7120    1009.3317   -6589.5261   -6476.9336    672.47676    19807.023    16.132053 
    7130    1012.3436    -6589.044   -6476.1156    532.99653    19810.823    16.192766 
    7140    1004.3156   -6587.3416   -6475.3087     598.3747    19815.151    16.241153 
    7150    1027.9929   -6589.2002    -6474.526   -235.23827    19819.945    16.296136 
    7160    1031.9461   -6588.9228   -6473.8076   -572.69445     19824.52    16.369048 
    7170    1022.5698   -6587.2751   -6473.2059   -144.42023    19828.539    16.463367 
    7180    1021.5735   -6586.6661    -6472.708   -229.08749    19832.331     16.56855 
    7190     1031.854   -6587.4174   -6472.3125    -342.4579    19835.866    16.666095 
    7200    1001.9761   -6583.7829    -6472.011    582.38581    19839.142    16.756777 
    7210    1004.9232   -6583.8901   -6471.7894    676.88729    19842.875    16.835627 
    7220    1044.4681   -6588.1645   -6471.6525    207.13031    19847.216    16.892745 
    7230    1028.1925   -6586.3453   -6471.6489    499.90505     19851.82    16.933803 
    7240    1001.1551   -6583.4484    -6471.768    946.30316    19856.904    16.966034 
    7250    1002.2252   -6583.7685   -6471.9687    905.59923    19862.849    16.995207 
    7260    1002.6393   -6584.0938   -6472.2479     773.5565     19869.66    17.031935 
    7270    1003.7203   -6584.5976   -6472.6311   -32.345188    19877.125    17.081268 
    7280    983.74758   -6582.8395    -6473.101   -220.81995    19884.571    17.144477 
    7290    974.59389   -6582.3675   -6473.6501    162.42845    19891.772     17.21422 
    7300    949.14983   -6580.1135   -6474.2344    621.77313    19899.095    17.283512 
    7310    943.41296   -6580.0669   -6474.8278    799.35707    19906.976    17.348683 
    7320      945.875    -6580.918   -6475.4043    998.87517    19915.638    17.412361 
    7330    961.29525   -6583.2258   -6475.9919    879.95744    19925.229    17.484418 
    7340    962.13694     -6583.92   -6476.5922    415.69877    19935.643    17.563249 
    7350    975.16811   -6586.0133   -6477.2318   -343.77841    19946.374    17.636822 
    7360    959.69178   -6584.9606   -6477.9056    -29.97452    19956.793    17.703357 
    7370    944.91157   -6583.9969   -6478.5906    583.35692    19967.137    17.758303 
    7380    936.07902    -6583.659   -6479.2379    616.00787    19977.979    17.797101 
    7390    957.44978   -6586.6475   -6479.8425   -197.07325    19989.308    17.833666 
    7400     968.1968   -6588.4425   -6480.4387   -421.05844    20000.447    17.876198 
    7410    968.17055   -6589.0408   -6481.0399   -469.22652    20011.098    17.916554 
    7420    960.43075   -6588.7663   -6481.6288   -416.19824    20021.234    17.957424 
    7430    972.95383   -6590.7494   -6482.2149    -639.9638    20030.864    17.998907 
    7440    965.71945   -6590.5209   -6482.7934   -1070.6593    20039.769    18.034984 
    7450    956.66768   -6590.0652   -6483.3475   -1576.2628     20047.52    18.051697 
    7460     964.0991    -6591.413   -6483.8663   -2092.8491    20053.594    18.050579 
    7470    954.04249   -6590.7771   -6484.3522   -1897.2591    20057.542    18.041248 
    7480    942.54367   -6589.9227   -6484.7805    -1342.378    20059.554    18.042249 
    7490    946.15974    -6590.686   -6485.1404   -1045.7277     20060.14    18.067857 
    7500    929.53514    -6589.111     -6485.42   -240.76019      20059.7    18.109315 
    7510    939.45244   -6590.4049   -6485.6076   -204.03231    20058.945    18.143099 
    7520    971.93313    -6594.154   -6485.7334   -766.04949    20057.944    18.154868 
    7530    974.11007   -6594.5073   -6485.8438   -1211.1183    20056.168    18.140579 
    7540    971.08773   -6594.2792   -6485.9529   -967.06315    20053.202    18.105323 
    7550     965.7029   -6593.7803   -6486.0547    -23.39344    20049.305    18.065615 
    7560    955.59471   -6592.7301   -6486.1321    769.97795    20045.386     18.04059 
    7570    958.48069    -6593.093    -6486.173    1234.9486     20042.25    18.036321 
    7580    971.87067   -6594.6035   -6486.1899    1251.6869    20040.351    18.044012 
    7590    976.68423   -6595.1488   -6486.1982    1097.5396    20039.763    18.059106 
    7600    981.70681   -6595.7322   -6486.2214    478.96535    20040.276    18.079949 
    7610    971.82876   -6594.6607   -6486.2518    287.98152    20041.348    18.097356 
    7620     976.9918   -6595.2675   -6486.2826    -135.7153    20042.679    18.105386 
    7630    977.91844   -6595.4031   -6486.3148   -393.83005    20043.886    18.113433 
    7640    967.01258   -6594.2239   -6486.3522   -680.19173    20044.685    18.141993 
    7650    976.13974    -6595.278   -6486.3881   -1151.6447    20044.771    18.188222 
    7660    982.42145   -6596.0177   -6486.4271   -1276.0573    20043.704    18.235479 
    7670    973.02013   -6595.0212   -6486.4793   -602.66569    20041.425    18.282459 
    7680    972.07939   -6594.9752   -6486.5383    67.165891    20038.544    18.326457 
    7690    966.68712   -6594.4294    -6486.594    639.79235    20035.731    18.355295 
    7700    953.89467   -6593.0288   -6486.6205    857.08685    20033.569    18.363765 
    7710    956.66264   -6593.3207   -6486.6036    510.36264    20032.261    18.368654 
    7720    952.78837   -6592.8335   -6486.5485    309.54015    20031.506    18.389592 
    7730     944.3355   -6591.7833   -6486.4413     545.7387    20031.139    18.425533 
    7740    957.68141   -6593.1096   -6486.2788    580.15354    20031.319    18.459626 
    7750     951.8642   -6592.2376   -6486.0557    545.36789    20032.095    18.488443 
    7760    940.10719   -6590.6373   -6485.7669    281.71742    20033.416    18.513804 
    7770    959.44171   -6592.4212    -6485.394   -97.403793    20035.023    18.529854 
    7780     978.5288   -6594.1224    -6484.966   -906.59306    20036.476    18.536263 
    7790    990.98476   -6595.0743   -6484.5285   -1704.7066    20036.984    18.543725 
    7800    977.17341   -6593.1261    -6484.121   -1110.6222    20035.879    18.567541 
    7810    920.92665   -6586.4493   -6483.7185    70.929497    20033.702     18.60629 
    7820    943.32496   -6588.4753    -6483.246    63.953844      20031.5     18.64821 
    7830    994.33962    -6593.603   -6482.6829   -629.44943    20029.314     18.68804 
    7840    989.13967   -6592.4711   -6482.1311   -317.77929    20026.611    18.725853 
    7850    964.32516   -6589.1861   -6481.6142    185.89273    20023.636    18.759608 
    7860     989.4746   -6591.4766   -6481.0992   -344.80394    20020.771    18.786298 
    7870     993.1047   -6591.3773   -6480.5949    -848.4647    20017.594    18.813237 
    7880    978.20259   -6589.2529   -6480.1329   -1109.9288    20013.615    18.845654 
    7890     990.7266   -6590.2184   -6479.7014   -1238.7392    20008.554    18.893086 
    7900    991.87438   -6589.9353   -6479.2902   -1060.8503    20002.314    18.967275 
    7910    997.36136   -6590.1745   -6478.9174   -1320.4631    19994.998    19.059603 
    7920    991.91697   -6589.2384   -6478.5886   -1303.0768    19986.445    19.147607 
    7930     983.0782   -6587.9663   -6478.3024   -902.12943     19976.71     19.20961 
    7940    978.27607   -6587.1708   -6478.0426   -166.35879    19966.213    19.243809 
    7950    965.90794   -6585.5321   -6477.7837    551.72401    19955.696    19.272936 
    7960    963.79571   -6585.0238    -6477.511    706.95434    19945.836    19.310914 
    7970    960.00299   -6584.3017   -6477.2119    955.75207    19936.844    19.351608 
    7980    953.57082   -6583.2413    -6476.869    1238.6074    19928.961    19.382967 
    7990    969.66536   -6584.6411   -6476.4735    747.89728    19922.368     19.39824 
    8000    993.36937   -6586.8626   -6476.0507    263.03154    19916.614    19.408489 
    8010    984.38907   -6585.4575   -6475.6474    459.02804    19911.274    19.438128 
    8020    984.62777   -6585.1037   -6475.2669    708.41268    19906.488    19.500929 
    8030    1005.2136   -6587.0399   -6474.9068     610.5508    19902.463    19.579372 
    8040    1012.5993   -6587.5384   -6474.5814    664.03735    19899.156    19.649964 
    8050    1054.9341   -6592.0415   -6474.3621    181.74938    19896.505    19.710912 
    8060    1047.9254   -6591.1994   -6474.3018    -32.49487    19894.121    19.771144 
    8070    1022.2031   -6588.4394   -6474.4111   -83.421628    19891.763    19.827314 
    8080    1006.2927   -6586.8932   -6474.6398    -407.9227    19889.319    19.867949 
    8090      1001.99   -6586.7207   -6474.9472   -542.67017    19886.519    19.889667 
    8100    1035.4834   -6590.8822   -6475.3724   -522.39116    19883.211    19.901673 
    8110    1023.9402   -6590.1804   -6475.9583    239.39101    19879.504      19.9245 
    8120     996.8227   -6587.8812   -6476.6841    589.04513    19876.046    19.953204 
    8130    999.48821   -6588.9921   -6477.4977    298.71171    19873.189    19.975417 
    8140    1017.7864   -6591.9499   -6478.4143   -106.46582    19870.674    19.992395 
    8150    996.58988   -6590.5716   -6479.4005    399.75184    19868.184     19.99703 
    8160    978.82902   -6589.5653   -6480.3754    629.22538     19866.08    19.992194 
    8170    967.41683   -6589.1721   -6481.2553    1002.0888    19864.669    19.996242 
    8180    968.21243   -6590.0168   -6482.0112    1525.7728    19864.314    20.017613 
    8190    975.91115    -6591.524   -6482.6596    1416.0193    19865.429    20.046858 
    8200    942.75651   -6588.3404   -6483.1744    1603.7191    19867.993    20.077351 
    8210    936.82757   -6588.0456   -6483.5411    1574.6616    19872.128     20.10421 
    8220    967.87755   -6591.7618   -6483.7936     1490.724    19877.796    20.125247 
    8230     983.4484    -6593.696   -6483.9909    1990.6211    19884.969     20.15051 
    8240    994.45886   -6595.1184    -6484.185    1819.3085    19893.995    20.190361 
    8250    985.75095   -6594.3459   -6484.3839     1612.183    19904.747    20.237957 
    8260    976.81384   -6593.5373   -6484.5722    1334.9984    19916.989    20.284724 
    8270    980.19504   -6594.0948   -6484.7526    989.86892    19930.427    20.322752 
    8280    948.75731   -6590.7486   -6484.9133    1359.7388    19944.791    20.347699 
    8290    938.93811   -6589.7643   -6485.0243    921.85397    19960.261    20.362499 
    8300    945.63218   -6590.5413   -6485.0546    21.275439     19976.42    20.375834 
    8310    945.90297    -6590.522   -6485.0051   -764.54919    19992.397    20.394478 
    8320    967.77422    -6592.857   -6484.9004     -1737.75    20007.343    20.410357 
    8330    970.15164   -6592.9827   -6484.7608   -1996.0876    20020.365    20.427008 
    8340    975.03945   -6593.3917   -6484.6246   -2065.1558    20031.166    20.455909 
    8350    977.37301   -6593.5178   -6484.4904   -2090.8309    20039.708    20.492279 
    8360    968.50659   -6592.3964   -6484.3581   -1710.7674    20046.009    20.527553 
    8370    959.25089   -6591.2184   -6484.2125   -1235.3973    20050.471    20.567233 
    8380    945.81224   -6589.5378   -6484.0311   -1152.2311    20053.567    20.607694 
    8390    929.15182   -6587.4306   -6483.7823   -1031.0772    20055.449    20.634436 
    8400    934.99919   -6587.7351   -6483.4346   -1266.5148    20056.214    20.650521 
    8410    959.10678   -6589.9757   -6482.9859   -1762.2376     20055.63    20.672847 
    8420    963.56871   -6589.9523   -6482.4648   -1374.0001    20053.349    20.705862 
    8430    964.81023   -6589.5268   -6481.9008    -1132.585    20049.655     20.73945 
    8440    960.19194   -6588.3997   -6481.2889    -645.4903    20044.904    20.769233 
    8450    957.56052   -6587.4537   -6480.6363   -507.71062    20039.519    20.800058 
    8460    935.58042   -6584.2967   -6479.9313    134.95034    20033.768    20.834185 
    8470    926.57259   -6582.5246    -6479.164    467.72902    20028.224    20.869762 
[...]
   22890    958.12418   -6578.5953   -6471.7151    23.167971    20232.494     56.18705 
   22900    947.22888   -6576.7818    -6471.117    42.630029    20246.424    56.180669 
   22910    939.59108   -6575.2766   -6470.4638   -88.997403     20260.69    56.150126 
   22920    964.63254   -6577.3581   -6469.7519   -707.43029     20275.11    56.133458 
   22930    968.53709   -6577.0494   -6469.0076   -997.69908    20289.108    56.153851 
   22940    979.60114   -6577.5778   -6468.3018   -927.57436    20302.358    56.227409 
   22950    986.02253   -6577.6503    -6467.658   -654.45611    20314.913    56.335271 
   22960    975.96793   -6575.9736   -6467.1029   -179.12509    20327.055    56.439578 
   22970     979.9734   -6575.9485   -6466.6309   -53.492058     20339.22    56.522737 
   22980      990.938   -6576.7738   -6466.2332   -308.66752    20351.533    56.585007 
   22990    991.76245   -6576.5559   -6465.9233   -517.08086    20363.771     56.63469 
   23000    986.49301   -6575.7408    -6465.696   -1058.1584    20375.654    56.691164 
   23010    996.09564   -6576.6481   -6465.5321   -1829.0392    20386.597    56.754069 
   23020    1011.6827   -6578.2917   -6465.4369   -2046.3471    20395.821    56.821635 
   23030    1001.3233   -6577.1262   -6465.4271   -1442.1427    20403.095    56.890595 
   23040    975.46604   -6574.2866   -6465.4719   -773.47567    20408.956    56.942205 
   23050    973.20166   -6574.0894   -6465.5273   -531.68435    20414.034    56.958992 
   23060    971.17928   -6573.9004   -6465.5639   -653.85746    20418.587    56.966561 
   23070    967.28657   -6573.4845   -6465.5822   -895.49706    20422.506    56.999509 
   23080    968.65028   -6573.6328   -6465.5784    -1108.613    20425.537    57.046268 
   23090    991.27203   -6576.1582   -6465.5803   -1550.3444    20427.383    57.101351 
   23100    973.13254   -6574.1559   -6465.6015   -1594.3382    20427.633    57.161558 
   23110    956.49837   -6572.3358   -6465.6369   -1525.4157    20426.153    57.219349 
   23120    932.75758   -6569.6671   -6465.6166   -709.55213    20423.105    57.266796 
   23130    936.72175   -6570.0029   -6465.5102   -476.99802    20419.187    57.281736 
   23140    953.53043   -6571.6829   -6465.3151   -761.74911    20414.658    57.264998 
   23150     968.9077   -6573.1626   -6465.0795   -925.10413    20409.269    57.240266 
   23160    990.18308   -6575.3016   -6464.8452   -1286.5025    20402.812    57.217359 
   23170    1013.9756   -6577.7675    -6464.657   -1850.1283    20394.889    57.207659 
   23180    999.60876   -6576.0524   -6464.5446   -1561.4291    20384.996    57.207434 
   23190    978.73021    -6573.675   -6464.4961   -1191.3013    20373.312    57.186562 
   23200    976.22558   -6573.3691   -6464.4697   -901.75397    20360.232    57.131208 
   23210    961.88892   -6571.7434   -6464.4432   -322.50374      20346.1    57.044995 
   23220    955.51388   -6570.9716   -6464.3826    118.56491    20331.508    56.941152 
   23230     981.9053     -6573.82    -6464.287    6.3598643    20316.891    56.824976 
   23240    970.76396   -6572.4666   -6464.1764    454.50825    20302.248    56.699205 
   23250    949.11153   -6569.9192   -6464.0444    1221.5557    20288.027    56.583253 
   23260    942.17635   -6568.9388   -6463.8376    1888.2525    20275.038    56.495158 
   23270    960.75393   -6570.7003   -6463.5267    1536.7799     20263.92    56.432701 
   23280    1001.6006   -6574.8743   -6463.1442    312.67681    20254.311    56.391582 
   23290    1001.5368   -6574.4561   -6462.7331    9.6463086    20245.128    56.366708 
   23300    1006.9488   -6574.6433   -6462.3166   -230.47948    20235.963    56.333972 
   23310    1030.3586    -6576.837   -6461.8989   -330.13777    20226.586     56.29229 
   23320    1020.0586   -6575.3287   -6461.5396    218.43272    20216.939     56.26837 
   23330    991.36921   -6571.8102   -6461.2215    959.08228    20207.577     56.26488 
   23340    1014.1642   -6574.0461   -6460.9146    1286.1517    20199.201    56.258961 
   23350    1020.2821   -6574.4303   -6460.6163    1377.7636    20192.204    56.234078 
   23360    1027.0823   -6574.9749   -6460.4023     634.5738    20186.591    56.195799 
   23370    1016.2708   -6573.6456   -6460.2791     671.4581    20181.757    56.171925 
   23380    1017.7765   -6573.7889   -6460.2544    1203.5491    20177.691    56.172994 
   23390    1016.4921   -6573.7307   -6460.3395    1811.1466    20174.935    56.166183 
   23400    1014.7707   -6573.7413   -6460.5421    2104.9487    20174.075    56.114628 
   23410    1022.0796   -6574.8605    -6460.846    2134.4701    20175.426    56.043812 
   23420    1045.6973   -6577.9643   -6461.3152    1894.8218    20178.957    56.004224 
   23430    1026.1599   -6576.4705   -6462.0008    2355.1026    20184.498    56.017777 
   23440    1010.5924   -6575.6027   -6462.8696    2511.9595    20192.386    56.073165 
   23450    990.19646   -6574.3017   -6463.8438    2475.0385    20202.783     56.16126 
   23460    989.19938   -6575.2098   -6464.8631    2129.3666    20215.592    56.263538 
   23470    989.21447   -6576.2142   -6465.8658    1163.2335    20230.387    56.366922 
   23480    993.29112   -6577.6273   -6466.8242    256.54783    20246.189    56.457459 
   23490    985.73912    -6577.676   -6467.7153    37.390319    20262.093     56.50035 
   23500     973.1198   -6577.0803   -6468.5273    88.601237    20277.807    56.497843 
   23510    953.56285   -6575.5918   -6469.2205    76.207798    20293.342    56.496233 
   23520    968.38212   -6577.8164   -6469.7919   -49.059115    20308.695    56.529775 
   23530     1011.328    -6583.129   -6470.3138   -709.78664    20323.684    56.601577 
   23540    1011.3869    -6583.684   -6470.8623   -1336.7801    20337.659    56.692374 
   23550    957.80884   -6578.2387   -6471.3937   -1603.8761    20349.993    56.769841 
   23560    962.47149    -6579.214   -6471.8488   -2271.9937    20360.343    56.823826 
   23570    957.36227   -6579.0223   -6472.2271    -2216.995    20368.181    56.867906 
   23580    929.69349   -6576.2335   -6472.5248    -1944.004    20373.542    56.909896 
   23590    943.60685   -6577.9894   -6472.7286   -2113.6905    20376.699    56.938135 
   23600    954.46549   -6579.3262   -6472.8541   -2174.7581    20377.572    56.960586 
   23610    965.18285   -6580.6046    -6472.937   -2298.5155     20376.11    56.986807 
   23620    968.37199   -6581.0105   -6472.9872   -2005.0854    20372.288    57.016731 
   23630    967.95066   -6581.0126   -6473.0363   -1411.3838    20366.452    57.039862 
   23640    959.68542   -6580.1222   -6473.0679   -497.74875    20359.275    57.065354 
   23650    939.26259   -6577.8299   -6473.0537    767.41443    20351.773    57.112855 
   23660    936.35789   -6577.4139   -6472.9617    915.47123    20345.128    57.165442 
   23670    932.63029   -6576.8238   -6472.7875    542.95986    20339.553    57.200574 
   23680    929.42186   -6576.1955   -6472.5171   -154.24966    20334.639    57.206663 
   23690    944.40318   -6577.4854   -6472.1358   -1074.9959    20329.633     57.17965 
   23700    966.93913   -6579.5291   -6471.6656   -1701.8748    20323.595    57.124371 
   23710    974.95186   -6579.9059   -6471.1486   -1567.8953    20315.945    57.062198 
   23720    962.86926   -6578.0285    -6470.619   -1521.2906    20306.762    57.023713 
   23730    947.67356   -6575.7724    -6470.058    -1529.245    20296.141    57.027128 
   23740    958.09999     -6576.32   -6469.4425   -1144.7389    20284.137    57.076558 
   23750    979.81055   -6578.0729   -6468.7736   -650.02765     20271.15    57.150547 
   23760    998.26595   -6579.4635   -6468.1055    -330.7637    20257.685    57.201157 
   23770     977.9638    -6576.577   -6467.4837    168.51757    20244.114    57.208354 
   23780    971.38447   -6575.2663   -6466.9069    781.67359    20230.952    57.188909 
   23790    950.84176   -6572.4113   -6466.3434    1542.3844    20218.817    57.158102 
   23800    921.84229   -6568.5986   -6465.7657    2436.8869    20208.509    57.128064 
   23810    927.16863   -6568.5649   -6465.1378    2560.2063     20200.81    57.097163 
   23820     938.7287    -6569.176   -6464.4594    2656.4117     20195.92    57.053645 
   23830    971.96518   -6572.2061   -6463.7819    2155.9377    20193.817    57.005963 
   23840    983.74296    -6572.896   -6463.1579    2141.2092    20194.047    56.968465 
   23850    982.51939   -6572.2457   -6462.6442    2348.9907    20196.519    56.943722 
   23860    990.43734   -6572.7131   -6462.2284    2059.2366    20201.388      56.9387 
   23870    1004.3346   -6573.9502   -6461.9151    1418.8643    20208.336    56.969196 
   23880    1005.8398   -6573.9123   -6461.7093    1154.2687    20216.732    57.046943 
   23890    1004.6222   -6573.6743   -6461.6072    1331.4613    20226.285    57.138982 
   23900    998.88469    -6573.005   -6461.5779    1796.7262    20237.186    57.191794 
   23910    1011.4006   -6574.4358   -6461.6125    1747.4603    20249.825    57.205804 
   23920    1013.4177   -6574.7767   -6461.7284    1818.0959    20264.202    57.224405 
   23930    988.28733   -6572.1605   -6461.9156    2631.2145    20280.463    57.278958 
   23940    984.02894    -6571.897   -6462.1271    2567.8695    20299.281    57.367746 
   23950    1009.3203   -6574.9507   -6462.3595    1503.6479    20320.538    57.467775 
   23960    1000.3799   -6574.2217   -6462.6278     810.7137    20343.244    57.569834 
   23970    1001.2244     -6574.63   -6462.9419      43.8593    20366.585    57.690113 
   23980    975.04131   -6572.0391   -6463.2718    397.27867    20389.888    57.848442 
   23990    980.94243    -6573.032   -6463.6064    300.38532    20413.316    58.044905 
   24000    1001.6212    -6575.668   -6463.9356    -286.6299    20436.785     58.26183 
   24010    1010.0071   -6576.9762   -6464.3084   -887.53301    20459.701     58.46413 
   24020    977.97002   -6573.8045   -6464.7105    -1418.567    20481.445    58.620085 
   24030    958.18857   -6571.9779   -6465.0905   -2221.3595    20501.403    58.727904 
   24040    954.96378   -6571.9483   -6465.4206   -2840.1035    20518.769    58.806793 
   24050    967.36184   -6573.6202   -6465.7095   -2807.0749    20532.951    58.883525 
   24060    978.57369   -6575.1583   -6465.9969    -2198.293    20543.996    58.966817 
   24070    956.92193   -6573.0161     -6466.27    -1168.704    20552.587    59.048546 
   24080    944.20923   -6571.8177   -6466.4897   -760.45353    20559.764    59.139811 
   24090    967.45347   -6574.5755   -6466.6546   -1086.4278    20565.966    59.249921 
   24100    961.51158    -6574.044   -6466.7859   -1150.9438    20570.961    59.361096 
   24110    949.08372   -6572.7637   -6466.8919    -1470.151    20574.613    59.440074 
   24120    945.30681   -6572.4029   -6466.9525    -1385.686    20576.682     59.47711 
   24130    942.62932   -6572.1069   -6466.9552   -1453.1415     20577.21    59.483667 
   24140    956.33532   -6573.5658   -6466.8852   -1642.2347    20576.163    59.459367 
   24150     996.5927   -6577.9529   -6466.7815   -1819.9943    20573.343    59.422115 
   24160    1006.9163   -6579.0353   -6466.7123   -1351.3043     20568.66    59.396862 
   24170    975.45238   -6575.5229   -6466.7097   -678.44774    20562.569     59.39446 
   24180    946.35984   -6572.2626   -6466.6947   -189.81557    20555.798    59.399805 
   24190    968.85295   -6574.7054   -6466.6284    104.64835    20548.867    59.380097 
   24200    963.21657   -6573.9589   -6466.5107    316.72392    20542.117    59.339402 
   24210    959.52563   -6573.3895    -6466.353   -113.66775    20535.712    59.299257 
   24220    955.68643   -6572.7181   -6466.1099   -455.05558    20529.269    59.273122 
   24230    976.18396     -6574.67   -6465.7752   -826.30295    20522.393    59.273595 
   24240    958.41563   -6572.2378   -6465.3251   -443.22381    20514.777    59.309179 
   24250    949.57856    -6570.674    -6464.747    320.09065    20506.772    59.347213 
   24260     953.4991   -6570.3402    -6463.976    680.46455    20499.152    59.354617 
   24270    980.83878   -6572.4445   -6463.0304    372.53822    20492.269    59.331508 
   24280    987.57764    -6572.134   -6461.9683    803.46336    20485.935    59.288644 
   24290    995.40426   -6571.9464   -6460.9076    1351.3121    20480.513    59.242884 
   24300    1004.4566   -6571.9387     -6459.89    1884.3687    20476.628    59.224943 
   24310    1034.2651   -6574.3631   -6458.9892     1421.365    20474.708    59.240228 
   24320    1036.0397   -6573.8347   -6458.2629    1124.7433    20474.373    59.283686 
   24330    1042.6466   -6574.0556   -6457.7468    985.81321    20475.268    59.352365 
   24340    1016.7735   -6570.8302   -6457.4075    840.99622    20477.227    59.424019 
   24350    995.60468   -6568.2624   -6457.2012    735.16683    20480.082    59.464033 
   24360    980.12312   -6566.3916   -6457.0574    571.03026    20483.701    59.473017 
   24370    1002.8066   -6568.8143   -6456.9497    115.88942    20487.872    59.478346 
   24380    1018.6133   -6570.5266   -6456.8987    176.77258    20492.201    59.497431 
   24390    1021.4967   -6570.8881   -6456.9386    438.41506    20496.705    59.550685 
   24400    1013.2443     -6570.11   -6457.0811    772.95927    20501.671    59.651861 
   24410    1018.7113   -6570.9639   -6457.3251    644.25338    20507.393    59.771632 
   24420    1046.3464   -6574.4108   -6457.6893    290.51825    20513.759    59.872918 
   24430    1038.0486   -6574.0024   -6458.2065   -52.507037    20520.398    59.958656 
   24440    1025.6464   -6573.2773   -6458.8649   -635.78004    20526.897    60.043095 
   24450     1021.675   -6573.6039   -6459.6345   -847.02317    20532.712    60.124683 
   24460    1009.7771    -6573.119   -6460.4768   -745.64927    20537.624     60.20795 
   24470    1003.1579   -6573.2585   -6461.3548   -917.08353    20541.668    60.303234 
   24480    987.93786   -6572.4253   -6462.2194   -652.85475    20544.743    60.410703 
   24490    962.81019   -6570.3959    -6462.993   -193.49486    20547.115    60.509475 
   24500    982.46475   -6573.2455     -6463.65   -354.85009    20549.227    60.577155 
   24510    1014.0696   -6577.3727   -6464.2517    -1153.777    20550.874    60.609558 
   24520    999.04952    -6576.271   -6464.8255   -1279.3924    20551.342    60.616431 
   24530     997.6983    -6576.669   -6465.3743   -1648.1265    20550.381    60.630731 
   24540    982.08884   -6575.4316   -6465.8781   -1726.7049    20547.678    60.680595 
   24550    988.67667   -6576.6269   -6466.3386   -2046.9024    20543.084    60.735567 
   24560    990.24025   -6577.2304   -6466.7676   -2094.6698    20536.336    60.767436 
   24570    974.57419   -6575.8868   -6467.1716   -1524.1176    20527.415    60.785378 
   24580    963.30682    -6574.982   -6467.5236   -1313.1516    20516.832    60.794277 
   24590    953.99078   -6574.2299   -6467.8108   -836.74884    20504.912    60.781666 
   24600    957.25402   -6574.8132     -6468.03   -319.95067    20492.139    60.754679 
   24610    955.92001   -6574.8196   -6468.1853    151.06269    20479.074    60.734061 
   24620    952.13576   -6574.5038   -6468.2916    684.91835    20466.234    60.721869 
   24630    946.72239   -6573.9455   -6468.3372    610.88623    20454.117    60.707786 
   24640    956.58881   -6575.0406   -6468.3317    334.38131    20442.684    60.692624 
   24650    968.42068    -6576.318   -6468.2892    348.04443    20431.679    60.674466 
   24660    992.38129   -6578.9401   -6468.2385    532.81126    20421.102    60.649352 
   24670    1002.1279   -6580.0085   -6468.2196    1003.2979     20411.17    60.627295 
   24680    1007.6823   -6580.6689   -6468.2604    1385.4987    20402.346    60.630744 
   24690    1011.7926   -6581.2469   -6468.3799    1281.8157    20394.995    60.662224 
   24700    987.87716   -6578.7756   -6468.5764    1078.9124    20389.036    60.693942 
   24710    978.41293   -6577.9577   -6468.8142     895.5045     20384.25    60.696461 
   24720    972.20223   -6577.5172   -6469.0666    851.22664    20380.456    60.676244 
   24730    972.75154   -6577.8405   -6469.3286    968.95663    20377.596    60.651804 
   24740      969.225   -6577.7178   -6469.5993    1292.5178    20375.805    60.629492 
   24750    973.62693    -6578.488   -6469.8785     1211.949    20375.367    60.615066 
   24760    993.43896   -6581.0049   -6470.1852    982.37427    20376.213    60.628362 
   24770    1005.8077   -6582.7579   -6470.5585    699.46985    20378.099     60.67713 
   24780    991.82188   -6581.6697   -6471.0305    508.26009    20380.737    60.734792 
   24790    968.71376   -6579.6366   -6471.5751    522.52238    20383.931    60.761888 
   24800    958.99825   -6579.1314   -6472.1537    521.03752    20387.685    60.752266 
   24810     963.6427   -6580.2404   -6472.7446    968.32624    20392.057     60.73153 
   24820    983.75866   -6583.1159   -6473.3761    910.18326    20397.394    60.726154 
   24830    976.66726    -6583.003   -6474.0543    789.15334    20403.707    60.747751 
   24840    969.56291   -6582.9244   -6474.7682     942.0488    20410.901    60.805846 
   24850    946.48582   -6581.0509    -6475.469     913.5825    20419.086    60.904178 
   24860    926.18149   -6579.4234   -6476.1064    445.10073    20428.211    61.020074 
   24870    927.34336   -6580.0894   -6476.6429    -362.7581     20437.78    61.121946 
   24880    936.78388   -6581.5856    -6477.086   -990.24948    20446.968    61.205924 
   24890    939.39882   -6582.2382   -6477.4469   -1329.0055    20455.107    61.276148 
   24900    930.79494    -6581.559   -6477.7275    -1369.993     20461.85    61.328278 
   24910    928.30265   -6581.4757   -6477.9222   -1741.8999    20467.051    61.363533 
   24920    921.81401    -6580.854   -6478.0243    -1654.075     20470.41    61.379029 
   24930    892.80108   -6577.6005   -6478.0072   -1133.0454     20472.03    61.365311 
   24940    897.74753   -6577.9806   -6477.8355   -1072.9622    20472.377    61.321682 
   24950     914.4166   -6579.4865   -6477.4819   -975.78279    20471.586    61.287072 
   24960    938.77489   -6581.6806   -6476.9589   -1257.1599    20469.705    61.289182 
   24970    962.87876   -6583.6998   -6476.2892   -1475.8431    20466.485    61.325947 
   24980    970.28357   -6583.7439   -6475.5073   -1064.6096    20461.767    61.368625 
   24990    971.38597   -6583.0064   -6474.6468   -614.99716    20455.903    61.392577 
   25000    936.05708    -6578.136   -6473.7174    160.02671    20449.427    61.379052 
Loop time of 16708.8 on 16 procs for 20000 steps with 864 atoms

Performance: 0.103 ns/day, 232.067 hours/ns, 1.197 timesteps/s
97.4% CPU use with 16 MPI tasks x 1 OpenMP threads

MPI task timing breakdown:
Section |  min time  |  avg time  |  max time  |%varavg| %total
---------------------------------------------------------------
Pair    | 12490      | 14843      | 16090      | 927.0 | 88.83
Bond    | 0.0015538  | 0.0042544  | 0.0075183  |   3.0 |  0.00
Neigh   | 0.23835    | 0.28686    | 0.35304    |   5.9 |  0.00
Comm    | 313.76     | 1573.4     | 3736.1     |2653.2 |  9.42
Output  | 62.862     | 62.891     | 63.323     |   1.4 |  0.38
Modify  | 74.954     | 229.13     | 419.91     | 768.7 |  1.37
Other   |            | 0.1039     |            |       |  0.00

Nlocal:        54.0000 ave          64 max          40 min
Histogram: 1 0 0 2 0 3 6 3 0 1
Nghost:        502.812 ave         537 max         461 min
Histogram: 2 1 2 0 0 3 2 2 2 2
Neighs:         0.00000 ave           0 max           0 min
Histogram: 16 0 0 0 0 0 0 0 0 0
FullNghs:      2259.50 ave        3030 max        1396 min
Histogram: 1 0 0 3 3 2 5 1 0 1

Total # of neighbors = 36152
Ave neighs/atom = 41.842593
Ave special neighs/atom = 0.0000000
Neighbor list builds = 2000
Dangerous builds = 2000
unfix   3
                
Total wall time: 5:45:52
